 Gaussian 16, Revision A.03,

 -----------------------------------------------------------
 # opt freq B3LYP/6-31G(d) empiricaldispersion=gd3bj scf=xqc
 -----------------------------------------------------------

 -------------------------------
 CID_128291972_JID_6012_neutraal
 -------------------------------
 Symbolic Z-matrix:
 Charge =  0 Multiplicity = 1

 SCF Done:  E(RB3LYP) =  -741.695357210     A.U. after   15 cycles
 SCF Done:  E(RB3LYP) =  -741.699677962     A.U. after   14 cycles
 SCF Done:  E(RB3LYP) =  -741.696695702     A.U. after   13 cycles
 SCF Done:  E(RB3LYP) =  -741.701393493     A.U. after   13 cycles
 SCF Done:  E(RB3LYP) =  -741.701910140     A.U. after   12 cycles
 SCF Done:  E(RB3LYP) =  -741.702063659     A.U. after   12 cycles
 SCF Done:  E(RB3LYP) =  -741.702223250     A.U. after   11 cycles
 SCF Done:  E(RB3LYP) =  -741.702301871     A.U. after   12 cycles
 SCF Done:  E(RB3LYP) =  -741.702332125     A.U. after   12 cycles
 SCF Done:  E(RB3LYP) =  -741.702336053     A.U. after   10 cycles
 SCF Done:  E(RB3LYP) =  -741.702337141     A.U. after    9 cycles
 SCF Done:  E(RB3LYP) =  -741.702337445     A.U. after    8 cycles
 Optimization completed.
    -- Stationary point found.
 Normal termination of Gaussian 16 at Thu Dec 10 21:08:15 2020.

 --------------------------------------------------------------------
 #N Geom=AllCheck Guess=TCheck SCRF=Check GenChk RB3LYP/6-31G(d) Freq
 --------------------------------------------------------------------

 Structure from the checkpoint file:  "JID_6012.chk"
 -------------------------------
 CID_128291972_JID_6012_neutraal
 -------------------------------
 Charge =  0 Multiplicity = 1

 SCF Done:  E(RB3LYP) =  -741.702337445     A.U. after    1 cycles

  Exact polarizability: 162.554 -12.225 125.000 -10.472  -7.089 101.696
 Approx polarizability: 226.424 -18.873 207.357 -20.990 -19.282 170.539

                      1                      2                      3
                      A                      A                      A
 Frequencies --     31.0434                43.6310                83.1012
 Red. masses --      6.7603                 4.7334                 6.0690
 Frc consts  --      0.0038                 0.0053                 0.0247
 IR Inten    --      0.6777                 0.0250                 3.1544

                      4                      5                      6
                      A                      A                      A
 Frequencies --     97.7204               152.9846               199.0445
 Red. masses --      4.5953                 2.9396                 5.2478
 Frc consts  --      0.0259                 0.0405                 0.1225
 IR Inten    --      0.5773                 0.9690                 0.9626

                      7                      8                      9
                      A                      A                      A
 Frequencies --    207.9021               257.6898               266.9275
 Red. masses --      4.4218                 3.3422                 2.6045
 Frc consts  --      0.1126                 0.1308                 0.1093
 IR Inten    --      1.3105                 3.4879                 1.3391

                     10                     11                     12
                      A                      A                      A
 Frequencies --    308.2128               344.9851               374.5565
 Red. masses --      3.6297                 3.9577                 2.3671
 Frc consts  --      0.2031                 0.2775                 0.1957
 IR Inten    --      0.9520                 8.0554                 6.9139

                     13                     14                     15
                      A                      A                      A
 Frequencies --    386.9722               428.5160               441.8187
 Red. masses --      3.1395                 5.8808                 2.8150
 Frc consts  --      0.2770                 0.6362                 0.3238
 IR Inten    --      5.9263                17.0093                 9.5715

                     16                     17                     18
                      A                      A                      A
 Frequencies --    462.5493               537.9240               566.9442
 Red. masses --      5.4126                 3.2641                 3.3364
 Frc consts  --      0.6823                 0.5565                 0.6318
 IR Inten    --     14.3401                 1.2932                 6.0009

                     19                     20                     21
                      A                      A                      A
 Frequencies --    581.5862               631.1017               674.8706
 Red. masses --      4.7597                 8.3632                 3.0392
 Frc consts  --      0.9485                 1.9626                 0.8156
 IR Inten    --     10.7264                 0.2519                10.7527

                     22                     23                     24
                      A                      A                      A
 Frequencies --    750.5142               766.1380               789.3787
 Red. masses --      6.3318                 6.0400                 2.6321
 Frc consts  --      2.1013                 2.0888                 0.9663
 IR Inten    --      9.7059                 9.4735                 4.4913

                     25                     26                     27
                      A                      A                      A
 Frequencies --    799.8663               829.2735               865.8455
 Red. masses --      1.0883                 2.8177                 2.2611
 Frc consts  --      0.4102                 1.1417                 0.9988
 IR Inten    --      0.9247                 1.9077                16.5674

                     28                     29                     30
                      A                      A                      A
 Frequencies --    875.1765               911.5374               926.1023
 Red. masses --      1.8930                 2.3779                 2.5183
 Frc consts  --      0.8543                 1.1641                 1.2726
 IR Inten    --      3.7847                 7.1740                12.3606

                     31                     32                     33
                      A                      A                      A
 Frequencies --    953.5813               961.7401               974.5203
 Red. masses --      1.9603                 1.3978                 1.6359
 Frc consts  --      1.0502                 0.7618                 0.9154
 IR Inten    --     17.8891                 2.5084                 9.7106

                     34                     35                     36
                      A                      A                      A
 Frequencies --    985.8351               997.6957              1033.2108
 Red. masses --      1.4846                 2.6429                 2.6747
 Frc consts  --      0.8501                 1.5500                 1.6823
 IR Inten    --      0.4377                44.2497                16.1664

                     37                     38                     39
                      A                      A                      A
 Frequencies --   1040.7333              1061.4661              1076.7134
 Red. masses --      5.2697                 2.0559                 1.7397
 Frc consts  --      3.3629                 1.3648                 1.1883
 IR Inten    --     23.0419                 4.1278                16.8280

                     40                     41                     42
                      A                      A                      A
 Frequencies --   1087.6399              1105.1000              1123.2234
 Red. masses --      2.5727                 1.3820                 2.4563
 Frc consts  --      1.7931                 0.9944                 1.8259
 IR Inten    --      5.3100                 7.1541                36.1356

                     43                     44                     45
                      A                      A                      A
 Frequencies --   1140.1993              1154.7504              1204.0798
 Red. masses --      3.9386                 2.9395                 2.2405
 Frc consts  --      3.0168                 2.3094                 1.9138
 IR Inten    --     74.0118                12.7819                68.7840

                     46                     47                     48
                      A                      A                      A
 Frequencies --   1207.2947              1214.1649              1248.9462
 Red. masses --      1.3161                 1.9657                10.1295
 Frc consts  --      1.1303                 1.7074                 9.3095
 IR Inten    --      5.4578                31.3508                 2.5547

                     49                     50                     51
                      A                      A                      A
 Frequencies --   1263.3724              1286.5898              1319.5971
 Red. masses --      1.2897                 1.7593                 1.5700
 Frc consts  --      1.2128                 1.7158                 1.6108
 IR Inten    --     12.5039                11.2990                 0.6698

                     52                     53                     54
                      A                      A                      A
 Frequencies --   1328.3102              1339.1669              1370.1248
 Red. masses --      1.4444                 1.7184                 1.7826
 Frc consts  --      1.5015                 1.8157                 1.9716
 IR Inten    --      1.5730                69.6156                36.6800

                     55                     56                     57
                      A                      A                      A
 Frequencies --   1388.7832              1404.7347              1420.3037
 Red. masses --      1.4112                 1.5311                 1.9327
 Frc consts  --      1.6036                 1.7801                 2.2971
 IR Inten    --     14.0911                23.6197               146.3594

                     58                     59                     60
                      A                      A                      A
 Frequencies --   1433.6763              1451.9913              1490.8466
 Red. masses --      1.4695                 2.5983                 1.0959
 Frc consts  --      1.7796                 3.2275                 1.4351
 IR Inten    --      4.9009                55.4740                 0.9226

                     61                     62                     63
                      A                      A                      A
 Frequencies --   1496.1757              1513.9683              1521.0488
 Red. masses --      1.1283                 1.1072                 2.2678
 Frc consts  --      1.4881                 1.4952                 3.0912
 IR Inten    --     22.7679                 0.2427                 7.0776

                     64                     65                     66
                      A                      A                      A
 Frequencies --   1524.8503              1534.7555              1591.3835
 Red. masses --      1.1248                 1.3428                 8.6302
 Frc consts  --      1.5409                 1.8635                12.8771
 IR Inten    --      5.3476                 3.6396                 0.9215

                     67                     68                     69
                      A                      A                      A
 Frequencies --   1627.7319              1736.0471              2976.6143
 Red. masses --      4.9378                11.5581                 1.0712
 Frc consts  --      7.7082                20.5239                 5.5918
 IR Inten    --      1.9999               254.4311                50.4285

                     70                     71                     72
                      A                      A                      A
 Frequencies --   3011.4949              3094.8291              3114.2994
 Red. masses --      1.0697                 1.0658                 1.0928
 Frc consts  --      5.7156                 6.0147                 6.2450
 IR Inten    --     40.0967                19.2716                27.1476

                     73                     74                     75
                      A                      A                      A
 Frequencies --   3121.3290              3156.1242              3158.7507
 Red. masses --      1.0951                 1.0526                 1.0620
 Frc consts  --      6.2861                 6.1775                 6.2433
 IR Inten    --     49.1284                 8.6776                11.6577

                     76                     77                     78
                      A                      A                      A
 Frequencies --   3174.9302              3181.2499              3197.9903
 Red. masses --      1.1011                 1.0876                 1.0937
 Frc consts  --      6.5393                 6.4853                 6.5901
 IR Inten    --      3.4979                 3.5034                47.5294

                     79                     80                     81
                      A                      A                      A
 Frequencies --   3202.8180              3239.3214              3265.9409
 Red. masses --      1.0952                 1.1191                 1.1119
 Frc consts  --      6.6192                 6.9187                 6.9875
 IR Inten    --      2.1813                 6.5394                 2.5927

 - Thermochemistry -
 -------------------
 Temperature   298.150 Kelvin.  Pressure   1.00000 Atm.
 Atom     1 has atomic number  6 and mass  12.00000

 Molecular mass:   219.10078 amu.
 Principal axes and moments of inertia in atomic units:
                           1         2         3
     Eigenvalues --  1773.491084524.393735125.77888
           X            0.99994  -0.00999  -0.00329
           Y            0.00992   0.99975  -0.02016
           Z            0.00349   0.02012   0.99979
 This molecule is an asymmetric top.
 Rotational symmetry number  1.
 Warning -- assumption of classical behavior for rotation
           may cause significant error
 Rotational temperatures (Kelvin)      0.04884     0.01914     0.01690
 Rotational constants (GHZ):           1.01762     0.39889     0.35209
 Zero-point vibrational energy     622680.0 (Joules/Mol)
                                  148.82408 (Kcal/Mol)
 Warning -- explicit consideration of  19 degrees of freedom as
           vibrations may cause significant error
 Vibrational temperatures:     44.66    62.78   119.56   140.60   220.11
          (Kelvin)            286.38   299.12   370.76   384.05   443.45
                              496.36   538.90   556.77   616.54   635.68
                              665.51   773.95   815.71   836.77   908.01
                              970.99  1079.82  1102.30  1135.74  1150.83
                             1193.14  1245.76  1259.18  1311.50  1332.45
                             1371.99  1383.73  1402.12  1418.40  1435.46
                             1486.56  1497.38  1527.21  1549.15  1564.87
                             1589.99  1616.07  1640.49  1661.43  1732.40
                             1737.03  1746.91  1796.96  1817.71  1851.12
                             1898.61  1911.14  1926.76  1971.30  1998.15
                             2021.10  2043.50  2062.74  2089.09  2145.00
                             2152.66  2178.26  2188.45  2193.92  2208.17
                             2289.65  2341.94  2497.78  4282.68  4332.87
                             4452.77  4480.78  4490.90  4540.96  4544.74
                             4568.02  4577.11  4601.19  4608.14  4660.66
                             4698.96

 Zero-point correction=                           0.237166 (Hartree/Particle)
 Thermal correction to Energy=                    0.250240
 Thermal correction to Enthalpy=                  0.251184
 Thermal correction to Gibbs Free Energy=         0.196511
 Sum of electronic and zero-point Energies=           -741.465171
 Sum of electronic and thermal Energies=              -741.452098
 Sum of electronic and thermal Enthalpies=            -741.451154
 Sum of electronic and thermal Free Energies=         -741.505826

                     E (Thermal)             CV                S
                      KCal/Mol        Cal/Mol-Kelvin    Cal/Mol-Kelvin
 Total                  157.028             51.169            115.068
 Electronic               0.000              0.000              0.000
 Translational            0.889              2.981             42.056
 Rotational               0.889              2.981             32.087
 Vibrational            155.250             45.207             40.925
 Vibration     1          0.594              1.983              5.762
 Vibration     2          0.595              1.980              5.087
 Vibration     3          0.600              1.961              3.816
 Vibration     4          0.603              1.951              3.499
 Vibration     5          0.619              1.899              2.635
 Vibration     6          0.637              1.841              2.142
 Vibration     7          0.641              1.829              2.062
 Vibration     8          0.667              1.750              1.677
 Vibration     9          0.672              1.734              1.616
 Vibration    10          0.698              1.658              1.372
 Vibration    11          0.723              1.585              1.189
 Vibration    12          0.746              1.524              1.061
 Vibration    13          0.755              1.498              1.012
 Vibration    14          0.790              1.408              0.864
 Vibration    15          0.802              1.379              0.821
 Vibration    16          0.820              1.333              0.759
 Vibration    17          0.893              1.166              0.570
 Vibration    18          0.923              1.103              0.510
 Vibration    19          0.938              1.071              0.482

 Optimization completed.
    -- Stationary point found.
 Normal termination of Gaussian 16 at Thu Dec 10 21:18:17 2020.

 ----------------------------------------------------------------------
 # B3LYP/6-311++G(d,p) empiricaldispersion=gd3bj scf=xqc pop=npa geom=c
 heck
 ----------------------------------------------------------------------

 ---------------------------------------
 CID_128291972_JID_6012_Energie_neutraal
 ---------------------------------------
 Structure from the checkpoint file:  "JID_6012.chk"
 Charge =  0 Multiplicity = 1

 SCF Done:  E(RB3LYP) =  -741.902639754     A.U. after   15 cycles
 Normal termination of Gaussian 16 at Thu Dec 10 21:22:02 2020.

 ----------------------------------------------------------------------
 # B3LYP/6-311++G(d,p) empiricaldispersion=gd3bj scf=xqc pop=npa geom=c
 heck
 ----------------------------------------------------------------------

 -------------------------------------
 CID_128291972_JID_6012_Energie_kation
 -------------------------------------
 Structure from the checkpoint file:  "JID_6012.chk"
 Charge =  1 Multiplicity = 2

 SCF Done:  E(UB3LYP) =  -741.590651258     A.U. after   25 cycles
 Normal termination of Gaussian 16 at Thu Dec 10 21:31:57 2020.
 Gaussian 16:  ES64L-G16RevA.03 25-Dec-2016

 ----------------------------------------------------------------------
 # B3LYP/6-311++G(d,p) empiricaldispersion=gd3bj scf=xqc pop=npa geom=c
 heck
 ----------------------------------------------------------------------

 ------------------------------------
 CID_128291972_JID_6012_Energie_anion
 ------------------------------------
 Structure from the checkpoint file:  "JID_6012.chk"
 Charge = -1 Multiplicity = 2

                         Standard orientation:
 ---------------------------------------------------------------------
 Center     Atomic      Atomic             Coordinates (Angstroms)
 Number     Number       Type             X           Y           Z
 ---------------------------------------------------------------------
      1          6           0        1.754954    2.215404   -0.605707
      2          6           0        0.352594    2.213264   -0.059584
      3          6           0        1.204514    0.982589    0.068640
      4          6           0        1.811102    0.581725    1.399980
      5          8           0        3.047454   -0.093569    1.206390
      6          6           0        2.903296   -1.238056    0.370220
      7          6           0        2.298454   -0.872073   -0.987952
      8          7           0        1.009630   -0.193916   -0.766460
      9          6           0       -0.088307   -1.018456   -0.673925
     10          8           0       -0.045999   -2.217583   -0.936859
     11          6           0       -1.418518   -0.450502   -0.244315
     12          7           0       -2.001257    0.518297   -0.960620
     13          6           0       -3.237121    0.869243   -0.586775
     14          6           0       -3.876022    0.279463    0.503429
     15          7           0       -3.297378   -0.689563    1.223852
     16          6           0       -2.078873   -1.063510    0.830388
     17          1           0        2.533544    2.764771   -0.084925
     18          1           0        1.863050    2.179456   -1.685340
     19          1           0       -0.460858    2.176753   -0.772203
     20          1           0        0.139529    2.762971    0.853808
     21          1           0        1.104134   -0.065162    1.948823
     22          1           0        2.030724    1.458841    2.014973
     23          1           0        3.905550   -1.659712    0.253900
     24          1           0        2.259154   -1.987100    0.857430
     25          1           0        2.954386   -0.179004   -1.522254
     26          1           0        2.128032   -1.762675   -1.592102
     27          1           0       -3.725941    1.644614   -1.172190
     28          1           0       -4.874477    0.589844    0.802913
     29          1           0       -1.601879   -1.872652    1.377115
 ---------------------------------------------------------------------

 SCF Done:  E(UB3LYP) =  -741.914273318     A.U. after   32 cycles

 The electronic state is 2-A.
 Alpha  occ. eigenvalues --  -19.02809 -18.95331 -14.21870 -14.13195 -14.12922
 Alpha  occ. eigenvalues --  -10.12882 -10.11880 -10.11720 -10.11147 -10.09237
 Alpha  occ. eigenvalues --  -10.07129 -10.06468 -10.04647 -10.04412 -10.04155
 Alpha  occ. eigenvalues --  -10.03498  -0.94475  -0.90673  -0.82484  -0.80562
 Alpha  occ. eigenvalues --   -0.74656  -0.73361  -0.65395  -0.61681  -0.58856
 Alpha  occ. eigenvalues --   -0.53380  -0.51649  -0.50320  -0.48995  -0.48220
 Alpha  occ. eigenvalues --   -0.41878  -0.40292  -0.39462  -0.38404  -0.36746
 Alpha  occ. eigenvalues --   -0.35300  -0.34927  -0.34009  -0.33164  -0.30732
 Alpha  occ. eigenvalues --   -0.30341  -0.28950  -0.28394  -0.27253  -0.26621
 Alpha  occ. eigenvalues --   -0.26165  -0.24862  -0.23139  -0.22553  -0.20585
 Alpha  occ. eigenvalues --   -0.18923  -0.17707  -0.16767  -0.13982  -0.13869
 Alpha  occ. eigenvalues --   -0.11957  -0.10638  -0.07916   0.05076
 Alpha virt. eigenvalues --    0.07323   0.08493   0.09261   0.09788   0.10985
 Alpha virt. eigenvalues --    0.11231   0.11351   0.12037   0.12203   0.12578
 Alpha virt. eigenvalues --    0.13368   0.14354   0.14679   0.15064   0.15246

  Beta  occ. eigenvalues --  -19.02807 -18.95217 -14.21847 -14.12582 -14.12180
  Beta  occ. eigenvalues --  -10.12790 -10.11874 -10.11712 -10.11147 -10.09237
  Beta  occ. eigenvalues --  -10.07129 -10.06460 -10.04725 -10.04451 -10.03983
  Beta  occ. eigenvalues --  -10.03333  -0.94464  -0.90465  -0.82400  -0.79694
  Beta  occ. eigenvalues --   -0.74627  -0.72172  -0.65346  -0.61307  -0.58753
  Beta  occ. eigenvalues --   -0.53286  -0.51508  -0.49936  -0.48564  -0.48051
  Beta  occ. eigenvalues --   -0.41811  -0.40237  -0.39301  -0.38348  -0.36713
  Beta  occ. eigenvalues --   -0.35113  -0.34592  -0.33732  -0.33122  -0.30684
  Beta  occ. eigenvalues --   -0.30209  -0.28830  -0.28332  -0.26758  -0.26547
  Beta  occ. eigenvalues --   -0.25717  -0.23666  -0.22909  -0.22391  -0.20393
  Beta  occ. eigenvalues --   -0.18899  -0.17643  -0.13723  -0.13601  -0.13020
  Beta  occ. eigenvalues --   -0.11596  -0.09542  -0.07197
  Beta virt. eigenvalues --    0.07307   0.08407   0.09194   0.09719   0.10929
  Beta virt. eigenvalues --    0.11096   0.11273   0.11991   0.12203   0.12355
  Beta virt. eigenvalues --    0.12847   0.13347   0.14342   0.14670   0.15058

 Mulliken charges and spin densities:
               1          2
     1  C   -0.111292   0.010959
     2  C   -0.233479  -0.047117
     3  C   -0.113419   0.059313
     4  C   -0.742721  -0.018001
     5  O   -0.080808   0.004403
     6  C   -0.131937  -0.163568
     7  C   -0.123931   0.017939
     8  N    0.265347  -0.014575
     9  C   -1.042928  -0.050711
    10  O   -0.318228   0.039059
    11  C    0.322695   0.177581
    12  N   -0.077794   0.315721
    13  C    0.069663   0.057826
    14  C   -0.274665   0.145122
    15  N   -0.112001   0.264398
    16  C   -0.056769  -0.044467
    17  H    0.143031   0.005238
    18  H    0.149230   0.000138
    19  H    0.163871  -0.001165
    20  H    0.124019   0.024918
    21  H    0.192963   0.002426
    22  H    0.147585  -0.000690
    23  H    0.036714   0.132362
    24  H    0.159766   0.013125
    25  H    0.060900   0.054825
    26  H    0.187069   0.015795
    27  H    0.107768   0.011092
    28  H    0.119278  -0.012776
    29  H    0.170073   0.000831
 Sum of Mulliken charges =  -1.00000   1.00000

 Dipole moment (field-independent basis, Debye):
    X=              7.0614    Y=              3.4225    Z=              0.2029  Tot=              7.8497
 Quadrupole moment (field-independent basis, Debye-Ang):
   XX=           -141.0312   YY=           -112.2421   ZZ=           -109.5872
   XY=             -4.6623   XZ=              1.9441   YZ=             -0.4219

 Summary of Natural Population Analysis:

                                       Natural Population
                Natural  -----------------------------------------------
    Atom  No    Charge         Core      Valence    Rydberg      Total
 -----------------------------------------------------------------------
      C    1   -0.20032      0.99959     2.19308    0.00766     3.20032
      C    2   -0.19059      0.99957     2.18283    0.00818     3.19059
      C    3    0.04527      0.99952     1.94113    0.01408     2.95473
      C    4   -0.01043      0.99951     1.99990    0.01102     3.01043
      O    5   -0.30335      0.99989     3.29433    0.00912     4.30335
      C    6   -0.02083      0.99958     2.00763    0.01362     3.02083
      C    7   -0.10528      0.99962     2.09408    0.01157     3.10528
      N    8   -0.25866      0.99962     2.74735    0.01169     3.75866
      C    9    0.35530      0.99960     1.61943    0.02566     2.64470
      O   10   -0.31557      0.99988     3.31054    0.00516     4.31557
      C   11    0.06079      0.99949     1.92346    0.01626     2.93921
      N   12   -0.13982      0.99967     2.62670    0.01346     3.63982
      C   13   -0.01426      0.99959     1.99962    0.01504     3.01426
      C   14    0.01556      0.99960     1.96411    0.02073     2.98444
      N   15   -0.15125      0.99971     2.63949    0.01205     3.65125
      C   16    0.00029      0.99955     1.98764    0.01252     2.99971
      H   17    0.09753      0.00000     0.40150    0.00097     0.40247
      H   18    0.10430      0.00000     0.39480    0.00090     0.39570
      H   19    0.13164      0.00000     0.36698    0.00138     0.36836
      H   20    0.09829      0.00000     0.40030    0.00141     0.40171
      H   21    0.08802      0.00000     0.41085    0.00113     0.41198
      H   22    0.08888      0.00000     0.41014    0.00098     0.41112
      H   23    0.08756      0.00000     0.41116    0.00127     0.41244
      H   24    0.08576      0.00000     0.41302    0.00122     0.41424
      H   25    0.09320      0.00000     0.40556    0.00124     0.40680
      H   26    0.11609      0.00000     0.38271    0.00120     0.38391
      H   27    0.07893      0.00000     0.41986    0.00122     0.42107
      H   28    0.07745      0.00000     0.42142    0.00114     0.42255
      H   29    0.08550      0.00000     0.41320    0.00130     0.41450
 =======================================================================
   * Total *   -0.00000     15.99400    41.78281    0.22318    58.00000

 Normal termination of Gaussian 16 at Thu Dec 10 21:45:57 2020.
