 Gaussian 16, Revision A.03,

 -----------------------------------------------------------
 # opt freq B3LYP/6-31G(d) empiricaldispersion=gd3bj scf=xqc
 -----------------------------------------------------------

 ------------------------------
 CID_21341651_JID_5353_neutraal
 ------------------------------
 Symbolic Z-matrix:
 Charge =  0 Multiplicity = 1

 SCF Done:  E(RB3LYP) =  -727.152071954     A.U. after   14 cycles
 SCF Done:  E(RB3LYP) =  -727.155651820     A.U. after   12 cycles
 SCF Done:  E(RB3LYP) =  -727.154784198     A.U. after   13 cycles
 SCF Done:  E(RB3LYP) =  -727.156896019     A.U. after   12 cycles
 SCF Done:  E(RB3LYP) =  -727.157110722     A.U. after   11 cycles
 SCF Done:  E(RB3LYP) =  -727.157207098     A.U. after   12 cycles
 SCF Done:  E(RB3LYP) =  -727.157314411     A.U. after   10 cycles
 SCF Done:  E(RB3LYP) =  -727.157349307     A.U. after   11 cycles
 SCF Done:  E(RB3LYP) =  -727.157355782     A.U. after    9 cycles
 SCF Done:  E(RB3LYP) =  -727.157356574     A.U. after    8 cycles
 SCF Done:  E(RB3LYP) =  -727.157356709     A.U. after    7 cycles
 SCF Done:  E(RB3LYP) =  -727.157356668     A.U. after    7 cycles
 SCF Done:  E(RB3LYP) =  -727.157356634     A.U. after    7 cycles
 SCF Done:  E(RB3LYP) =  -727.157356575     A.U. after    7 cycles
 Optimization completed.
    -- Stationary point found.
 Normal termination of Gaussian 16 at Thu Dec 10 15:38:18 2020.

 --------------------------------------------------------------------
 #N Geom=AllCheck Guess=TCheck SCRF=Check GenChk RB3LYP/6-31G(d) Freq
 --------------------------------------------------------------------

 Structure from the checkpoint file:  "JID_5353.chk"
 ------------------------------
 CID_21341651_JID_5353_neutraal
 ------------------------------
 Charge =  0 Multiplicity = 1

 SCF Done:  E(RB3LYP) =  -727.157356575     A.U. after    1 cycles

  Exact polarizability: 151.715  -0.411 112.372   1.003   0.496 110.675
 Approx polarizability: 187.814  -1.946 159.542   5.825  -3.081 176.250

                      1                      2                      3
                      A                      A                      A
 Frequencies --     23.5950                39.1498                52.9354
 Red. masses --      3.8670                 8.7510                 7.1990
 Frc consts  --      0.0013                 0.0079                 0.0119
 IR Inten    --      0.1273                 1.9269                 0.6798

                      4                      5                      6
                      A                      A                      A
 Frequencies --     61.8921                87.7694               102.7686
 Red. masses --      3.7872                 3.0842                 3.0224
 Frc consts  --      0.0085                 0.0140                 0.0188
 IR Inten    --      0.6720                 1.4799                 1.2797

                      7                      8                      9
                      A                      A                      A
 Frequencies --    161.5394               176.7460               220.9290
 Red. masses --      4.2930                 2.7202                 1.2951
 Frc consts  --      0.0660                 0.0501                 0.0372
 IR Inten    --      0.1586                 2.8937                 1.1695

                     10                     11                     12
                      A                      A                      A
 Frequencies --    233.9536               236.6867               247.1820
 Red. masses --      2.1104                 1.2691                 3.0908
 Frc consts  --      0.0681                 0.0419                 0.1113
 IR Inten    --      0.3735                 0.0894                 0.5167

                     13                     14                     15
                      A                      A                      A
 Frequencies --    278.4268               307.8072               315.2752
 Red. masses --      2.7081                 3.0827                 3.2785
 Frc consts  --      0.1237                 0.1721                 0.1920
 IR Inten    --      1.2448                 0.6565                 2.3939

                     16                     17                     18
                      A                      A                      A
 Frequencies --    363.8832               381.1952               437.5979
 Red. masses --      4.0518                 3.3191                 2.5811
 Frc consts  --      0.3161                 0.2842                 0.2912
 IR Inten    --      0.7607                 2.1950                 2.5708

                     19                     20                     21
                      A                      A                      A
 Frequencies --    475.3992               513.5258               530.5935
 Red. masses --      2.4925                 2.8466                 3.0038
 Frc consts  --      0.3319                 0.4423                 0.4983
 IR Inten    --      2.0998                 5.5946                 3.4843

                     22                     23                     24
                      A                      A                      A
 Frequencies --    551.2404               594.6297               615.5321
 Red. masses --      3.3767                 1.2479                 3.0393
 Frc consts  --      0.6045                 0.2600                 0.6785
 IR Inten    --     13.5165                65.1491                58.8518

                     25                     26                     27
                      A                      A                      A
 Frequencies --    640.9824               658.2904               736.8602
 Red. masses --      1.3868                 2.9009                 4.3060
 Frc consts  --      0.3357                 0.7407                 1.3775
 IR Inten    --     62.0989                33.7232                24.0572

                     28                     29                     30
                      A                      A                      A
 Frequencies --    772.4385               807.5162               813.7501
 Red. masses --      3.9644                 2.2946                 1.8757
 Frc consts  --      1.3937                 0.8816                 0.7318
 IR Inten    --     35.1389                11.4488                 3.6339

                     31                     32                     33
                      A                      A                      A
 Frequencies --    822.2283               852.1202               894.4185
 Red. masses --      1.7374                 1.9540                 2.8380
 Frc consts  --      0.6921                 0.8359                 1.3376
 IR Inten    --      2.4291                 6.5966                 8.4007

                     34                     35                     36
                      A                      A                      A
 Frequencies --    929.1046               982.9359              1000.7215
 Red. masses --      2.0631                 2.1624                 2.3493
 Frc consts  --      1.0493                 1.2309                 1.3862
 IR Inten    --      5.0097                 2.9932                 1.5375

                     37                     38                     39
                      A                      A                      A
 Frequencies --   1019.9486              1048.4976              1089.0873
 Red. masses --      1.7156                 2.8747                 1.8215
 Frc consts  --      1.0515                 1.8620                 1.2729
 IR Inten    --      4.6186                 8.0274                12.2776

                     40                     41                     42
                      A                      A                      A
 Frequencies --   1095.4525              1101.2456              1122.8444
 Red. masses --      1.7554                 2.1024                 1.6644
 Frc consts  --      1.2411                 1.5022                 1.2364
 IR Inten    --      6.3000                37.1781                18.6203

                     43                     44                     45
                      A                      A                      A
 Frequencies --   1130.8667              1158.1112              1172.4653
 Red. masses --      2.4313                 2.6557                 1.6377
 Frc consts  --      1.8319                 2.0986                 1.3264
 IR Inten    --     41.7471                61.3101                40.6299

                     46                     47                     48
                      A                      A                      A
 Frequencies --   1187.9026              1201.6468              1214.3994
 Red. masses --      1.6824                 2.3196                 2.1707
 Frc consts  --      1.3988                 1.9734                 1.8862
 IR Inten    --     12.1538                27.8275               153.6266

                     49                     50                     51
                      A                      A                      A
 Frequencies --   1270.7229              1274.8201              1290.5903
 Red. masses --      1.6257                 1.4081                 1.4363
 Frc consts  --      1.5467                 1.3483                 1.4095
 IR Inten    --     13.9956                25.7285                 6.8229

                     52                     53                     54
                      A                      A                      A
 Frequencies --   1310.5915              1325.6292              1342.6873
 Red. masses --      1.2216                 1.7216                 1.3828
 Frc consts  --      1.2363                 1.7825                 1.4688
 IR Inten    --     11.2539                22.2395                21.8510

                     55                     56                     57
                      A                      A                      A
 Frequencies --   1356.7794              1367.0140              1377.3860
 Red. masses --      1.2901                 1.3796                 1.4292
 Frc consts  --      1.3993                 1.5190                 1.5975
 IR Inten    --     19.6111                 5.1108                49.8225

                     58                     59                     60
                      A                      A                      A
 Frequencies --   1397.1925              1397.8805              1401.5415
 Red. masses --      2.0248                 1.5243                 2.1415
 Frc consts  --      2.3289                 1.7549                 2.4785
 IR Inten    --    133.9169                27.0491                 4.2220

                     61                     62                     63
                      A                      A                      A
 Frequencies --   1418.8581              1427.8528              1439.3991
 Red. masses --      1.5460                 1.4710                 1.2580
 Frc consts  --      1.8337                 1.7670                 1.5356
 IR Inten    --     20.5699                14.9075                13.9549

                     64                     65                     66
                      A                      A                      A
 Frequencies --   1489.7685              1499.6674              1504.0791
 Red. masses --      1.2027                 1.5673                 1.1216
 Frc consts  --      1.5727                 2.0767                 1.4950
 IR Inten    --      1.9694                51.4110                 6.4646

                     67                     68                     69
                      A                      A                      A
 Frequencies --   1519.5150              1521.9743              1525.8026
 Red. masses --      1.0666                 1.0961                 1.0613
 Frc consts  --      1.4509                 1.4959                 1.4558
 IR Inten    --      6.8203                 8.9509                19.4433

                     70                     71                     72
                      A                      A                      A
 Frequencies --   1527.7341              1529.1586              1537.2599
 Red. masses --      1.0580                 1.0627                 1.0849
 Frc consts  --      1.4548                 1.4641                 1.5105
 IR Inten    --      4.2001                 3.1751                 3.2879

                     73                     74                     75
                      A                      A                      A
 Frequencies --   1539.1745              1790.4349              1847.9456
 Red. masses --      1.0785                 8.0860                 9.6836
 Frc consts  --      1.5053                15.2721                19.4834
 IR Inten    --     16.2641               428.9126               255.7044

                     76                     77                     78
                      A                      A                      A
 Frequencies --   2903.0258              2945.3496              2956.7429
 Red. masses --      1.0738                 1.0795                 1.0627
 Frc consts  --      5.3317                 5.5175                 5.4737
 IR Inten    --     55.4205                24.8082               100.5233

                     79                     80                     81
                      A                      A                      A
 Frequencies --   3054.9386              3056.1473              3059.8284
 Red. masses --      1.0604                 1.0353                 1.0624
 Frc consts  --      5.8309                 5.6972                 5.8605
 IR Inten    --     13.0675                19.7145                15.3794

                     82                     83                     84
                      A                      A                      A
 Frequencies --   3065.9359              3081.2143              3087.3310
 Red. masses --      1.0674                 1.0822                 1.0864
 Frc consts  --      5.9115                 6.0532                 6.1009
 IR Inten    --     18.4642                12.8161                26.6180

                     85                     86                     87
                      A                      A                      A
 Frequencies --   3097.8458              3102.7103              3115.8960
 Red. masses --      1.0729                 1.1034                 1.1030
 Frc consts  --      6.0663                 6.2586                 6.3097
 IR Inten    --     41.4613                31.3321                34.1985

                     88                     89                     90
                      A                      A                      A
 Frequencies --   3116.2174              3131.3698              3139.8345
 Red. masses --      1.1010                 1.1009                 1.1021
 Frc consts  --      6.2995                 6.3599                 6.4016
 IR Inten    --      4.3463                22.9501                40.7156

                     91                     92                     93
                      A                      A                      A
 Frequencies --   3141.8384              3571.5377              3679.9803
 Red. masses --      1.1028                 1.0753                 1.0640
 Frc consts  --      6.4138                 8.0814                 8.4892
 IR Inten    --     23.5073                12.1669                54.7581

 - Thermochemistry -
 -------------------
 Temperature   298.150 Kelvin.  Pressure   1.00000 Atm.
 Atom     1 has atomic number  6 and mass  12.00000

 Molecular mass:   214.13174 amu.
 Principal axes and moments of inertia in atomic units:
                           1         2         3
     Eigenvalues --  1700.284396188.231556662.17217
           X            0.99978   0.01434  -0.01544
           Y           -0.01409   0.99977   0.01591
           Z            0.01567  -0.01569   0.99975
 This molecule is an asymmetric top.
 Rotational symmetry number  1.
 Warning -- assumption of classical behavior for rotation
           may cause significant error
 Rotational temperatures (Kelvin)      0.05094     0.01400     0.01300
 Rotational constants (GHZ):           1.06143     0.29164     0.27089
 Zero-point vibrational energy     753667.1 (Joules/Mol)
                                  180.13075 (Kcal/Mol)
 Warning -- explicit consideration of  24 degrees of freedom as
           vibrations may cause significant error
 Vibrational temperatures:     33.95    56.33    76.16    89.05   126.28
          (Kelvin)            147.86   232.42   254.30   317.87   336.61
                              340.54   355.64   400.59   442.87   453.61
                              523.55   548.45   629.61   683.99   738.85
                              763.41   793.11   855.54   885.61   922.23
                              947.13  1060.18  1111.37  1161.84  1170.80
                             1183.00  1226.01  1286.87  1336.77  1414.23
                             1439.82  1467.48  1508.55  1566.95  1576.11
                             1584.45  1615.52  1627.06  1666.26  1686.92
                             1709.13  1728.90  1747.25  1828.29  1834.18
                             1856.87  1885.65  1907.28  1931.83  1952.10
                             1966.83  1981.75  2010.25  2011.24  2016.51
                             2041.42  2054.36  2070.97  2143.44  2157.69
                             2164.03  2186.24  2189.78  2195.29  2198.07
                             2200.12  2211.77  2214.53  2576.04  2658.78
                             4176.81  4237.70  4254.09  4395.38  4397.11
                             4402.41  4411.20  4433.18  4441.98  4457.11
                             4464.11  4483.08  4483.54  4505.34  4517.52
                             4520.40  5138.65  5294.67

 Zero-point correction=                           0.287057 (Hartree/Particle)
 Thermal correction to Energy=                    0.302771
 Thermal correction to Enthalpy=                  0.303715
 Thermal correction to Gibbs Free Energy=         0.242489
 Sum of electronic and zero-point Energies=           -726.870300
 Sum of electronic and thermal Energies=              -726.854585
 Sum of electronic and thermal Enthalpies=            -726.853641
 Sum of electronic and thermal Free Energies=         -726.914868

                     E (Thermal)             CV                S
                      KCal/Mol        Cal/Mol-Kelvin    Cal/Mol-Kelvin
 Total                  189.992             58.265            128.862
 Electronic               0.000              0.000              0.000
 Translational            0.889              2.981             41.988
 Rotational               0.889              2.981             32.616
 Vibrational            188.214             52.303             54.258
 Vibration     1          0.593              1.985              6.306
 Vibration     2          0.594              1.981              5.302
 Vibration     3          0.596              1.976              4.705
 Vibration     4          0.597              1.972              4.396
 Vibration     5          0.601              1.958              3.709
 Vibration     6          0.605              1.947              3.401
 Vibration     7          0.622              1.890              2.532
 Vibration     8          0.628              1.871              2.363
 Vibration     9          0.648              1.809              1.951
 Vibration    10          0.654              1.789              1.848
 Vibration    11          0.656              1.785              1.828
 Vibration    12          0.661              1.767              1.751
 Vibration    13          0.679              1.713              1.543
 Vibration    14          0.698              1.659              1.374
 Vibration    15          0.703              1.644              1.334
 Vibration    16          0.737              1.547              1.105
 Vibration    17          0.751              1.510              1.034
 Vibration    18          0.798              1.388              0.834
 Vibration    19          0.832              1.305              0.723
 Vibration    20          0.869              1.220              0.625
 Vibration    21          0.886              1.182              0.586
 Vibration    22          0.907              1.137              0.542
 Vibration    23          0.952              1.043              0.459
 Vibration    24          0.975              0.999              0.424

 Optimization completed.
    -- Stationary point found.
 Normal termination of Gaussian 16 at Thu Dec 10 15:48:09 2020.

 ----------------------------------------------------------------------
 # B3LYP/6-311++G(d,p) empiricaldispersion=gd3bj scf=xqc pop=npa geom=c
 heck
 ----------------------------------------------------------------------

 --------------------------------------
 CID_21341651_JID_5353_Energie_neutraal
 --------------------------------------
 Structure from the checkpoint file:  "JID_5353.chk"
 Charge =  0 Multiplicity = 1

 SCF Done:  E(RB3LYP) =  -727.380632505     A.U. after   15 cycles
 Normal termination of Gaussian 16 at Thu Dec 10 15:52:11 2020.

 ----------------------------------------------------------------------
 # B3LYP/6-311++G(d,p) empiricaldispersion=gd3bj scf=xqc pop=npa geom=c
 heck
 ----------------------------------------------------------------------

 ------------------------------------
 CID_21341651_JID_5353_Energie_kation
 ------------------------------------
 Structure from the checkpoint file:  "JID_5353.chk"
 Charge =  1 Multiplicity = 2

 SCF Done:  E(UB3LYP) =  -727.070257824     A.U. after   27 cycles
 Normal termination of Gaussian 16 at Thu Dec 10 16:01:54 2020.
 Gaussian 16:  ES64L-G16RevA.03 25-Dec-2016

 ----------------------------------------------------------------------
 # B3LYP/6-311++G(d,p) empiricaldispersion=gd3bj scf=xqc pop=npa geom=c
 heck
 ----------------------------------------------------------------------

 -----------------------------------
 CID_21341651_JID_5353_Energie_anion
 -----------------------------------
 Structure from the checkpoint file:  "JID_5353.chk"
 Charge = -1 Multiplicity = 2

                         Standard orientation:
 ---------------------------------------------------------------------
 Center     Atomic      Atomic             Coordinates (Angstroms)
 Number     Number       Type             X           Y           Z
 ---------------------------------------------------------------------
      1          6           0       -3.561248   -0.831404    1.826377
      2          6           0       -3.613477    0.320163    0.808891
      3          6           0       -3.261998   -0.165388   -0.592361
      4          8           0       -4.127266   -0.479270   -1.400180
      5          7           0       -1.929880   -0.317114   -0.893718
      6          6           0       -0.775725    0.182749   -0.161588
      7          6           0       -0.381185    1.609742   -0.560992
      8          6           0        0.878369    2.042973    0.185380
      9          7           0        1.993875    1.130899   -0.068776
     10          6           0        1.669862   -0.227652    0.358309
     11          6           0        0.418029   -0.751039   -0.373769
     12          6           0        2.800541   -1.212620    0.093457
     13          8           0        3.145147   -2.077282    0.867220
     14          8           0        3.342403   -1.072128   -1.138824
     15          6           0        3.213636    1.622999    0.561367
     16          1           0       -4.220364   -1.645288    1.508393
     17          1           0       -3.888090   -0.491427    2.814435
     18          1           0       -2.549267   -1.239367    1.925706
     19          1           0       -4.631013    0.712591    0.743643
     20          1           0       -2.960680    1.140743    1.127886
     21          1           0       -1.774124   -0.609854   -1.852336
     22          1           0       -1.025055    0.172273    0.904477
     23          1           0       -1.203205    2.302260   -0.346119
     24          1           0       -0.195000    1.640417   -1.641376
     25          1           0        0.657198    2.113111    1.271401
     26          1           0        1.182453    3.043359   -0.140224
     27          1           0        1.491676   -0.281243    1.449035
     28          1           0        0.177780   -1.757314   -0.015499
     29          1           0        0.647815   -0.815041   -1.444268
     30          1           0        4.011928   -1.778397   -1.214226
     31          1           0        3.146670    1.654045    1.665415
     32          1           0        4.061834    0.992588    0.282077
     33          1           0        3.418375    2.636354    0.202884
 ---------------------------------------------------------------------

 SCF Done:  E(UB3LYP) =  -727.372173151     A.U. after   33 cycles
 SCF Done:  E(UB3LYP) =  -727.372173151     a.u. after    1 cycles

 The electronic state is 2-A.
 Alpha  occ. eigenvalues --  -19.07916 -19.02908 -18.99870 -14.24853 -14.22444
 Alpha  occ. eigenvalues --  -10.21808 -10.18394 -10.13275 -10.13038 -10.10709
 Alpha  occ. eigenvalues --  -10.09757 -10.09616 -10.09061 -10.08448 -10.08214
 Alpha  occ. eigenvalues --   -1.02219  -0.95003  -0.93329  -0.85552  -0.83753
 Alpha  occ. eigenvalues --   -0.71566  -0.69213  -0.68990  -0.61676  -0.58017
 Alpha  occ. eigenvalues --   -0.56672  -0.54750  -0.51984  -0.49682  -0.48383
 Alpha  occ. eigenvalues --   -0.43203  -0.40508  -0.40379  -0.39336  -0.38466
 Alpha  occ. eigenvalues --   -0.37967  -0.37128  -0.36181  -0.35444  -0.34577
 Alpha  occ. eigenvalues --   -0.33535  -0.33168  -0.32076  -0.30926  -0.30852
 Alpha  occ. eigenvalues --   -0.29391  -0.28517  -0.27758  -0.27172  -0.26858
 Alpha  occ. eigenvalues --   -0.26302  -0.25708  -0.25237  -0.23686  -0.19555
 Alpha  occ. eigenvalues --   -0.17072  -0.16550  -0.14080   0.03905
 Alpha virt. eigenvalues --    0.05531   0.06510   0.07383   0.08005   0.08197
 Alpha virt. eigenvalues --    0.08541   0.09323   0.09585   0.10405   0.10778
 Alpha virt. eigenvalues --    0.10908   0.11295   0.11713   0.12801   0.13062

  Beta  occ. eigenvalues --  -19.07861 -19.02896 -18.99858 -14.24846 -14.22430
  Beta  occ. eigenvalues --  -10.21802 -10.18384 -10.13264 -10.13021 -10.10678
  Beta  occ. eigenvalues --  -10.09731 -10.09609 -10.09045 -10.08435 -10.08185
  Beta  occ. eigenvalues --   -1.02147  -0.94981  -0.93272  -0.85524  -0.83731
  Beta  occ. eigenvalues --   -0.71542  -0.69174  -0.68954  -0.61632  -0.57957
  Beta  occ. eigenvalues --   -0.56612  -0.54697  -0.51900  -0.49637  -0.48324
  Beta  occ. eigenvalues --   -0.43165  -0.40466  -0.40347  -0.39296  -0.38436
  Beta  occ. eigenvalues --   -0.37929  -0.37094  -0.36138  -0.35414  -0.34541
  Beta  occ. eigenvalues --   -0.33503  -0.33128  -0.32043  -0.30890  -0.30812
  Beta  occ. eigenvalues --   -0.29354  -0.28480  -0.27723  -0.27132  -0.26825
  Beta  occ. eigenvalues --   -0.26259  -0.25677  -0.25202  -0.23650  -0.19511
  Beta  occ. eigenvalues --   -0.17051  -0.16514  -0.13995
  Beta virt. eigenvalues --    0.06239   0.06780   0.07309   0.07566   0.08090
  Beta virt. eigenvalues --    0.08700   0.08932   0.09526   0.09684   0.10767
  Beta virt. eigenvalues --    0.11004   0.11173   0.11606   0.11993   0.12926

 Mulliken charges and spin densities:
               1          2
     1  C    0.441268  -0.887201
     2  C   -0.085195  -0.062352
     3  C   -0.165540   0.151165
     4  O   -0.337587   0.001513
     5  N    0.036290   0.037935
     6  C   -1.356220   0.910934
     7  C   -0.243996   0.039038
     8  C    1.014964  -1.350853
     9  N    0.120736   0.143253
    10  C   -0.834005   0.562583
    11  C    1.325024  -1.725874
    12  C    0.133262  -0.561442
    13  O   -0.225303   0.030678
    14  O   -0.149641   0.053430
    15  C    0.280205  -0.539015
    16  H    0.082167   0.065598
    17  H   -0.255692   0.406283
    18  H   -0.238183   0.371578
    19  H    0.001298   0.205894
    20  H   -0.252187   0.418568
    21  H    0.269231   0.021883
    22  H    0.517165  -0.350049
    23  H   -0.119871   0.289899
    24  H    0.160054   0.003572
    25  H   -0.377800   0.513225
    26  H   -0.143598   0.334238
    27  H   -0.084111   0.307824
    28  H    0.240949  -0.039232
    29  H    0.066052   0.101175
    30  H   -0.407446   0.699898
    31  H    0.064774   0.055010
    32  H   -0.214119   0.383783
    33  H   -0.262947   0.407059
 Sum of Mulliken charges =  -1.00000   1.00000

 Dipole moment (field-independent basis, Debye):
    X=             -1.6128    Y=             -0.3951    Z=             -1.4542  Tot=              2.2073
 Quadrupole moment (field-independent basis, Debye-Ang):
   XX=           -185.9768   YY=           -135.7913   ZZ=           -132.7912
   XY=              6.7438   XZ=              4.3789   YZ=             -4.2170

 Summary of Natural Population Analysis:

                                       Natural Population
                Natural  -----------------------------------------------
    Atom  No    Charge         Core      Valence    Rydberg      Total
 -----------------------------------------------------------------------
      C    1   -0.28238      0.99966     2.27730    0.00542     3.28238
      C    2   -0.23567      0.99960     2.22788    0.00819     3.23567
      C    3    0.34877      0.99967     1.62866    0.02290     2.65123
      O    4   -0.32585      0.99988     3.32023    0.00574     4.32585
      N    5   -0.31967      0.99966     2.81042    0.00960     3.81967
      C    6   -0.01503      0.99956     2.00349    0.01198     3.01503
      C    7   -0.19613      0.99960     2.18685    0.00968     3.19613
      C    8   -0.08512      0.99961     2.07290    0.01261     3.08512
      N    9   -0.27415      0.99970     2.76225    0.01220     3.77415
      C   10   -0.04725      0.99953     2.03394    0.01379     3.04725
      C   11   -0.18911      0.99959     2.18142    0.00811     3.18911
      C   12    0.40757      0.99968     1.56560    0.02715     2.59243
      O   13   -0.30216      0.99987     3.29603    0.00627     4.30216
      O   14   -0.33984      0.99987     3.33237    0.00760     4.33984
      C   15   -0.17671      0.99965     2.16992    0.00715     3.17671
      H   16    0.09975      0.00000     0.39933    0.00092     0.40025
      H   17    0.10282      0.00000     0.39603    0.00116     0.39718
      H   18    0.09829      0.00000     0.40070    0.00101     0.40171
      H   19    0.10968      0.00000     0.38931    0.00101     0.39032
      H   20    0.10519      0.00000     0.39309    0.00173     0.39481
      H   21    0.19138      0.00000     0.30623    0.00239     0.30862
      H   22    0.10234      0.00000     0.39507    0.00260     0.39766
      H   23    0.10463      0.00000     0.39428    0.00109     0.39537
      H   24    0.09936      0.00000     0.39914    0.00150     0.40064
      H   25    0.08341      0.00000     0.41426    0.00234     0.41659
      H   26    0.10187      0.00000     0.39669    0.00144     0.39813
      H   27    0.09650      0.00000     0.40151    0.00198     0.40350
      H   28    0.10866      0.00000     0.39035    0.00099     0.39134
      H   29    0.10416      0.00000     0.39406    0.00178     0.39584
      H   30    0.24416      0.00000     0.24002    0.01582     0.25584
      H   31    0.08281      0.00000     0.41563    0.00155     0.41719
      H   32    0.09956      0.00000     0.39870    0.00174     0.40044
      H   33    0.09817      0.00000     0.40051    0.00132     0.40183
 =======================================================================
   * Total *    0.00000     14.99511    42.79417    0.21072    58.00000

 Normal termination of Gaussian 16 at Thu Dec 10 16:13:48 2020.
