 Gaussian 16, Revision A.03,

 -----------------------------------------------------------
 # opt freq B3LYP/6-31G(d) empiricaldispersion=gd3bj scf=xqc
 -----------------------------------------------------------

 ------------------------------
 CID_79042696_JID_9862_neutraal
 ------------------------------
 Symbolic Z-matrix:
 Charge =  0 Multiplicity = 1

 SCF Done:  E(RB3LYP) =  -844.875825213     A.U. after   15 cycles
 SCF Done:  E(RB3LYP) =  -844.873999162     A.U. after   13 cycles
 SCF Done:  E(RB3LYP) =  -844.879278156     A.U. after   12 cycles
 SCF Done:  E(RB3LYP) =  -844.879659086     A.U. after   12 cycles
 SCF Done:  E(RB3LYP) =  -844.880084233     A.U. after   11 cycles
 SCF Done:  E(RB3LYP) =  -844.880144449     A.U. after   11 cycles
 SCF Done:  E(RB3LYP) =  -844.880169359     A.U. after   10 cycles
 SCF Done:  E(RB3LYP) =  -844.880172610     A.U. after    9 cycles
 SCF Done:  E(RB3LYP) =  -844.880174709     A.U. after    8 cycles
 SCF Done:  E(RB3LYP) =  -844.880176102     A.U. after    8 cycles
 SCF Done:  E(RB3LYP) =  -844.880176605     A.U. after    8 cycles
 SCF Done:  E(RB3LYP) =  -844.880176865     A.U. after    8 cycles
 Optimization completed.
    -- Stationary point found.
 Normal termination of Gaussian 16 at Mon Dec 14 17:23:26 2020.

 --------------------------------------------------------------------
 #N Geom=AllCheck Guess=TCheck SCRF=Check GenChk RB3LYP/6-31G(d) Freq
 --------------------------------------------------------------------

 Structure from the checkpoint file:  "JID_9862.chk"
 ------------------------------
 CID_79042696_JID_9862_neutraal
 ------------------------------
 Charge =  0 Multiplicity = 1

 SCF Done:  E(RB3LYP) =  -844.880176865     A.U. after    1 cycles

  Exact polarizability: 183.324  16.938 160.524   9.175  -7.739 160.983
 Approx polarizability: 237.020  30.057 244.938  23.688 -25.335 276.384

                      1                      2                      3
                      A                      A                      A
 Frequencies --     26.3978                30.5973                58.3674
 Red. masses --      4.7518                 3.6496                 4.3028
 Frc consts  --      0.0020                 0.0020                 0.0086
 IR Inten    --      0.3444                 0.6010                 0.4773

                      4                      5                      6
                      A                      A                      A
 Frequencies --     64.1403                76.7514                95.6055
 Red. masses --      4.8877                 4.4269                 4.6593
 Frc consts  --      0.0118                 0.0154                 0.0251
 IR Inten    --      0.5685                 3.3865                 1.4964

                      7                      8                      9
                      A                      A                      A
 Frequencies --    100.8259               174.6082               181.0963
 Red. masses --      3.5752                 4.0677                 2.5443
 Frc consts  --      0.0214                 0.0731                 0.0492
 IR Inten    --      2.0007                 0.1041                 1.0303

                     10                     11                     12
                      A                      A                      A
 Frequencies --    207.6277               218.3266               229.5604
 Red. masses --      1.1809                 1.8809                 3.5301
 Frc consts  --      0.0300                 0.0528                 0.1096
 IR Inten    --      1.0047                 0.1676                 1.1779

                     13                     14                     15
                      A                      A                      A
 Frequencies --    259.6520               268.4178               285.6404
 Red. masses --      2.4697                 3.1952                 1.6417
 Frc consts  --      0.0981                 0.1356                 0.0789
 IR Inten    --      1.0147                 2.5449                 0.8372

                     16                     17                     18
                      A                      A                      A
 Frequencies --    310.6097               322.6863               367.7291
 Red. masses --      2.8969                 3.0093                 3.0800
 Frc consts  --      0.1647                 0.1846                 0.2454
 IR Inten    --      0.7762                 2.3176                 2.6379

                     19                     20                     21
                      A                      A                      A
 Frequencies --    392.0477               446.4657               452.7015
 Red. masses --      2.0789                 4.0034                 2.7053
 Frc consts  --      0.1883                 0.4702                 0.3267
 IR Inten    --      2.5285                 5.0479                 5.4468

                     22                     23                     24
                      A                      A                      A
 Frequencies --    461.8897               483.3122               497.6444
 Red. masses --      3.0314                 3.1486                 2.9148
 Frc consts  --      0.3810                 0.4333                 0.4253
 IR Inten    --      2.4111                 4.2904                 8.4956

                     25                     26                     27
                      A                      A                      A
 Frequencies --    515.6394               533.9845               578.8051
 Red. masses --      2.9650                 3.0334                 3.4526
 Frc consts  --      0.4645                 0.5096                 0.6815
 IR Inten    --      5.3982                 3.2687                 8.3743

                     28                     29                     30
                      A                      A                      A
 Frequencies --    586.7699               597.9056               628.2963
 Red. masses --      3.7062                 3.0729                 1.9272
 Frc consts  --      0.7518                 0.6472                 0.4482
 IR Inten    --      7.6838                41.0114                62.6341

                     31                     32                     33
                      A                      A                      A
 Frequencies --    682.2546               704.7786               719.0812
 Red. masses --      2.0068                 2.8979                 3.6162
 Frc consts  --      0.5503                 0.8481                 1.1017
 IR Inten    --     18.0115                 9.6500                30.1137

                     34                     35                     36
                      A                      A                      A
 Frequencies --    773.8125               778.6570               795.4606
 Red. masses --      1.9289                 1.9801                 2.4475
 Frc consts  --      0.6805                 0.7073                 0.9125
 IR Inten    --     67.3075                45.2510                 5.8497

                     37                     38                     39
                      A                      A                      A
 Frequencies --    806.8755               852.4522               862.3483
 Red. masses --      2.4728                 2.0360                 2.0483
 Frc consts  --      0.9485                 0.8717                 0.8974
 IR Inten    --      7.6545                 3.8124                 6.9560

                     40                     41                     42
                      A                      A                      A
 Frequencies --    871.4644               883.5498               907.4382
 Red. masses --      1.7704                 1.9079                 1.7468
 Frc consts  --      0.7922                 0.8775                 0.8475
 IR Inten    --      7.1692                 1.6116                 5.5736

                     43                     44                     45
                      A                      A                      A
 Frequencies --    918.3505               941.7321               955.7394
 Red. masses --      1.7554                 2.6554                 2.2120
 Frc consts  --      0.8722                 1.3875                 1.1904
 IR Inten    --     24.3997                 4.5258                 3.1364

                     46                     47                     48
                      A                      A                      A
 Frequencies --    962.9095               975.3445               990.3909
 Red. masses --      1.2735                 1.7924                 1.9083
 Frc consts  --      0.6957                 1.0046                 1.1028
 IR Inten    --      0.2464                 0.4651                 2.1921

                     49                     50                     51
                      A                      A                      A
 Frequencies --   1017.6313              1044.0225              1063.8598
 Red. masses --      5.7429                 1.7009                 2.2063
 Frc consts  --      3.5040                 1.0923                 1.4712
 IR Inten    --      1.8226                 2.1399                 4.8294

                     52                     53                     54
                      A                      A                      A
 Frequencies --   1080.5789              1095.5346              1100.5754
 Red. masses --      2.0328                 3.1768                 2.2444
 Frc consts  --      1.3985                 2.2464                 1.6017
 IR Inten    --      2.1519                57.8313                19.1337

                     55                     56                     57
                      A                      A                      A
 Frequencies --   1101.3665              1129.3689              1178.0194
 Red. masses --      1.4694                 1.7440                 2.5811
 Frc consts  --      1.0502                 1.3106                 2.1104
 IR Inten    --      3.1514                 5.0340                32.6640

                     58                     59                     60
                      A                      A                      A
 Frequencies --   1184.5787              1186.5566              1190.4392
 Red. masses --      1.3879                 1.2744                 1.5701
 Frc consts  --      1.1474                 1.0571                 1.3109
 IR Inten    --     43.4432                 1.6326                51.2974

                     61                     62                     63
                      A                      A                      A
 Frequencies --   1198.9663              1207.9853              1225.7367
 Red. masses --      2.5005                 1.1412                 1.3956
 Frc consts  --      2.1178                 0.9812                 1.2354
 IR Inten    --      5.1200                 2.8576                 4.5816

                     64                     65                     66
                      A                      A                      A
 Frequencies --   1226.5871              1236.9435              1297.5569
 Red. masses --      1.4036                 1.6582                 1.8207
 Frc consts  --      1.2442                 1.4949                 1.8061
 IR Inten    --     10.2460                27.2171                70.1645

                     67                     68                     69
                      A                      A                      A
 Frequencies --   1314.5603              1330.7256              1331.3885
 Red. masses --      1.2870                 1.6405                 1.8949
 Frc consts  --      1.3103                 1.7116                 1.9790
 IR Inten    --      3.7367                37.4027               122.7193

                     70                     71                     72
                      A                      A                      A
 Frequencies --   1341.5199              1348.6841              1368.3723
 Red. masses --      1.2631                 1.5508                 1.3524
 Frc consts  --      1.3393                 1.6619                 1.4920
 IR Inten    --      7.4766                 8.2547                 4.0671

                     73                     74                     75
                      A                      A                      A
 Frequencies --   1374.5724              1387.0755              1394.2175
 Red. masses --      4.2751                 1.3493                 1.9719
 Frc consts  --      4.7592                 1.5295                 2.2584
 IR Inten    --     19.7053                16.9818                92.2862

                     76                     77                     78
                      A                      A                      A
 Frequencies --   1399.1839              1408.7610              1427.4948
 Red. masses --      1.4020                 1.8798                 1.3317
 Frc consts  --      1.6171                 2.1980                 1.5988
 IR Inten    --     14.7783                53.3571                 2.3967

                     79                     80                     81
                      A                      A                      A
 Frequencies --   1434.5780              1491.9041              1496.0840
 Red. masses --      1.2958                 1.6883                 1.4550
 Frc consts  --      1.5712                 2.2140                 1.9188
 IR Inten    --     11.4475                19.1100                78.1946

                     82                     83                     84
                      A                      A                      A
 Frequencies --   1504.7886              1507.0793              1510.4871
 Red. masses --      1.4253                 1.3749                 1.1056
 Frc consts  --      1.9016                 1.8399                 1.4862
 IR Inten    --     27.6433                 5.7852                 1.7658

                     85                     86                     87
                      A                      A                      A
 Frequencies --   1513.8442              1517.8245              1521.6765
 Red. masses --      1.1742                 1.1264                 1.0479
 Frc consts  --      1.5855                 1.5289                 1.4296
 IR Inten    --     17.6260                13.9899                 4.6541

                     88                     89                     90
                      A                      A                      A
 Frequencies --   1528.6476              1534.2635              1536.3618
 Red. masses --      1.0920                 1.0825                 1.0857
 Frc consts  --      1.5034                 1.5014                 1.5099
 IR Inten    --     12.5896                10.4693                22.8481

                     91                     92                     93
                      A                      A                      A
 Frequencies --   1537.3811              1543.9408              1643.1539
 Red. masses --      1.0770                 2.2745                 5.6672
 Frc consts  --      1.4997                 3.1944                 9.0151
 IR Inten    --      3.9728                48.2273                62.2992

                     94                     95                     96
                      A                      A                      A
 Frequencies --   1670.6524              1777.9205              3021.3165
 Red. masses --      5.9221                 7.8664                 1.0683
 Frc consts  --      9.7386                14.6505                 5.7458
 IR Inten    --     90.2550               399.4109                24.9296

                     97                     98                     99
                      A                      A                      A
 Frequencies --   3026.3763              3046.6130              3052.9687
 Red. masses --      1.0349                 1.0628                 1.0619
 Frc consts  --      5.5844                 5.8119                 5.8317
 IR Inten    --     54.4788                21.2887                20.4448

                    100                    101                    102
                      A                      A                      A
 Frequencies --   3064.2257              3071.4727              3075.1926
 Red. masses --      1.0408                 1.0610                 1.0875
 Frc consts  --      5.7577                 5.8976                 6.0595
 IR Inten    --     13.6369                14.1716                81.8687

                    103                    104                    105
                      A                      A                      A
 Frequencies --   3085.3726              3092.9790              3096.3023
 Red. masses --      1.1067                 1.1034                 1.0963
 Frc consts  --      6.2071                 6.2191                 6.1925
 IR Inten    --     42.2077                32.5451                28.0587

                    106                    107                    108
                      A                      A                      A
 Frequencies --   3097.3220              3114.8745              3121.4290
 Red. masses --      1.0943                 1.0869                 1.1005
 Frc consts  --      6.1851                 6.2131                 6.3176
 IR Inten    --     21.9441                18.9336                12.1992

                    109                    110                    111
                      A                      A                      A
 Frequencies --   3131.9133              3142.0704              3161.3131
 Red. masses --      1.0997                 1.1029                 1.0997
 Frc consts  --      6.3557                 6.4152                 6.4752
 IR Inten    --     44.1649                16.4890                24.9414

                    112                    113                    114
                      A                      A                      A
 Frequencies --   3181.6055              3198.9779              3212.5448
 Red. masses --      1.0867                 1.0936                 1.0911
 Frc consts  --      6.4810                 6.5935                 6.6346
 IR Inten    --      6.0366                20.5319                 0.3220

                    115                    116                    117
                      A                      A                      A
 Frequencies --   3232.7641              3486.4063              3587.3968
 Red. masses --      1.0917                 1.0740                 1.0744
 Frc consts  --      6.7219                 7.6913                 8.1463
 IR Inten    --     10.3159                 1.6231                10.5435

 - Thermochemistry -
 -------------------
 Temperature   298.150 Kelvin.  Pressure   1.00000 Atm.
 Atom     1 has atomic number  6 and mass  12.00000

 Molecular mass:   262.16813 amu.
 Principal axes and moments of inertia in atomic units:
                           1         2         3
     Eigenvalues --  3298.857127155.810548047.78765
           X            0.99998   0.00245   0.00515
           Y           -0.00257   0.99971   0.02403
           Z           -0.00509  -0.02404   0.99970
 This molecule is an asymmetric top.
 Rotational symmetry number  1.
 Warning -- assumption of classical behavior for rotation
           may cause significant error
 Rotational temperatures (Kelvin)      0.02626     0.01210     0.01076
 Rotational constants (GHZ):           0.54708     0.25221     0.22425
 Zero-point vibrational energy     942667.1 (Joules/Mol)
                                  225.30284 (Kcal/Mol)
 Warning -- explicit consideration of  29 degrees of freedom as
           vibrations may cause significant error
 Vibrational temperatures:     37.98    44.02    83.98    92.28   110.43
          (Kelvin)            137.56   145.07   251.22   260.56   298.73
                              314.12   330.29   373.58   386.19   410.97
                              446.90   464.27   529.08   564.07   642.36
                              651.34   664.56   695.38   716.00   741.89
                              768.28   832.77   844.23   860.25   903.98
                              981.61  1014.02  1034.60  1113.34  1120.31
                             1144.49  1160.91  1226.49  1240.73  1253.84
                             1271.23  1305.60  1321.30  1354.94  1375.10
                             1385.41  1403.30  1424.95  1464.14  1502.12
                             1530.66  1554.71  1576.23  1583.48  1584.62
                             1624.91  1694.91  1704.34  1707.19  1712.78
                             1725.05  1738.02  1763.56  1764.79  1779.69
                             1866.89  1891.36  1914.62  1915.57  1930.15
                             1940.46  1968.78  1977.70  1995.69  2005.97
                             2013.11  2026.89  2053.85  2064.04  2146.52
                             2152.53  2165.06  2168.35  2173.25  2178.08
                             2183.81  2189.35  2199.38  2207.46  2210.48
                             2211.95  2221.39  2364.13  2403.70  2558.03
                             4347.00  4354.28  4383.40  4392.54  4408.74
                             4419.16  4424.52  4439.16  4450.11  4454.89
                             4456.36  4481.61  4491.04  4506.12  4520.74
                             4548.42  4577.62  4602.62  4622.14  4651.23
                             5016.16  5161.46

 Zero-point correction=                           0.359043 (Hartree/Particle)
 Thermal correction to Energy=                    0.377216
 Thermal correction to Enthalpy=                  0.378160
 Thermal correction to Gibbs Free Energy=         0.311968
 Sum of electronic and zero-point Energies=           -844.521134
 Sum of electronic and thermal Energies=              -844.502961
 Sum of electronic and thermal Enthalpies=            -844.502017
 Sum of electronic and thermal Free Energies=         -844.568208

                     E (Thermal)             CV                S
                      KCal/Mol        Cal/Mol-Kelvin    Cal/Mol-Kelvin
 Total                  236.706             70.847            139.312
 Electronic               0.000              0.000              0.000
 Translational            0.889              2.981             42.591
 Rotational               0.889              2.981             33.607
 Vibrational            234.929             64.885             63.114
 Vibration     1          0.593              1.985              6.083
 Vibration     2          0.594              1.984              5.790
 Vibration     3          0.596              1.974              4.512
 Vibration     4          0.597              1.971              4.326
 Vibration     5          0.599              1.965              3.972
 Vibration     6          0.603              1.952              3.542
 Vibration     7          0.604              1.948              3.438
 Vibration     8          0.627              1.874              2.385
 Vibration     9          0.630              1.865              2.317
 Vibration    10          0.641              1.829              2.064
 Vibration    11          0.646              1.813              1.973
 Vibration    12          0.652              1.796              1.882
 Vibration    13          0.668              1.746              1.664
 Vibration    14          0.673              1.731              1.606
 Vibration    15          0.683              1.700              1.500
 Vibration    16          0.699              1.653              1.359
 Vibration    17          0.708              1.630              1.296
 Vibration    18          0.740              1.539              1.089
 Vibration    19          0.759              1.487              0.992
 Vibration    20          0.806              1.369              0.807
 Vibration    21          0.811              1.355              0.788
 Vibration    22          0.820              1.335              0.761
 Vibration    23          0.839              1.287              0.701
 Vibration    24          0.853              1.255              0.664
 Vibration    25          0.871              1.215              0.620
 Vibration    26          0.889              1.175              0.578
 Vibration    27          0.935              1.077              0.488
 Vibration    28          0.944              1.060              0.473
 Vibration    29          0.956              1.036              0.453

                           ! Non-Optimized Parameters !
 Normal termination of Gaussian 16 at Mon Dec 14 17:45:09 2020.

 ----------------------------------------------------------------------
 # B3LYP/6-311++G(d,p) empiricaldispersion=gd3bj scf=xqc pop=npa geom=c
 heck
 ----------------------------------------------------------------------

 --------------------------------------
 CID_79042696_JID_9862_Energie_neutraal
 --------------------------------------
 Structure from the checkpoint file:  "JID_9862.chk"
 Charge =  0 Multiplicity = 1

 SCF Done:  E(RB3LYP) =  -845.119237603     A.U. after   16 cycles
 Normal termination of Gaussian 16 at Mon Dec 14 17:54:27 2020.

 ----------------------------------------------------------------------
 # B3LYP/6-311++G(d,p) empiricaldispersion=gd3bj scf=xqc pop=npa geom=c
 heck
 ----------------------------------------------------------------------

 ------------------------------------
 CID_79042696_JID_9862_Energie_kation
 ------------------------------------
 Structure from the checkpoint file:  "JID_9862.chk"
 Charge =  1 Multiplicity = 2

 SCF Done:  E(UB3LYP) =  -844.835165870     A.U. after   28 cycles
 Normal termination of Gaussian 16 at Mon Dec 14 18:16:09 2020.
 Gaussian 16:  ES64L-G16RevA.03 25-Dec-2016

 ----------------------------------------------------------------------
 # B3LYP/6-311++G(d,p) empiricaldispersion=gd3bj scf=xqc pop=npa geom=c
 heck
 ----------------------------------------------------------------------

 -----------------------------------
 CID_79042696_JID_9862_Energie_anion
 -----------------------------------
 Structure from the checkpoint file:  "JID_9862.chk"
 Charge = -1 Multiplicity = 2

                         Standard orientation:
 ---------------------------------------------------------------------
 Center     Atomic      Atomic             Coordinates (Angstroms)
 Number     Number       Type             X           Y           Z
 ---------------------------------------------------------------------
      1          6           0        1.111123   -2.105686    1.168875
      2          6           0        1.240763   -1.076200    0.042755
      3          6           0        1.894536    0.247257    0.534135
      4          6           0        3.403546    0.058271    0.773691
      5          6           0        4.101865   -0.535913   -0.459122
      6          6           0        3.383675   -1.812972   -0.925153
      7          7           0        1.938620   -1.654885   -1.116651
      8          7           0        1.685998    1.329498   -0.428713
      9          6           0        0.680599    2.256422   -0.481996
     10          8           0        0.516352    2.956839   -1.475506
     11          6           0       -0.234204    2.382580    0.736342
     12          6           0       -1.241137    1.250607    0.807599
     13          6           0       -1.969138    0.905122   -0.330207
     14          6           0       -2.877187   -0.160371   -0.298648
     15          6           0       -3.063985   -0.887524    0.883819
     16          6           0       -2.340738   -0.527648    2.022417
     17          6           0       -1.434716    0.529189    1.992909
     18          8           0       -3.526983   -0.413691   -1.469847
     19          6           0       -4.442033   -1.496228   -1.502882
     20          1           0        0.636243   -3.010961    0.780365
     21          1           0        0.488922   -1.704205    1.974628
     22          1           0        2.078067   -2.390977    1.595956
     23          1           0        0.229823   -0.831288   -0.295135
     24          1           0        1.419305    0.549211    1.469868
     25          1           0        3.541269   -0.619104    1.625347
     26          1           0        3.849784    1.019296    1.052311
     27          1           0        5.153398   -0.750220   -0.230668
     28          1           0        4.112827    0.197966   -1.278603
     29          1           0        3.542713   -2.606662   -0.184134
     30          1           0        3.811849   -2.176671   -1.865777
     31          1           0        1.767075   -1.068481   -1.931635
     32          1           0        2.201155    1.278567   -1.299439
     33          1           0        0.347860    2.425220    1.663031
     34          1           0       -0.743599    3.343060    0.617789
     35          1           0       -1.830973    1.447627   -1.260312
     36          1           0       -3.758413   -1.717618    0.928009
     37          1           0       -2.487380   -1.088267    2.941519
     38          1           0       -0.874298    0.794415    2.885282
     39          1           0       -3.945514   -2.449452   -1.278611
     40          1           0       -5.269189   -1.346243   -0.796624
     41          1           0       -4.836027   -1.524128   -2.519999
 ---------------------------------------------------------------------

 SCF Done:  E(UB3LYP) =  -845.109931598     A.U. after   33 cycles
 SCF Done:  E(UB3LYP) =  -845.109931599     a.u. after    1 cycles

 The electronic state is 2-A.
 Alpha  occ. eigenvalues --  -19.06993 -19.00090 -14.24780 -14.20985 -10.18801
 Alpha  occ. eigenvalues --  -10.15096 -10.13720 -10.12444 -10.10805 -10.10509
 Alpha  occ. eigenvalues --  -10.10484 -10.09896 -10.09160 -10.08662 -10.08432
 Alpha  occ. eigenvalues --  -10.08358 -10.08305 -10.08269 -10.06416  -0.98650
 Alpha  occ. eigenvalues --   -0.95203  -0.84863  -0.81454  -0.77576  -0.70393
 Alpha  occ. eigenvalues --   -0.69581  -0.68137  -0.67487  -0.62589  -0.61229
 Alpha  occ. eigenvalues --   -0.60918  -0.55394  -0.52966  -0.52708  -0.51021
 Alpha  occ. eigenvalues --   -0.49351  -0.46929  -0.44734  -0.41939  -0.41184
 Alpha  occ. eigenvalues --   -0.40927  -0.40311  -0.38625  -0.38342  -0.37564
 Alpha  occ. eigenvalues --   -0.36306  -0.35576  -0.34696  -0.33966  -0.33634
 Alpha  occ. eigenvalues --   -0.33089  -0.32523  -0.31262  -0.30403  -0.29809
 Alpha  occ. eigenvalues --   -0.29146  -0.28866  -0.28385  -0.28149  -0.27665
 Alpha  occ. eigenvalues --   -0.26904  -0.26245  -0.24679  -0.24048  -0.23752
 Alpha  occ. eigenvalues --   -0.23363  -0.18017  -0.17082  -0.16220  -0.14188
 Alpha  occ. eigenvalues --   -0.13512   0.03675
 Alpha virt. eigenvalues --    0.05164   0.05957   0.06428   0.06987   0.07177
 Alpha virt. eigenvalues --    0.07710   0.07931   0.08676   0.08852   0.09314
 Alpha virt. eigenvalues --    0.09711   0.10063   0.10365   0.10632   0.11107

  Beta  occ. eigenvalues --  -19.06985 -19.00084 -14.24776 -14.20980 -10.18795
  Beta  occ. eigenvalues --  -10.15097 -10.13681 -10.12440 -10.10803 -10.10494
  Beta  occ. eigenvalues --  -10.10483 -10.09886 -10.09145 -10.08646 -10.08409
  Beta  occ. eigenvalues --  -10.08339 -10.08291 -10.08264 -10.06394  -0.98635
  Beta  occ. eigenvalues --   -0.95191  -0.84852  -0.81440  -0.77559  -0.70369
  Beta  occ. eigenvalues --   -0.69552  -0.68116  -0.67459  -0.62560  -0.61180
  Beta  occ. eigenvalues --   -0.60884  -0.55359  -0.52932  -0.52670  -0.50992
  Beta  occ. eigenvalues --   -0.49317  -0.46894  -0.44698  -0.41915  -0.41152
  Beta  occ. eigenvalues --   -0.40912  -0.40268  -0.38600  -0.38314  -0.37540
  Beta  occ. eigenvalues --   -0.36279  -0.35541  -0.34665  -0.33943  -0.33612
  Beta  occ. eigenvalues --   -0.33071  -0.32498  -0.31235  -0.30375  -0.29783
  Beta  occ. eigenvalues --   -0.29117  -0.28841  -0.28354  -0.28123  -0.27641
  Beta  occ. eigenvalues --   -0.26877  -0.26217  -0.24648  -0.24020  -0.23729
  Beta  occ. eigenvalues --   -0.23340  -0.18003  -0.17069  -0.16205  -0.14173
  Beta  occ. eigenvalues --   -0.13498
  Beta virt. eigenvalues --    0.05706   0.06160   0.06402   0.06737   0.07282
  Beta virt. eigenvalues --    0.07749   0.07862   0.08367   0.09059   0.09273
  Beta virt. eigenvalues --    0.09503   0.10144   0.10196   0.10655   0.10825

 Mulliken charges and spin densities:
               1          2
     1  C   -0.272112  -0.423249
     2  C   -1.187056   0.394521
     3  C   -0.271114   0.406077
     4  C    0.696319  -1.215371
     5  C   -0.497863   0.336920
     6  C    0.650195  -1.040601
     7  N    0.060447  -0.003223
     8  N   -0.079353   0.055650
     9  C   -0.106362  -0.090462
    10  O   -0.279484   0.000219
    11  C    0.615779  -1.032047
    12  C    0.536986   0.387170
    13  C   -0.852112   0.402130
    14  C   -1.538969   0.658455
    15  C    0.912795  -0.619539
    16  C    0.517765  -0.727711
    17  C   -0.220696  -0.159091
    18  O   -0.117186   0.020907
    19  C    0.646194  -0.976981
    20  H    0.023907   0.151427
    21  H    0.061914   0.106919
    22  H   -0.167226   0.285582
    23  H    1.109179  -0.667581
    24  H    0.364099  -0.055112
    25  H   -0.212248   0.372928
    26  H   -0.135362   0.323076
    27  H   -0.435710   0.618802
    28  H    0.052102   0.063892
    29  H    0.157266   0.007072
    30  H   -0.142480   0.317656
    31  H    0.104909   0.169565
    32  H    0.418467  -0.108763
    33  H   -0.049475   0.208513
    34  H    0.202867   0.026343
    35  H    0.188398   0.022749
    36  H   -0.183023   0.381227
    37  H   -0.552488   0.751149
    38  H   -0.388051   0.543105
    39  H   -0.213995   0.371138
    40  H   -0.276859   0.437338
    41  H   -0.140363   0.299200
 Sum of Mulliken charges =  -1.00000   1.00000

 Dipole moment (field-independent basis, Debye):
    X=              1.0438    Y=              2.2884    Z=             -1.5360  Tot=              2.9471
 Quadrupole moment (field-independent basis, Debye-Ang):
   XX=           -205.0357   YY=           -169.0540   ZZ=           -163.2809
   XY=             -7.3713   XZ=             -2.7087   YZ=              6.6509

 Summary of Natural Population Analysis:

                                       Natural Population
                Natural  -----------------------------------------------
    Atom  No    Charge         Core      Valence    Rydberg      Total
 -----------------------------------------------------------------------
      C    1   -0.29064      0.99964     2.28494    0.00606     3.29064
      C    2   -0.01858      0.99957     2.00645    0.01256     3.01858
      C    3   -0.01956      0.99955     2.00663    0.01337     3.01956
      C    4   -0.19360      0.99961     2.18427    0.00972     3.19360
      C    5   -0.20049      0.99963     2.19290    0.00796     3.20049
      C    6   -0.09141      0.99962     2.08052    0.01127     3.09141
      N    7   -0.33898      0.99975     2.82786    0.01138     3.83898
      N    8   -0.32299      0.99965     2.81256    0.01078     3.82299
      C    9    0.35106      0.99967     1.62670    0.02258     2.64894
      O   10   -0.32641      0.99988     3.32106    0.00547     4.32641
      C   11   -0.24070      0.99955     2.23243    0.00872     3.24070
      C   12   -0.01138      0.99950     2.00188    0.01000     3.01138
      C   13   -0.12531      0.99946     2.11662    0.00923     3.12531
      C   14    0.16514      0.99939     1.82166    0.01381     2.83486
      C   15   -0.14587      0.99951     2.13690    0.00946     3.14587
      C   16   -0.08441      0.99957     2.07428    0.01056     3.08441
      C   17   -0.12079      0.99950     2.11075    0.01055     3.12079
      O   18   -0.27097      0.99985     3.26198    0.00914     4.27097
      C   19   -0.10144      0.99960     2.09290    0.00894     3.10144
      H   20    0.10610      0.00000     0.39272    0.00118     0.39390
      H   21    0.10476      0.00000     0.39389    0.00135     0.39524
      H   22    0.09555      0.00000     0.40335    0.00110     0.40445
      H   23    0.10464      0.00000     0.39278    0.00259     0.39536
      H   24    0.10573      0.00000     0.39177    0.00250     0.39427
      H   25    0.10283      0.00000     0.39583    0.00134     0.39717
      H   26    0.10391      0.00000     0.39488    0.00121     0.39609
      H   27    0.10373      0.00000     0.39493    0.00134     0.39627
      H   28    0.08780      0.00000     0.41079    0.00141     0.41220
      H   29    0.09136      0.00000     0.40744    0.00120     0.40864
      H   30    0.09536      0.00000     0.40381    0.00083     0.40464
      H   31    0.17104      0.00000     0.32670    0.00227     0.32896
      H   32    0.19166      0.00000     0.30553    0.00281     0.30834
      H   33    0.10964      0.00000     0.38917    0.00119     0.39036
      H   34    0.11759      0.00000     0.38141    0.00100     0.38241
      H   35    0.11317      0.00000     0.38523    0.00160     0.38683
      H   36    0.10901      0.00000     0.38921    0.00179     0.39099
      H   37    0.10399      0.00000     0.39461    0.00141     0.39601
      H   38    0.10300      0.00000     0.39563    0.00137     0.39700
      H   39    0.08704      0.00000     0.41143    0.00153     0.41296
      H   40    0.08609      0.00000     0.41233    0.00157     0.41391
      H   41    0.09333      0.00000     0.40571    0.00096     0.40667
 =======================================================================
   * Total *    0.00000     18.99250    51.77242    0.23508    71.00000

 Normal termination of Gaussian 16 at Mon Dec 14 18:42:29 2020.
