 Gaussian 16, Revision A.03,

 -----------------------------------------------------------
 # opt freq B3LYP/6-31G(d) empiricaldispersion=gd3bj scf=xqc
 -----------------------------------------------------------

 ----------------------------
 CID_45120339_JID_89_neutraal
 ----------------------------
 Symbolic Z-matrix:
 Charge =  0 Multiplicity = 1

 SCF Done:  E(RB3LYP) =  -425.332516332     A.U. after   13 cycles
 SCF Done:  E(RB3LYP) =  -425.343803621     A.U. after   12 cycles
 SCF Done:  E(RB3LYP) =  -425.344672766     A.U. after   11 cycles
 SCF Done:  E(RB3LYP) =  -425.344761444     A.U. after   10 cycles
 SCF Done:  E(RB3LYP) =  -425.344802042     A.U. after   10 cycles
 SCF Done:  E(RB3LYP) =  -425.344817109     A.U. after   10 cycles
 SCF Done:  E(RB3LYP) =  -425.344843237     A.U. after   11 cycles
 SCF Done:  E(RB3LYP) =  -425.344859551     A.U. after   11 cycles
 SCF Done:  E(RB3LYP) =  -425.344861649     A.U. after    9 cycles
 SCF Done:  E(RB3LYP) =  -425.344861765     A.U. after    7 cycles
 Optimization completed.
    -- Stationary point found.

 1\1\GINC-NODE310\FOpt\RB3LYP\6-31G(d)\C9H12O1\VSC10255\08-Dec-2020\0\\
 # opt freq B3LYP/6-31G(d) empiricaldispersion=gd3bj scf=xqc\\CID_45120
 339_JID_89_neutraal\\0,1\C,1.0444386411,-0.0129781409,0.0413532074\C,0
 .5834472932,-1.1393971511,0.6133591924\C,-0.9375187666,-1.3176039182,0
 .7223553186\C,-1.6595609268,-2.3090887749,-0.2464943689\C,-2.008308471
 7,-3.6906335183,0.3642348826\C,-0.8496917714,-4.0804019562,1.247483865
 2\C,0.4725382094,-4.1493788302,0.6283305441\O,-0.1386679513,-5.3255642
 892,1.1891169122\C,1.5911643371,-3.4042989419,1.250482576\C,1.60167662

 Normal termination of Gaussian 16 at Tue Dec  8 10:16:08 2020.

 --------------------------------------------------------------------
 #N Geom=AllCheck Guess=TCheck SCRF=Check GenChk RB3LYP/6-31G(d) Freq
 --------------------------------------------------------------------

 Structure from the checkpoint file:  "JID_89.chk"
 ----------------------------
 CID_45120339_JID_89_neutraal
 ----------------------------
 Charge =  0 Multiplicity = 1

 SCF Done:  E(RB3LYP) =  -425.344861765     A.U. after    1 cycles

  Exact polarizability: 119.024   3.242  95.240  -3.974   1.239  62.198
 Approx polarizability: 184.257  16.848 132.504  -8.232   3.945  97.906

                      1                      2                      3
                      A                      A                      A
 Frequencies --     55.3043               153.9250               181.5427
 Red. masses --      3.4864                 2.9202                 2.7643
 Frc consts  --      0.0063                 0.0408                 0.0537
 IR Inten    --      1.4660                 3.3944                 0.4690

                      4                      5                      6
                      A                      A                      A
 Frequencies --    234.9362               289.4107               333.5360
 Red. masses --      2.1878                 5.3541                 3.4258
 Frc consts  --      0.0711                 0.2642                 0.2245
 IR Inten    --      0.6247                 0.8201                 1.7122

                      7                      8                      9
                      A                      A                      A
 Frequencies --    360.3053               436.0834               459.0725
 Red. masses --      2.4923                 2.5177                 2.2668
 Frc consts  --      0.1906                 0.2821                 0.2815
 IR Inten    --      1.4138                 6.3448                 2.0887

                     10                     11                     12
                      A                      A                      A
 Frequencies --    476.8682               494.3023               620.7396
 Red. masses --      3.8859                 2.4491                 3.0752
 Frc consts  --      0.5206                 0.3526                 0.6981
 IR Inten    --      4.6273                 0.9830                 7.1226

                     13                     14                     15
                      A                      A                      A
 Frequencies --    663.5142               695.4462               744.2044
 Red. masses --      2.5701                 1.6856                 1.5662
 Frc consts  --      0.6667                 0.4803                 0.5111
 IR Inten    --      5.5628                 7.6924                 2.8935

                     16                     17                     18
                      A                      A                      A
 Frequencies --    794.7560               813.8833               877.8520
 Red. masses --      1.6612                 2.3007                 3.0475
 Frc consts  --      0.6182                 0.8979                 1.3837
 IR Inten    --      2.6274                11.0312                 3.6734

                     19                     20                     21
                      A                      A                      A
 Frequencies --    899.2384               928.9611               944.8688
 Red. masses --      2.4777                 1.4922                 2.7552
 Frc consts  --      1.1804                 0.7587                 1.4493
 IR Inten    --     12.3856                25.7371                33.8719

                     22                     23                     24
                      A                      A                      A
 Frequencies --    955.1911               975.5125               988.5904
 Red. masses --      2.2833                 2.4674                 1.2815
 Frc consts  --      1.2274                 1.3835                 0.7379
 IR Inten    --     23.8206                18.2908                 3.3278

                     25                     26                     27
                      A                      A                      A
 Frequencies --   1013.7935              1054.4624              1057.4026
 Red. masses --      1.6971                 2.6420                 1.7528
 Frc consts  --      1.0277                 1.7308                 1.1547
 IR Inten    --     14.6223                 0.4520                 1.8598

                     28                     29                     30
                      A                      A                      A
 Frequencies --   1126.7029              1129.1479              1149.7565
 Red. masses --      2.9224                 1.5577                 1.3317
 Frc consts  --      2.1858                 1.1701                 1.0373
 IR Inten    --      3.1394                 5.4827                 0.2272

                     31                     32                     33
                      A                      A                      A
 Frequencies --   1206.0655              1211.9667              1256.6011
 Red. masses --      1.4636                 1.2775                 1.1800
 Frc consts  --      1.2544                 1.1056                 1.0978
 IR Inten    --      3.3918                 0.8220                 0.5494

                     34                     35                     36
                      A                      A                      A
 Frequencies --   1268.9529              1318.8428              1343.2061
 Red. masses --      1.2150                 1.4046                 1.7098
 Frc consts  --      1.1527                 1.4394                 1.8176
 IR Inten    --      0.9497                 1.2283                 3.0581

                     37                     38                     39
                      A                      A                      A
 Frequencies --   1366.7739              1372.7189              1384.9562
 Red. masses --      1.2700                 1.3203                 1.3231
 Frc consts  --      1.3978                 1.4658                 1.4953
 IR Inten    --      0.4896                 4.2362                 1.5902

                     40                     41                     42
                      A                      A                      A
 Frequencies --   1387.1032              1422.9742              1474.6988
 Red. masses --      1.2707                 1.4718                 1.2942
 Frc consts  --      1.4405                 1.7558                 1.6582
 IR Inten    --     18.4044                 1.6222                 4.8554

                     43                     44                     45
                      A                      A                      A
 Frequencies --   1514.2566              1520.9964              1527.9997
 Red. masses --      1.2075                 1.9943                 1.0959
 Frc consts  --      1.6313                 2.7183                 1.5075
 IR Inten    --      3.1694                20.4418                 8.3887

                     46                     47                     48
                      A                      A                      A
 Frequencies --   1533.2688              1669.1850              1703.9430
 Red. masses --      1.1749                 4.7457                 5.7432
 Frc consts  --      1.6274                 7.7904                 9.8247
 IR Inten    --      6.7373                12.8408                 2.7504

                     49                     50                     51
                      A                      A                      A
 Frequencies --   3053.4736              3058.9942              3059.9595
 Red. masses --      1.0620                 1.0616                 1.0650
 Frc consts  --      5.8342                 5.8531                 5.8753
 IR Inten    --     19.9696                18.0512                30.5463

                     52                     53                     54
                      A                      A                      A
 Frequencies --   3090.0881              3094.8863              3097.5908
 Red. masses --      1.0988                 1.0893                 1.0991
 Frc consts  --      6.1819                 6.1471                 6.2137
 IR Inten    --     17.5081                13.9581                26.6678

                     55                     56                     57
                      A                      A                      A
 Frequencies --   3108.0965              3144.1697              3153.5544
 Red. masses --      1.1028                 1.0891                 1.0818
 Frc consts  --      6.2769                 6.3435                 6.3384
 IR Inten    --     36.4600                36.4451                 4.6499

                     58                     59                     60
                      A                      A                      A
 Frequencies --   3161.3843              3188.6462              3238.2877
 Red. masses --      1.0634                 1.0937                 1.1161
 Frc consts  --      6.2619                 6.5517                 6.8959
 IR Inten    --     11.0771                22.1209                16.0423

 - Thermochemistry -
 -------------------
 Temperature   298.150 Kelvin.  Pressure   1.00000 Atm.
 Atom     1 has atomic number  6 and mass  12.00000

 Molecular mass:   136.08882 amu.
 Principal axes and moments of inertia in atomic units:
                           1         2         3
     Eigenvalues --   861.053781471.567922159.06966
           X            0.99952  -0.03098  -0.00185
           Y            0.03097   0.99952  -0.00223
           Z            0.00192   0.00218   1.00000
 This molecule is an asymmetric top.
 Rotational symmetry number  1.
 Warning -- assumption of classical behavior for rotation
           may cause significant error
 Rotational temperatures (Kelvin)      0.10059     0.05886     0.04012
 Rotational constants (GHZ):           2.09597     1.22641     0.83589
 Zero-point vibrational energy     501492.2 (Joules/Mol)
                                  119.85952 (Kcal/Mol)
 Warning -- explicit consideration of  12 degrees of freedom as
           vibrations may cause significant error
 Vibrational temperatures:     79.57   221.46   261.20   338.02   416.40
          (Kelvin)            479.88   518.40   627.43   660.50   686.11
                              711.19   893.11   954.65  1000.59  1070.74
                             1143.48  1171.00  1263.03  1293.80  1336.57
                             1359.46  1374.31  1403.54  1422.36  1458.62
                             1517.14  1521.37  1621.07  1624.59  1654.24
                             1735.26  1743.75  1807.97  1825.74  1897.52
                             1932.57  1966.48  1975.04  1992.64  1995.73
                             2047.34  2121.76  2178.68  2188.37  2198.45
                             2206.03  2401.58  2451.59  4393.27  4401.21
                             4402.60  4445.95  4452.85  4456.74  4471.86
                             4523.76  4537.26  4548.53  4587.75  4659.17

 Zero-point correction=                           0.191008 (Hartree/Particle)
 Thermal correction to Energy=                    0.199841
 Thermal correction to Enthalpy=                  0.200786
 Thermal correction to Gibbs Free Energy=         0.157259
 Sum of electronic and zero-point Energies=           -425.153853
 Sum of electronic and thermal Energies=              -425.145020
 Sum of electronic and thermal Enthalpies=            -425.144076
 Sum of electronic and thermal Free Energies=         -425.187603

                     E (Thermal)             CV                S
                      KCal/Mol        Cal/Mol-Kelvin    Cal/Mol-Kelvin
 Total                  125.402             35.307             91.609
 Electronic               0.000              0.000              0.000
 Translational            0.889              2.981             40.637
 Rotational               0.889              2.981             29.394
 Vibrational            123.625             29.345             21.579
 Vibration     1          0.596              1.975              4.618
 Vibration     2          0.619              1.898              2.623
 Vibration     3          0.630              1.865              2.312
 Vibration     4          0.655              1.787              1.841
 Vibration     5          0.686              1.693              1.477
 Vibration     6          0.715              1.609              1.243
 Vibration     7          0.735              1.554              1.121
 Vibration     8          0.797              1.392              0.839
 Vibration     9          0.817              1.341              0.769
 Vibration    10          0.833              1.301              0.719
 Vibration    11          0.850              1.263              0.673
 Vibration    12          0.981              0.988              0.415

 Optimization completed.
    -- Stationary point found.

 1\1\GINC-NODE310\Freq\RB3LYP\6-31G(d)\C9H12O1\VSC10255\08-Dec-2020\0\\
 #N Geom=AllCheck Guess=TCheck SCRF=Check GenChk RB3LYP/6-31G(d) Freq\\
 CID_45120339_JID_89_neutraal\\0,1\C,1.0444386411,-0.0129781409,0.04135
 32074\C,0.5834472932,-1.1393971511,0.6133591924\C,-0.9375187666,-1.317
 6039182,0.7223553186\C,-1.6595609268,-2.3090887749,-0.2464943689\C,-2.
 0083084717,-3.6906335183,0.3642348826\C,-0.8496917714,-4.0804019562,1.
 2474838652\C,0.4725382094,-4.1493788302,0.6283305441\O,-0.1386679513,-
 5.3255642892,1.1891169122\C,1.5911643371,-3.4042989419,1.250482576\C,1

 Normal termination of Gaussian 16 at Tue Dec  8 10:20:03 2020.

 ----------------------------------------------------------------------
 # B3LYP/6-311++G(d,p) empiricaldispersion=gd3bj scf=xqc pop=npa geom=c
 heck
 ----------------------------------------------------------------------

 ------------------------------------
 CID_45120339_JID_89_Energie_neutraal
 ------------------------------------
 Structure from the checkpoint file:  "JID_89.chk"
 Charge =  0 Multiplicity = 1

 SCF Done:  E(RB3LYP) =  -425.462451323     A.U. after   14 cycles
 Normal termination of Gaussian 16 at Tue Dec  8 10:21:20 2020.

 ----------------------------------------------------------------------
 # B3LYP/6-311++G(d,p) empiricaldispersion=gd3bj scf=xqc pop=npa geom=c
 heck
 ----------------------------------------------------------------------

 ----------------------------------
 CID_45120339_JID_89_Energie_kation
 ----------------------------------
 Structure from the checkpoint file:  "JID_89.chk"
 Charge =  1 Multiplicity = 2

 SCF Done:  E(UB3LYP) =  -425.151713402     A.U. after   20 cycles
 Normal termination of Gaussian 16 at Tue Dec  8 10:23:45 2020.
 Gaussian 16:  ES64L-G16RevA.03 25-Dec-2016

 ---------------------------------
 CID_45120339_JID_89_Energie_anion
 ---------------------------------
 Structure from the checkpoint file:  "JID_89.chk"
 Charge = -1 Multiplicity = 2

                         Standard orientation:
 ---------------------------------------------------------------------
 Center     Atomic      Atomic             Coordinates (Angstroms)
 Number     Number       Type             X           Y           Z
 ---------------------------------------------------------------------
      1          6           0        2.997687    0.007774   -0.305933
      2          6           0        1.723532   -0.093737    0.112096
      3          6           0        1.006553    1.192679    0.545743
      4          6           0       -0.058833    1.828340   -0.405017
      5          6           0       -1.534397    1.535238   -0.030742
      6          6           0       -1.586361    0.104966    0.444719
      7          6           0       -1.110932   -0.925908   -0.475969
      8          8           0       -2.483237   -0.903726   -0.042666
      9          6           0       -0.094029   -1.892310   -0.001081
     10          6           0        1.162755   -1.469137    0.217097
     11          1           0        3.498003    0.968684   -0.389614
     12          1           0        3.577887   -0.866414   -0.590456
     13          1           0        1.799881    1.933654    0.684041
     14          1           0        0.574034    1.043162    1.541803
     15          1           0        0.131819    1.474691   -1.424353
     16          1           0        0.096806    2.912918   -0.425840
     17          1           0       -1.881802    2.220900    0.751214
     18          1           0       -2.184229    1.673300   -0.901798
     19          1           0       -1.342545   -0.046774    1.495376
     20          1           0       -1.010801   -0.635898   -1.525179
     21          1           0       -0.340769   -2.948420    0.079183
     22          1           0        1.911759   -2.227433    0.441475
 ---------------------------------------------------------------------

 SCF Done:  E(UB3LYP) =  -425.449426311     A.U. after   33 cycles
 SCF Done:  E(UB3LYP) =  -425.449426311     a.u. after    1 cycles

 The electronic state is 2-A.
 Alpha  occ. eigenvalues --  -19.01982 -10.10227 -10.10193 -10.05776 -10.05239
 Alpha  occ. eigenvalues --  -10.04769 -10.04618 -10.04371 -10.03966 -10.01875
 Alpha  occ. eigenvalues --   -0.95736  -0.70100  -0.66816  -0.63557  -0.57532
 Alpha  occ. eigenvalues --   -0.53812  -0.51236  -0.45926  -0.45682  -0.39701
 Alpha  occ. eigenvalues --   -0.37164  -0.36263  -0.34114  -0.32971  -0.30688
 Alpha  occ. eigenvalues --   -0.29774  -0.27720  -0.27305  -0.25293  -0.24953
 Alpha  occ. eigenvalues --   -0.22240  -0.21410  -0.20438  -0.18146  -0.16274
 Alpha  occ. eigenvalues --   -0.15628  -0.10463   0.05444
 Alpha virt. eigenvalues --    0.07922   0.08935   0.09251   0.09341   0.10650
 Alpha virt. eigenvalues --    0.11016   0.11975   0.12399   0.12485   0.13737
 Alpha virt. eigenvalues --    0.14144   0.15076   0.15999   0.17160   0.17609

  Beta  occ. eigenvalues --  -19.01978 -10.10223 -10.10172 -10.05756 -10.05215
  Beta  occ. eigenvalues --  -10.04759 -10.04537 -10.04305 -10.03812 -10.01656
  Beta  occ. eigenvalues --   -0.95720  -0.69916  -0.66658  -0.63326  -0.57367
  Beta  occ. eigenvalues --   -0.53703  -0.51047  -0.45701  -0.45464  -0.39536
  Beta  occ. eigenvalues --   -0.37061  -0.36176  -0.33968  -0.32888  -0.30593
  Beta  occ. eigenvalues --   -0.29682  -0.27623  -0.27204  -0.25207  -0.24785
  Beta  occ. eigenvalues --   -0.22127  -0.21330  -0.20305  -0.17942  -0.15900
  Beta  occ. eigenvalues --   -0.15405  -0.09403
  Beta virt. eigenvalues --    0.08342   0.08923   0.09450   0.09778   0.10151
  Beta virt. eigenvalues --    0.10997   0.11385   0.12071   0.12653   0.12702
  Beta virt. eigenvalues --    0.14029   0.14451   0.15398   0.16413   0.17235

 Mulliken charges and spin densities:
               1          2
     1  C    0.969595  -1.613655
     2  C   -0.096362   1.031660
     3  C    0.056075  -0.474224
     4  C    0.306529  -0.615050
     5  C    0.425189  -0.800649
     6  C   -0.291866   0.007451
     7  C    0.059433  -0.378850
     8  O   -0.153964   0.039623
     9  C    0.157118   0.093449
    10  C   -0.905331   0.402664
    11  H   -0.170638   0.269691
    12  H    0.091889   0.016108
    13  H   -0.611992   0.799677
    14  H    0.053744   0.065857
    15  H    0.183294  -0.055813
    16  H   -0.704712   0.875106
    17  H   -0.406898   0.542710
    18  H    0.134736   0.014975
    19  H    0.075474   0.120170
    20  H    0.078251   0.097258
    21  H    0.088118   0.062308
    22  H   -0.337683   0.499535
 Sum of Mulliken charges =  -1.00000   1.00000

 Dipole moment (field-independent basis, Debye):
    X=             -3.0628    Y=             -3.2027    Z=             -2.2236  Tot=              4.9581
 Quadrupole moment (field-independent basis, Debye-Ang):
   XX=           -108.6280   YY=           -104.5474   ZZ=            -78.8652
   XY=             -3.9294   XZ=             -2.2425   YZ=             -2.4655

 Summary of Natural Population Analysis:

                                       Natural Population
                Natural  -----------------------------------------------
    Atom  No    Charge         Core      Valence    Rydberg      Total
 -----------------------------------------------------------------------
      C    1   -0.14454      0.99951     2.13771    0.00732     3.14454
      C    2   -0.02307      0.99948     2.01264    0.01096     3.02307
      C    3   -0.20478      0.99958     2.19397    0.01124     3.20478
      C    4   -0.18570      0.99962     2.17680    0.00928     3.18570
      C    5   -0.20364      0.99961     2.19472    0.00931     3.20364
      C    6    0.05215      0.99948     1.93425    0.01412     2.94785
      C    7    0.02804      0.99947     1.95941    0.01308     2.97196
      O    8   -0.28368      0.99992     3.27717    0.00659     4.28368
      C    9   -0.09041      0.99950     2.08096    0.00995     3.09041
      C   10   -0.08525      0.99950     2.07452    0.01123     3.08525
      H   11    0.08776      0.00000     0.41118    0.00106     0.41224
      H   12    0.08573      0.00000     0.41335    0.00092     0.41427
      H   13    0.10604      0.00000     0.39196    0.00200     0.39396
      H   14    0.09773      0.00000     0.40059    0.00168     0.40227
      H   15    0.09523      0.00000     0.40342    0.00134     0.40477
      H   16    0.10066      0.00000     0.39670    0.00264     0.39934
      H   17    0.09809      0.00000     0.40058    0.00132     0.40191
      H   18    0.10144      0.00000     0.39736    0.00120     0.39856
      H   19    0.09107      0.00000     0.40739    0.00154     0.40893
      H   20    0.08806      0.00000     0.41052    0.00141     0.41194
      H   21    0.09430      0.00000     0.40474    0.00097     0.40570
      H   22    0.09477      0.00000     0.40336    0.00187     0.40523
 =======================================================================
   * Total *    0.00000      9.99568    26.88329    0.12102    37.00000

 Normal termination of Gaussian 16 at Tue Dec  8 10:27:44 2020.
