 Gaussian 16, Revision A.03,

 -----------------------------------------------------------
 # opt freq B3LYP/6-31G(d) empiricaldispersion=gd3bj scf=xqc
 -----------------------------------------------------------

 -------------------------------
 CID_125422232_JID_3617_neutraal
 -------------------------------
 Symbolic Z-matrix:
 Charge =  0 Multiplicity = 1

 SCF Done:  E(RB3LYP) =  -594.087268990     A.U. after   15 cycles
 SCF Done:  E(RB3LYP) =  -594.090241331     A.U. after   12 cycles
 SCF Done:  E(RB3LYP) =  -594.090913247     A.U. after   12 cycles
 SCF Done:  E(RB3LYP) =  -594.091715191     A.U. after   14 cycles
 SCF Done:  E(RB3LYP) =  -594.092673175     A.U. after   12 cycles
 SCF Done:  E(RB3LYP) =  -594.093401221     A.U. after   14 cycles
 SCF Done:  E(RB3LYP) =  -594.093619095     A.U. after   11 cycles
 SCF Done:  E(RB3LYP) =  -594.093861001     A.U. after   12 cycles
 SCF Done:  E(RB3LYP) =  -594.093992593     A.U. after   12 cycles
 SCF Done:  E(RB3LYP) =  -594.094031382     A.U. after   10 cycles
 SCF Done:  E(RB3LYP) =  -594.094058410     A.U. after    8 cycles
 SCF Done:  E(RB3LYP) =  -594.094058917     A.U. after    8 cycles
 SCF Done:  E(RB3LYP) =  -594.094059024     A.U. after    8 cycles
 SCF Done:  E(RB3LYP) =  -594.094059048     A.U. after    7 cycles
 Optimization completed.
    -- Stationary point found.
 Normal termination of Gaussian 16 at Wed Dec  9 23:48:25 2020.

 --------------------------------------------------------------------
 #N Geom=AllCheck Guess=TCheck SCRF=Check GenChk RB3LYP/6-31G(d) Freq
 --------------------------------------------------------------------

 Structure from the checkpoint file:  "JID_3617.chk"
 -------------------------------
 CID_125422232_JID_3617_neutraal
 -------------------------------
 Charge =  0 Multiplicity = 1

 SCF Done:  E(RB3LYP) =  -594.094059048     A.U. after    1 cycles

  Exact polarizability: 132.724  -8.879 114.091   7.811  -2.302  88.242
 Approx polarizability: 185.892 -16.917 156.489  14.705 -11.360 150.986

                      1                      2                      3
                      A                      A                      A
 Frequencies --     35.2448                44.1649                61.3819
 Red. masses --      4.1955                 3.8851                 4.0297
 Frc consts  --      0.0031                 0.0045                 0.0089
 IR Inten    --      0.4577                 0.1670                 0.2573

                      4                      5                      6
                      A                      A                      A
 Frequencies --     73.3967                84.4105               124.2920
 Red. masses --      3.0178                 4.5751                 2.4221
 Frc consts  --      0.0096                 0.0192                 0.0220
 IR Inten    --      1.2897                 3.6719                 1.3667

                      7                      8                      9
                      A                      A                      A
 Frequencies --    199.5954               218.9896               229.7584
 Red. masses --      4.6682                 2.8487                 1.4269
 Frc consts  --      0.1096                 0.0805                 0.0444
 IR Inten    --      0.4202                 1.6054                 0.2463

                     10                     11                     12
                      A                      A                      A
 Frequencies --    284.9545               318.3475               363.1102
 Red. masses --      2.1687                 3.8254                 3.0426
 Frc consts  --      0.1038                 0.2284                 0.2364
 IR Inten    --      3.6632                 1.0174                 6.0070

                     13                     14                     15
                      A                      A                      A
 Frequencies --    410.6825               437.8716               500.6720
 Red. masses --      2.3814                 3.9131                 2.0810
 Frc consts  --      0.2366                 0.4420                 0.3073
 IR Inten    --      1.8399                10.1300                 3.8068

                     16                     17                     18
                      A                      A                      A
 Frequencies --    562.6088               620.0108               622.5769
 Red. masses --      2.2404                 3.3020                 3.6093
 Frc consts  --      0.4178                 0.7479                 0.8242
 IR Inten    --      1.3595                14.9763                 0.7437

                     19                     20                     21
                      A                      A                      A
 Frequencies --    641.5284               712.7010               729.9844
 Red. masses --      3.4501                 4.5419                 1.3283
 Frc consts  --      0.8366                 1.3593                 0.4170
 IR Inten    --      4.0553                14.3731                 6.5950

                     22                     23                     24
                      A                      A                      A
 Frequencies --    782.0069               787.3625               801.9349
 Red. masses --      1.7291                 1.5032                 2.1511
 Frc consts  --      0.6230                 0.5491                 0.8151
 IR Inten    --     17.6198                22.0903                18.6236

                     25                     26                     27
                      A                      A                      A
 Frequencies --    813.2508               841.8284               897.3640
 Red. masses --      2.1529                 1.2701                 5.6570
 Frc consts  --      0.8389                 0.5303                 2.6839
 IR Inten    --     13.4449                 1.1332                22.2171

                     28                     29                     30
                      A                      A                      A
 Frequencies --    907.1396               989.5518              1003.0185
 Red. masses --      2.3143                 1.3926                 3.4241
 Frc consts  --      1.1220                 0.8035                 2.0296
 IR Inten    --      0.3557                13.9580                 5.7602

                     31                     32                     33
                      A                      A                      A
 Frequencies --   1006.5921              1027.4744              1041.0587
 Red. masses --      2.0075                 1.1143                 2.3021
 Frc consts  --      1.1984                 0.6931                 1.4700
 IR Inten    --     25.3964                21.7882                 9.8451

                     34                     35                     36
                      A                      A                      A
 Frequencies --   1067.6039              1089.4635              1106.4647
 Red. masses --      2.0470                 1.5439                 1.8922
 Frc consts  --      1.3746                 1.0797                 1.3649
 IR Inten    --     17.5149                 4.0027                17.0906

                     37                     38                     39
                      A                      A                      A
 Frequencies --   1116.8499              1150.4714              1207.4741
 Red. masses --      1.8694                 2.0189                 4.1222
 Frc consts  --      1.3739                 1.5744                 3.5411
 IR Inten    --     12.0431                29.8500                19.0291

                     40                     41                     42
                      A                      A                      A
 Frequencies --   1240.2571              1255.6309              1272.9848
 Red. masses --      1.6675                 1.6241                 1.7885
 Frc consts  --      1.5113                 1.5087                 1.7076
 IR Inten    --    112.0271                15.6877                22.2547

                     43                     44                     45
                      A                      A                      A
 Frequencies --   1283.7457              1337.1312              1362.5763
 Red. masses --      1.8670                 1.3377                 1.3865
 Frc consts  --      1.8128                 1.4091                 1.5167
 IR Inten    --      8.9315                17.8153                19.1933

                     46                     47                     48
                      A                      A                      A
 Frequencies --   1384.2138              1408.5245              1435.3951
 Red. masses --      1.8666                 1.3243                 1.3191
 Frc consts  --      2.1073                 1.5480                 1.6013
 IR Inten    --     33.1238                 4.3778                15.2407

                     49                     50                     51
                      A                      A                      A
 Frequencies --   1438.2787              1446.0341              1479.3170
 Red. masses --      1.4440                 1.9557                 1.8800
 Frc consts  --      1.7600                 2.4094                 2.4240
 IR Inten    --     15.0091                28.8794               165.2515

                     52                     53                     54
                      A                      A                      A
 Frequencies --   1508.3775              1520.9516              1535.2744
 Red. masses --      1.1223                 1.0471                 1.1464
 Frc consts  --      1.5044                 1.4272                 1.5921
 IR Inten    --     18.8674                 2.4265                23.8541

                     55                     56                     57
                      A                      A                      A
 Frequencies --   1535.4392              1549.6398              1652.5145
 Red. masses --      1.0799                 3.6510                 5.4081
 Frc consts  --      1.5000                 5.1656                 8.7013
 IR Inten    --      7.8674                21.1825                 0.3471

                     58                     59                     60
                      A                      A                      A
 Frequencies --   1698.4148              1750.9816              3049.7752
 Red. masses --      5.9110                 6.9223                 1.0544
 Frc consts  --     10.0461                12.5045                 5.7781
 IR Inten    --     61.3108               196.2907                 6.2046

                     61                     62                     63
                      A                      A                      A
 Frequencies --   3052.2923              3070.3042              3084.8466
 Red. masses --      1.0463                 1.0670                 1.0999
 Frc consts  --      5.7432                 5.9263                 6.1670
 IR Inten    --     47.5965                22.5723                19.0850

                     64                     65                     66
                      A                      A                      A
 Frequencies --   3111.4451              3139.9729              3151.4383
 Red. masses --      1.1011                 1.0973                 1.1030
 Frc consts  --      6.2808                 6.3741                 6.4542
 IR Inten    --     27.1718                15.4993                18.4289

                     67                     68                     69
                      A                      A                      A
 Frequencies --   3175.0059              3208.3142              3262.1065
 Red. masses --      1.0575                 1.0928                 1.0924
 Frc consts  --      6.2808                 6.6277                 6.8493
 IR Inten    --      7.5724                 8.9642                 2.2661

                     70                     71                     72
                      A                      A                      A
 Frequencies --   3266.4106              3301.3733              3309.6451
 Red. masses --      1.1173                 1.1017                 1.1001
 Frc consts  --      7.0237                 7.0745                 7.1001
 IR Inten    --      4.5615                 1.8950                 0.2016

 - Thermochemistry -
 -------------------
 Temperature   298.150 Kelvin.  Pressure   1.00000 Atm.
 Atom     1 has atomic number  6 and mass  12.00000

 Molecular mass:   179.09463 amu.
 Principal axes and moments of inertia in atomic units:
                           1         2         3
     Eigenvalues --  1583.392073412.848764328.20195
           X            0.99989   0.01436   0.00388
           Y           -0.01438   0.99989   0.00403
           Z           -0.00382  -0.00409   0.99998
 This molecule is an asymmetric top.
 Rotational symmetry number  1.
 Warning -- assumption of classical behavior for rotation
           may cause significant error
 Rotational temperatures (Kelvin)      0.05470     0.02538     0.02001
 Rotational constants (GHZ):           1.13979     0.52881     0.41697
 Zero-point vibrational energy     569373.4 (Joules/Mol)
                                  136.08352 (Kcal/Mol)
 Warning -- explicit consideration of  17 degrees of freedom as
           vibrations may cause significant error
 Vibrational temperatures:     50.71    63.54    88.31   105.60   121.45
          (Kelvin)            178.83   287.17   315.08   330.57   409.99
                              458.03   522.43   590.88   630.00   720.36
                              809.47   892.06   895.75   923.02  1025.42
                             1050.28  1125.13  1132.84  1153.81  1170.09
                             1211.20  1291.11  1305.17  1423.74  1443.12
                             1448.26  1478.31  1497.85  1536.04  1567.49
                             1591.96  1606.90  1655.27  1737.29  1784.45
                             1806.57  1831.54  1847.02  1923.83  1960.44
                             1991.57  2026.55  2065.21  2069.36  2080.52
                             2128.41  2170.22  2188.31  2208.92  2209.15
                             2229.59  2377.60  2443.64  2519.27  4387.95
                             4391.57  4417.48  4438.41  4476.68  4517.72
                             4534.22  4568.13  4616.05  4693.44  4699.64
                             4749.94  4761.84

 Zero-point correction=                           0.216863 (Hartree/Particle)
 Thermal correction to Energy=                    0.229821
 Thermal correction to Enthalpy=                  0.230765
 Thermal correction to Gibbs Free Energy=         0.175703
 Sum of electronic and zero-point Energies=           -593.877196
 Sum of electronic and thermal Energies=              -593.864238
 Sum of electronic and thermal Enthalpies=            -593.863294
 Sum of electronic and thermal Free Energies=         -593.918356

                     E (Thermal)             CV                S
                      KCal/Mol        Cal/Mol-Kelvin    Cal/Mol-Kelvin
 Total                  144.215             47.323            115.889
 Electronic               0.000              0.000              0.000
 Translational            0.889              2.981             41.455
 Rotational               0.889              2.981             31.526
 Vibrational            142.438             41.362             42.908
 Vibration     1          0.594              1.982              5.510
 Vibration     2          0.595              1.980              5.063
 Vibration     3          0.597              1.973              4.412
 Vibration     4          0.599              1.967              4.060
 Vibration     5          0.601              1.960              3.786
 Vibration     6          0.610              1.929              3.033
 Vibration     7          0.638              1.840              2.137
 Vibration     8          0.647              1.812              1.967
 Vibration     9          0.652              1.796              1.881
 Vibration    10          0.683              1.702              1.504
 Vibration    11          0.705              1.639              1.319
 Vibration    12          0.737              1.548              1.109
 Vibration    13          0.775              1.447              0.924
 Vibration    14          0.798              1.388              0.833
 Vibration    15          0.856              1.249              0.656
 Vibration    16          0.918              1.112              0.519
 Vibration    17          0.980              0.990              0.416

 Optimization completed.
    -- Stationary point found.
 Normal termination of Gaussian 16 at Wed Dec  9 23:54:19 2020.

 ----------------------------------------------------------------------
 # B3LYP/6-311++G(d,p) empiricaldispersion=gd3bj scf=xqc pop=npa geom=c
 heck
 ----------------------------------------------------------------------

 ---------------------------------------
 CID_125422232_JID_3617_Energie_neutraal
 ---------------------------------------
 Structure from the checkpoint file:  "JID_3617.chk"
 Charge =  0 Multiplicity = 1

 SCF Done:  E(RB3LYP) =  -594.262697558     A.U. after   15 cycles
 Normal termination of Gaussian 16 at Wed Dec  9 23:56:54 2020.

 ----------------------------------------------------------------------
 # B3LYP/6-311++G(d,p) empiricaldispersion=gd3bj scf=xqc pop=npa geom=c
 heck
 ----------------------------------------------------------------------

 -------------------------------------
 CID_125422232_JID_3617_Energie_kation
 -------------------------------------
 Structure from the checkpoint file:  "JID_3617.chk"
 Charge =  1 Multiplicity = 2

 SCF Done:  E(UB3LYP) =  -593.951861400     A.U. after   33 cycles
 SCF Done:  E(UB3LYP) =  -593.951861401     a.u. after    2 cycles
 Normal termination of Gaussian 16 at Thu Dec 10 00:11:15 2020.
 Gaussian 16:  ES64L-G16RevA.03 25-Dec-2016

 ----------------------------------------------------------------------
 # B3LYP/6-311++G(d,p) empiricaldispersion=gd3bj scf=xqc pop=npa geom=c
 heck
 ----------------------------------------------------------------------

 ------------------------------------
 CID_125422232_JID_3617_Energie_anion
 ------------------------------------
 Structure from the checkpoint file:  "JID_3617.chk"
 Charge = -1 Multiplicity = 2

                         Standard orientation:
 ---------------------------------------------------------------------
 Center     Atomic      Atomic             Coordinates (Angstroms)
 Number     Number       Type             X           Y           Z
 ---------------------------------------------------------------------
      1          6           0       -2.256325   -2.611242    0.257678
      2          6           0       -1.268943   -1.788468   -0.570315
      3          7           0       -0.905873   -0.525310    0.074959
      4          6           0        0.209974   -0.548957    1.012958
      5          6           0        1.530431   -0.221872    0.373674
      6          6           0        1.734935    0.227226   -0.897231
      7          8           0        3.065999    0.425719   -1.128359
      8          6           0        3.720502    0.097435    0.021919
      9          6           0        2.836839   -0.305508    0.974103
     10          6           0       -1.701163    0.572568   -0.155257
     11          8           0       -2.730380    0.485600   -0.824740
     12          6           0       -1.239972    1.879315    0.409623
     13          6           0       -2.055132    2.935505    0.388872
     14          1           0       -1.849753   -2.846505    1.248452
     15          1           0       -2.485558   -3.556824   -0.246501
     16          1           0       -3.186207   -2.050677    0.385940
     17          1           0       -0.341070   -2.343755   -0.746770
     18          1           0       -1.710039   -1.545024   -1.538597
     19          1           0        0.004493    0.129695    1.847493
     20          1           0        0.248745   -1.550927    1.457652
     21          1           0        1.070752    0.441982   -1.718947
     22          1           0        4.794178    0.203208   -0.003162
     23          1           0        3.073061   -0.624890    1.979964
     24          1           0       -0.228359    1.968319    0.792444
     25          1           0       -1.744517    3.904916    0.766568
     26          1           0       -3.056447    2.841090   -0.020608
 ---------------------------------------------------------------------

 SCF Done:  E(UB3LYP) =  -594.254095047     A.U. after   33 cycles
 SCF Done:  E(UB3LYP) =  -594.254095047     a.u. after    1 cycles

 The electronic state is 2-A.
 Alpha  occ. eigenvalues --  -19.09321 -18.94924 -14.21877 -10.13220 -10.12501
 Alpha  occ. eigenvalues --  -10.11992 -10.11446 -10.09400 -10.08126 -10.07518
 Alpha  occ. eigenvalues --  -10.05792 -10.04035 -10.03512  -1.01615  -0.90578
 Alpha  occ. eigenvalues --   -0.81980  -0.71528  -0.66461  -0.65275  -0.63737
 Alpha  occ. eigenvalues --   -0.60086  -0.54193  -0.49754  -0.47943  -0.46953
 Alpha  occ. eigenvalues --   -0.44196  -0.40659  -0.38588  -0.37537  -0.35708
 Alpha  occ. eigenvalues --   -0.34774  -0.33751  -0.33594  -0.31062  -0.30642
 Alpha  occ. eigenvalues --   -0.29907  -0.29579  -0.28762  -0.27582  -0.26660
 Alpha  occ. eigenvalues --   -0.26156  -0.24143  -0.23660  -0.17949  -0.15215
 Alpha  occ. eigenvalues --   -0.13499  -0.13281  -0.12578   0.04624
 Alpha virt. eigenvalues --    0.05969   0.07014   0.08137   0.09050   0.09201
 Alpha virt. eigenvalues --    0.09767   0.10188   0.10892   0.11492   0.12006
 Alpha virt. eigenvalues --    0.12874   0.13339   0.13602   0.13939   0.15282

  Beta  occ. eigenvalues --  -19.09323 -18.94810 -14.21831 -10.13084 -10.12477
  Beta  occ. eigenvalues --  -10.11986 -10.11438 -10.09400 -10.08126 -10.07499
  Beta  occ. eigenvalues --  -10.05763 -10.03959 -10.03228  -1.01610  -0.90356
  Beta  occ. eigenvalues --   -0.81857  -0.71508  -0.66342  -0.65114  -0.63476
  Beta  occ. eigenvalues --   -0.60017  -0.53974  -0.49713  -0.47784  -0.46666
  Beta  occ. eigenvalues --   -0.44077  -0.40581  -0.38397  -0.37448  -0.35680
  Beta  occ. eigenvalues --   -0.34738  -0.33683  -0.33452  -0.31014  -0.30596
  Beta  occ. eigenvalues --   -0.29796  -0.29392  -0.28633  -0.27560  -0.26590
  Beta  occ. eigenvalues --   -0.25655  -0.23977  -0.23497  -0.17927  -0.14116
  Beta  occ. eigenvalues --   -0.13357  -0.12919  -0.12258
  Beta virt. eigenvalues --    0.07000   0.07634   0.08484   0.08948   0.09093
  Beta virt. eigenvalues --    0.09441   0.09892   0.10637   0.10879   0.11406
  Beta virt. eigenvalues --    0.11976   0.12902   0.13275   0.13661   0.13878

 Mulliken charges and spin densities:
               1          2
     1  C    0.253958  -0.758836
     2  C   -0.278179   0.233410
     3  N    0.302775  -0.010928
     4  C   -0.415714  -1.144942
     5  C    2.026742  -1.614502
     6  C   -0.984240   0.861894
     7  O   -0.039782   0.026119
     8  C    1.350500  -1.635188
     9  C   -1.212436   1.568077
    10  C   -0.441424   0.146736
    11  O   -0.389570   0.044220
    12  C    0.448905  -0.038956
    13  C   -0.564981   0.226400
    14  H   -0.065033   0.177787
    15  H   -0.119926   0.246316
    16  H    0.039142   0.142583
    17  H   -0.036218   0.172627
    18  H    0.167027   0.009276
    19  H    0.195188   0.003799
    20  H    0.038318   0.134920
    21  H    0.158334   0.050070
    22  H   -0.864512   1.061077
    23  H   -0.991999   1.178113
    24  H    0.180554  -0.066667
    25  H    0.091819   0.002781
    26  H    0.150755  -0.016188
 Sum of Mulliken charges =  -1.00000   1.00000

 Dipole moment (field-independent basis, Debye):
    X=             -1.4599    Y=             -0.0392    Z=             -0.9437  Tot=              1.7389
 Quadrupole moment (field-independent basis, Debye-Ang):
   XX=           -157.9408   YY=           -113.3166   ZZ=           -100.6939
   XY=              5.3951   XZ=            -10.9983   YZ=              3.2749

 Summary of Natural Population Analysis:

                                       Natural Population
                Natural  -----------------------------------------------
    Atom  No    Charge         Core      Valence    Rydberg      Total
 -----------------------------------------------------------------------
      C    1   -0.29246      0.99966     2.28770    0.00510     3.29246
      C    2   -0.08737      0.99962     2.07599    0.01176     3.08737
      N    3   -0.25488      0.99965     2.74436    0.01087     3.75488
      C    4   -0.08993      0.99957     2.07940    0.01097     3.08993
      C    5   -0.06872      0.99952     2.05858    0.01063     3.06872
      C    6    0.05948      0.99943     1.92689    0.01419     2.94052
      O    7   -0.23290      0.99987     3.22542    0.00761     4.23290
      C    8    0.06594      0.99952     1.91955    0.01499     2.93406
      C    9   -0.14985      0.99952     2.14013    0.01019     3.14985
      C   10    0.34706      0.99962     1.63099    0.02233     2.65294
      O   11   -0.32887      0.99988     3.32373    0.00526     4.32887
      C   12   -0.15186      0.99953     2.14357    0.00876     3.15186
      C   13   -0.09955      0.99960     2.09266    0.00729     3.09955
      H   14    0.09334      0.00000     0.40567    0.00098     0.40666
      H   15    0.09602      0.00000     0.40291    0.00107     0.40398
      H   16    0.10694      0.00000     0.39209    0.00097     0.39306
      H   17    0.09166      0.00000     0.40720    0.00113     0.40834
      H   18    0.10749      0.00000     0.39132    0.00119     0.39251
      H   19    0.10672      0.00000     0.39164    0.00164     0.39328
      H   20    0.10227      0.00000     0.39661    0.00112     0.39773
      H   21    0.10196      0.00000     0.39689    0.00115     0.39804
      H   22    0.09687      0.00000     0.40093    0.00220     0.40313
      H   23    0.11144      0.00000     0.38663    0.00192     0.38856
      H   24    0.09258      0.00000     0.40587    0.00156     0.40742
      H   25    0.08162      0.00000     0.41745    0.00093     0.41838
      H   26    0.09499      0.00000     0.40378    0.00122     0.40501
 =======================================================================
   * Total *   -0.00000     12.99499    34.84796    0.15705    48.00000

 Normal termination of Gaussian 16 at Thu Dec 10 00:19:17 2020.
