 Gaussian 16, Revision A.03,

 -----------------------------------------------------------
 # opt freq B3LYP/6-31G(d) empiricaldispersion=gd3bj scf=xqc
 -----------------------------------------------------------

 -------------------------------
 CID_122548052_JID_1670_neutraal
 -------------------------------
 Symbolic Z-matrix:
 Charge =  0 Multiplicity = 1

 SCF Done:  E(RB3LYP) =  -484.393699259     A.U. after   13 cycles
 SCF Done:  E(RB3LYP) =  -484.397473179     A.U. after   11 cycles
 SCF Done:  E(RB3LYP) =  -484.398049811     A.U. after   10 cycles
 SCF Done:  E(RB3LYP) =  -484.398249531     A.U. after   10 cycles
 SCF Done:  E(RB3LYP) =  -484.398315974     A.U. after   10 cycles
 SCF Done:  E(RB3LYP) =  -484.398341479     A.U. after    9 cycles
 SCF Done:  E(RB3LYP) =  -484.398348071     A.U. after    8 cycles
 SCF Done:  E(RB3LYP) =  -484.398349473     A.U. after    7 cycles
 SCF Done:  E(RB3LYP) =  -484.398349919     A.U. after    7 cycles
 SCF Done:  E(RB3LYP) =  -484.398350032     A.U. after    6 cycles
 SCF Done:  E(RB3LYP) =  -484.398350065     A.U. after    6 cycles
 Optimization completed.
    -- Stationary point found.
 Normal termination of Gaussian 16 at Tue Dec  8 20:46:03 2020.

 --------------------------------------------------------------------
 #N Geom=AllCheck Guess=TCheck SCRF=Check GenChk RB3LYP/6-31G(d) Freq
 --------------------------------------------------------------------

 Structure from the checkpoint file:  "JID_1670.chk"
 -------------------------------
 CID_122548052_JID_1670_neutraal
 -------------------------------
 Charge =  0 Multiplicity = 1

 SCF Done:  E(RB3LYP) =  -484.398350065     A.U. after    1 cycles

  Exact polarizability: 106.463  -1.284 105.550   1.276  -1.547  93.740
 Approx polarizability: 138.151   0.972 142.528   4.151  -1.056 143.711

                      1                      2                      3
                      A                      A                      A
 Frequencies --     82.5140               113.5034               154.0194
 Red. masses --      3.6095                 2.7501                 2.3126
 Frc consts  --      0.0145                 0.0209                 0.0323
 IR Inten    --      1.6786                 0.9991                 0.6387

                      4                      5                      6
                      A                      A                      A
 Frequencies --    193.4425               197.1489               211.9847
 Red. masses --      1.8087                 1.5157                 2.0598
 Frc consts  --      0.0399                 0.0347                 0.0545
 IR Inten    --      3.6881                 1.2367                 1.0054

                      7                      8                      9
                      A                      A                      A
 Frequencies --    224.8264               266.5684               276.6700
 Red. masses --      1.2381                 2.4509                 2.7901
 Frc consts  --      0.0369                 0.1026                 0.1258
 IR Inten    --      1.2098                 0.9968                 3.5382

                     10                     11                     12
                      A                      A                      A
 Frequencies --    291.7128               297.3404               345.2608
 Red. masses --      1.9124                 1.4091                 2.2380
 Frc consts  --      0.0959                 0.0734                 0.1572
 IR Inten    --     15.1229                82.1783                 0.5905

                     13                     14                     15
                      A                      A                      A
 Frequencies --    382.1507               424.2286               450.1224
 Red. masses --      2.4204                 2.2578                 3.0665
 Frc consts  --      0.2083                 0.2394                 0.3661
 IR Inten    --      7.6548                 8.4716                 7.5970

                     16                     17                     18
                      A                      A                      A
 Frequencies --    484.6141               526.8233               566.4145
 Red. masses --      2.2043                 2.0195                 2.5802
 Frc consts  --      0.3050                 0.3302                 0.4877
 IR Inten    --      3.0067                 3.9110                 3.0095

                     19                     20                     21
                      A                      A                      A
 Frequencies --    618.8184               695.7315               757.2535
 Red. masses --      2.8562                 2.3009                 2.2627
 Frc consts  --      0.6444                 0.6562                 0.7645
 IR Inten    --      3.4976                 0.6633                 2.4422

                     22                     23                     24
                      A                      A                      A
 Frequencies --    827.7341               851.8093               897.1270
 Red. masses --      2.1203                 1.7628                 2.1024
 Frc consts  --      0.8559                 0.7536                 0.9970
 IR Inten    --      1.8934                 3.5669                 4.6687

                     25                     26                     27
                      A                      A                      A
 Frequencies --    940.7846               968.6633               975.0331
 Red. masses --      1.7054                 1.8808                 2.2936
 Frc consts  --      0.8893                 1.0398                 1.2847
 IR Inten    --      4.1833                 9.3652                 8.7935

                     28                     29                     30
                      A                      A                      A
 Frequencies --   1016.5843              1026.5069              1044.2678
 Red. masses --      2.1410                 1.8511                 2.5648
 Frc consts  --      1.3036                 1.1492                 1.6479
 IR Inten    --     35.7306                10.0264                11.3507

                     31                     32                     33
                      A                      A                      A
 Frequencies --   1071.7226              1099.9253              1104.1249
 Red. masses --      2.0985                 2.2453                 2.1955
 Frc consts  --      1.4201                 1.6005                 1.5770
 IR Inten    --     12.6473                11.3619                50.9233

                     34                     35                     36
                      A                      A                      A
 Frequencies --   1106.6864              1141.0741              1160.1738
 Red. masses --      1.9777                 2.1087                 1.3708
 Frc consts  --      1.4271                 1.6177                 1.0871
 IR Inten    --     45.6883                 2.1132                 9.8766

                     37                     38                     39
                      A                      A                      A
 Frequencies --   1170.0167              1183.4043              1214.9605
 Red. masses --      1.3685                 1.8717                 1.2868
 Frc consts  --      1.1038                 1.5444                 1.1191
 IR Inten    --      1.7009                 6.5323                18.2637

                     40                     41                     42
                      A                      A                      A
 Frequencies --   1260.0048              1267.7597              1274.4192
 Red. masses --      1.6416                 1.2360                 1.4854
 Frc consts  --      1.5356                 1.1704                 1.4214
 IR Inten    --     26.6764                 4.6616                 3.1578

                     43                     44                     45
                      A                      A                      A
 Frequencies --   1312.7205              1341.0597              1368.8692
 Red. masses --      1.3873                 1.2118                 1.4645
 Frc consts  --      1.4085                 1.2840                 1.6168
 IR Inten    --      5.2175                 0.3776                 0.3304

                     46                     47                     48
                      A                      A                      A
 Frequencies --   1372.4004              1388.2274              1396.1489
 Red. masses --      1.4277                 1.5943                 1.2849
 Frc consts  --      1.5843                 1.8103                 1.4757
 IR Inten    --      2.6658                17.6832                 2.8441

                     49                     50                     51
                      A                      A                      A
 Frequencies --   1403.9094              1417.4192              1424.9452
 Red. masses --      1.4127                 1.3784                 1.4103
 Frc consts  --      1.6405                 1.6316                 1.6872
 IR Inten    --     13.3026                15.1323                18.5751

                     52                     53                     54
                      A                      A                      A
 Frequencies --   1431.1113              1432.9155              1435.2270
 Red. masses --      1.4533                 1.2198                 1.2989
 Frc consts  --      1.7537                 1.4756                 1.5764
 IR Inten    --     39.4281                24.3132                 4.6226

                     55                     56                     57
                      A                      A                      A
 Frequencies --   1452.1517              1481.4353              1502.5971
 Red. masses --      1.2635                 1.1169                 1.0872
 Frc consts  --      1.5698                 1.4442                 1.4462
 IR Inten    --     15.7799                 3.9200                 4.5190

                     58                     59                     60
                      A                      A                      A
 Frequencies --   1509.3928              1517.5288              1519.3381
 Red. masses --      1.0801                 1.0874                 1.0835
 Frc consts  --      1.4498                 1.4754                 1.4737
 IR Inten    --      4.7241                 1.6706                 7.7436

                     61                     62                     63
                      A                      A                      A
 Frequencies --   1526.4597              1527.2957              1535.4624
 Red. masses --      1.0474                 1.1113                 1.0607
 Frc consts  --      1.4379                 1.5273                 1.4734
 IR Inten    --      7.6396                 2.1715                 9.3255

                     64                     65                     66
                      A                      A                      A
 Frequencies --   1540.3349              1552.4560              2953.5253
 Red. masses --      1.0840                 1.0566                 1.0608
 Frc consts  --      1.5154                 1.5004                 5.4521
 IR Inten    --      4.9068                 3.7319                94.7221

                     67                     68                     69
                      A                      A                      A
 Frequencies --   2986.9687              3001.0743              3018.8364
 Red. masses --      1.0724                 1.0681                 1.0672
 Frc consts  --      5.6371                 5.6679                 5.7303
 IR Inten    --     56.1513                44.2982                51.3229

                     70                     71                     72
                      A                      A                      A
 Frequencies --   3029.1636              3036.1006              3045.3403
 Red. masses --      1.0707                 1.0651                 1.0693
 Frc consts  --      5.7883                 5.7844                 5.8430
 IR Inten    --     19.3747                13.8129                 9.8780

                     73                     74                     75
                      A                      A                      A
 Frequencies --   3047.1609              3049.6817              3054.1705
 Red. masses --      1.0715                 1.0551                 1.0854
 Frc consts  --      5.8617                 5.7816                 5.9654
 IR Inten    --     53.3909                37.2784                29.2266

                     76                     77                     78
                      A                      A                      A
 Frequencies --   3063.5703              3070.4965              3081.4354
 Red. masses --      1.0949                 1.0952                 1.0892
 Frc consts  --      6.0546                 6.0833                 6.0936
 IR Inten    --     58.2998                14.5669                30.4663

                     79                     80                     81
                      A                      A                      A
 Frequencies --   3084.6454              3095.9834              3098.1522
 Red. masses --      1.0939                 1.0957                 1.0979
 Frc consts  --      6.1328                 6.1877                 6.2089
 IR Inten    --     70.3403                62.3829                35.5132

                     82                     83                     84
                      A                      A                      A
 Frequencies --   3110.5208              3131.3935              3731.4464
 Red. masses --      1.1021                 1.1011                 1.0656
 Frc consts  --      6.2824                 6.3615                 8.7415
 IR Inten    --     45.1026                30.4466                 4.6569

 - Thermochemistry -
 -------------------
 Temperature   298.150 Kelvin.  Pressure   1.00000 Atm.
 Atom     1 has atomic number  6 and mass  12.00000

 Molecular mass:   157.14666 amu.
 Principal axes and moments of inertia in atomic units:
                           1         2         3
     Eigenvalues --  1225.909831996.989942548.17542
           X            0.99963  -0.02706  -0.00124
           Y            0.02706   0.99961   0.00690
           Z            0.00105  -0.00693   0.99998
 This molecule is an asymmetric top.
 Rotational symmetry number  1.
 Warning -- assumption of classical behavior for rotation
           may cause significant error
 Rotational temperatures (Kelvin)      0.07065     0.04337     0.03399
 Rotational constants (GHZ):           1.47216     0.90373     0.70825
 Zero-point vibrational energy     731175.5 (Joules/Mol)
                                  174.75515 (Kcal/Mol)
 Warning -- explicit consideration of  19 degrees of freedom as
           vibrations may cause significant error
 Vibrational temperatures:    118.72   163.31   221.60   278.32   283.65
          (Kelvin)            305.00   323.47   383.53   398.07   419.71
                              427.81   496.75   549.83   610.37   647.63
                              697.25   757.98   814.94   890.34  1001.00
                             1089.52  1190.92  1225.56  1290.77  1353.58
                             1393.69  1402.86  1462.64  1476.91  1502.47
                             1541.97  1582.55  1588.59  1592.27  1641.75
                             1669.23  1683.39  1702.65  1748.06  1812.87
                             1824.02  1833.60  1888.71  1929.49  1969.50
                             1974.58  1997.35  2008.75  2019.91  2039.35
                             2050.18  2059.05  2061.65  2064.97  2089.32
                             2131.45  2161.90  2171.68  2183.39  2185.99
                             2196.23  2197.44  2209.19  2216.20  2233.64
                             4249.46  4297.58  4317.88  4343.43  4358.29
                             4368.27  4381.57  4384.18  4387.81  4394.27
                             4407.79  4417.76  4433.50  4438.12  4454.43
                             4457.55  4475.35  4505.38  5368.72

 Zero-point correction=                           0.278490 (Hartree/Particle)
 Thermal correction to Energy=                    0.290420
 Thermal correction to Enthalpy=                  0.291365
 Thermal correction to Gibbs Free Energy=         0.241962
 Sum of electronic and zero-point Energies=           -484.119860
 Sum of electronic and thermal Energies=              -484.107930
 Sum of electronic and thermal Enthalpies=            -484.106985
 Sum of electronic and thermal Free Energies=         -484.156388

                     E (Thermal)             CV                S
                      KCal/Mol        Cal/Mol-Kelvin    Cal/Mol-Kelvin
 Total                  182.242             46.725            103.977
 Electronic               0.000              0.000              0.000
 Translational            0.889              2.981             41.065
 Rotational               0.889              2.981             30.213
 Vibrational            180.464             40.764             32.699
 Vibration     1          0.600              1.961              3.830
 Vibration     2          0.607              1.938              3.208
 Vibration     3          0.620              1.898              2.622
 Vibration     4          0.635              1.849              2.195
 Vibration     5          0.637              1.844              2.160
 Vibration     6          0.643              1.823              2.027
 Vibration     7          0.649              1.803              1.920
 Vibration     8          0.672              1.734              1.618
 Vibration     9          0.678              1.717              1.554
 Vibration    10          0.687              1.689              1.464
 Vibration    11          0.691              1.679              1.432
 Vibration    12          0.724              1.585              1.188
 Vibration    13          0.752              1.508              1.031
 Vibration    14          0.786              1.418              0.878
 Vibration    15          0.809              1.361              0.795
 Vibration    16          0.841              1.284              0.698
 Vibration    17          0.882              1.191              0.594
 Vibration    18          0.922              1.104              0.511
 Vibration    19          0.979              0.992              0.418

 Optimization completed.
    -- Stationary point found.
 Normal termination of Gaussian 16 at Tue Dec  8 20:54:28 2020.

 ----------------------------------------------------------------------
 # B3LYP/6-311++G(d,p) empiricaldispersion=gd3bj scf=xqc pop=npa geom=c
 heck
 ----------------------------------------------------------------------

 ---------------------------------------
 CID_122548052_JID_1670_Energie_neutraal
 ---------------------------------------
 Structure from the checkpoint file:  "JID_1670.chk"
 Charge =  0 Multiplicity = 1

 SCF Done:  E(RB3LYP) =  -484.543500532     A.U. after   13 cycles
 Normal termination of Gaussian 16 at Tue Dec  8 20:58:33 2020.

 ----------------------------------------------------------------------
 # B3LYP/6-311++G(d,p) empiricaldispersion=gd3bj scf=xqc pop=npa geom=c
 heck
 ----------------------------------------------------------------------

 -------------------------------------
 CID_122548052_JID_1670_Energie_kation
 -------------------------------------
 Structure from the checkpoint file:  "JID_1670.chk"
 Charge =  1 Multiplicity = 2

 SCF Done:  E(UB3LYP) =  -484.267412098     A.U. after   18 cycles
 Normal termination of Gaussian 16 at Tue Dec  8 21:05:18 2020.
 Gaussian 16:  ES64L-G16RevA.03 25-Dec-2016

 ----------------------------------------------------------------------
 # B3LYP/6-311++G(d,p) empiricaldispersion=gd3bj scf=xqc pop=npa geom=c
 heck
 ----------------------------------------------------------------------

 ------------------------------------
 CID_122548052_JID_1670_Energie_anion
 ------------------------------------
 Structure from the checkpoint file:  "JID_1670.chk"
 Charge = -1 Multiplicity = 2

                         Standard orientation:
 ---------------------------------------------------------------------
 Center     Atomic      Atomic             Coordinates (Angstroms)
 Number     Number       Type             X           Y           Z
 ---------------------------------------------------------------------
      1          6           0        2.160670   -1.578592   -0.946000
      2          6           0        1.006164   -0.694097   -0.451804
      3          6           0        0.341546   -1.350604    0.770433
      4          6           0       -0.979973   -0.745834    1.304524
      5          7           0       -1.965251   -0.312563    0.331369
      6          6           0       -2.022268    1.092053   -0.022892
      7          6           0       -0.839843    1.749501   -0.768924
      8          6           0        0.462292    1.820245    0.054272
      9          6           0        1.518812    0.744833   -0.250327
     10          8           0        2.572673    0.807809    0.716734
     11          6           0       -2.372240   -1.284490   -0.655920
     12          1           0        1.817757   -2.599718   -1.146997
     13          1           0        2.958838   -1.620689   -0.198334
     14          1           0        2.594266   -1.179943   -1.870592
     15          1           0        0.258927   -0.648446   -1.251779
     16          1           0        0.146558   -2.395932    0.498507
     17          1           0        1.060921   -1.403634    1.601823
     18          1           0       -0.776185    0.108203    1.958140
     19          1           0       -1.439979   -1.514154    1.947076
     20          1           0       -2.173755    1.663027    0.906311
     21          1           0       -2.931143    1.232868   -0.621906
     22          1           0       -1.160502    2.769610   -1.017920
     23          1           0       -0.666673    1.248150   -1.729731
     24          1           0        0.214261    1.784517    1.124308
     25          1           0        0.953405    2.788293   -0.094118
     26          1           0        2.010551    1.026867   -1.189897
     27          1           0        2.174102    0.628285    1.583085
     28          1           0       -1.636991   -1.488741   -1.455764
     29          1           0       -2.581330   -2.240211   -0.157543
     30          1           0       -3.298626   -0.950970   -1.138287
 ---------------------------------------------------------------------

 SCF Done:  E(UB3LYP) =  -484.527118965     A.U. after   29 cycles

 The electronic state is 2-A.
 Alpha  occ. eigenvalues --  -19.01664 -14.18954 -10.11361 -10.08611 -10.08402
 Alpha  occ. eigenvalues --  -10.07642 -10.06629 -10.06131 -10.06090 -10.05735
 Alpha  occ. eigenvalues --  -10.05259  -0.91873  -0.81293  -0.70286  -0.68028
 Alpha  occ. eigenvalues --   -0.62389  -0.60829  -0.56777  -0.54483  -0.49498
 Alpha  occ. eigenvalues --   -0.47901  -0.44558  -0.38983  -0.38224  -0.37063
 Alpha  occ. eigenvalues --   -0.35927  -0.34873  -0.33588  -0.31918  -0.30398
 Alpha  occ. eigenvalues --   -0.29618  -0.29004  -0.28537  -0.27511  -0.25853
 Alpha  occ. eigenvalues --   -0.25178  -0.25108  -0.23865  -0.23355  -0.22334
 Alpha  occ. eigenvalues --   -0.21581  -0.20261  -0.16805  -0.09182   0.04748
 Alpha virt. eigenvalues --    0.06950   0.07194   0.07760   0.09407   0.09642
 Alpha virt. eigenvalues --    0.10015   0.10138   0.10572   0.12233   0.12590
 Alpha virt. eigenvalues --    0.12716   0.13142   0.13313   0.13552   0.14717

  Beta  occ. eigenvalues --  -19.01640 -14.18952 -10.11353 -10.08592 -10.08376
  Beta  occ. eigenvalues --  -10.07595 -10.06623 -10.06112 -10.06072 -10.05709
  Beta  occ. eigenvalues --  -10.05242  -0.91823  -0.81275  -0.70252  -0.67989
  Beta  occ. eigenvalues --   -0.62343  -0.60782  -0.56714  -0.54430  -0.49431
  Beta  occ. eigenvalues --   -0.47848  -0.44485  -0.38946  -0.38191  -0.37016
  Beta  occ. eigenvalues --   -0.35889  -0.34824  -0.33551  -0.31873  -0.30362
  Beta  occ. eigenvalues --   -0.29577  -0.28969  -0.28499  -0.27468  -0.25813
  Beta  occ. eigenvalues --   -0.25138  -0.25065  -0.23826  -0.23315  -0.22292
  Beta  occ. eigenvalues --   -0.21548  -0.20234  -0.16779  -0.09133
  Beta virt. eigenvalues --    0.07041   0.07836   0.07954   0.08377   0.09978
  Beta virt. eigenvalues --    0.10197   0.10511   0.10634   0.11011   0.12624
  Beta virt. eigenvalues --    0.12944   0.13154   0.13480   0.13622   0.13942

 Mulliken charges and spin densities:
               1          2
     1  C   -0.006062  -0.479861
     2  C   -1.067707   1.595825
     3  C   -0.509039   0.204126
     4  C    0.846781  -1.462301
     5  N   -0.259614   0.329491
     6  C    1.100153  -1.673486
     7  C   -1.237815   1.006034
     8  C    0.327560  -0.270172
     9  C    1.380522  -2.120665
    10  O   -0.200947   0.032316
    11  C    1.251732  -1.582962
    12  H   -0.192302   0.329565
    13  H    0.120643   0.042945
    14  H   -0.107411   0.232386
    15  H    0.470699  -0.450470
    16  H    0.145969  -0.004744
    17  H   -0.374290   0.520210
    18  H    0.051744   0.067022
    19  H   -0.481551   0.675163
    20  H   -0.326801   0.489309
    21  H    0.118538   0.005082
    22  H   -0.601761   0.774816
    23  H   -0.058645   0.213067
    24  H   -0.128758   0.210155
    25  H   -0.032397   0.226284
    26  H    0.024423   0.163637
    27  H    0.012370   0.238865
    28  H   -0.586616   0.728888
    29  H   -0.290760   0.437913
    30  H   -0.388657   0.521563
 Sum of Mulliken charges =  -1.00000   1.00000

 Dipole moment (field-independent basis, Debye):
    X=              2.5241    Y=              0.9126    Z=             -0.2965  Tot=              2.7004
 Quadrupole moment (field-independent basis, Debye-Ang):
   XX=           -126.1149   YY=           -120.3476   ZZ=           -107.9183
   XY=             -3.9912   XZ=             -3.8291   YZ=             -0.8039

 Summary of Natural Population Analysis:

                                       Natural Population
                Natural  -----------------------------------------------
    Atom  No    Charge         Core      Valence    Rydberg      Total
 -----------------------------------------------------------------------
      C    1   -0.27981      0.99965     2.27506    0.00510     3.27981
      C    2   -0.12942      0.99957     2.11920    0.01065     3.12942
      C    3   -0.20319      0.99960     2.19288    0.01071     3.20319
      C    4   -0.07800      0.99960     2.06618    0.01222     3.07800
      N    5   -0.28764      0.99973     2.77290    0.01501     3.78764
      C    6   -0.07268      0.99959     2.06130    0.01179     3.07268
      C    7   -0.20201      0.99962     2.19411    0.00829     3.20201
      C    8   -0.20286      0.99960     2.19367    0.00958     3.20286
      C    9    0.07261      0.99952     1.91405    0.01382     2.92739
      O   10   -0.37451      0.99990     3.36788    0.00674     4.37451
      C   11   -0.17263      0.99963     2.16410    0.00890     3.17263
      H   12    0.09799      0.00000     0.40100    0.00101     0.40201
      H   13    0.10207      0.00000     0.39675    0.00117     0.39793
      H   14    0.09567      0.00000     0.40340    0.00093     0.40433
      H   15    0.10103      0.00000     0.39626    0.00271     0.39897
      H   16    0.10008      0.00000     0.39840    0.00152     0.39992
      H   17    0.09669      0.00000     0.40170    0.00161     0.40331
      H   18    0.09284      0.00000     0.40543    0.00173     0.40716
      H   19    0.09173      0.00000     0.40697    0.00130     0.40827
      H   20    0.08825      0.00000     0.41027    0.00148     0.41175
      H   21    0.09504      0.00000     0.40368    0.00128     0.40496
      H   22    0.09915      0.00000     0.39941    0.00144     0.40085
      H   23    0.09511      0.00000     0.40330    0.00159     0.40489
      H   24    0.09320      0.00000     0.40503    0.00177     0.40680
      H   25    0.10198      0.00000     0.39684    0.00117     0.39802
      H   26    0.08364      0.00000     0.41494    0.00142     0.41636
      H   27    0.22652      0.00000     0.27024    0.00324     0.27348
      H   28    0.07914      0.00000     0.41877    0.00209     0.42086
      H   29    0.09501      0.00000     0.40362    0.00138     0.40499
      H   30    0.09497      0.00000     0.40368    0.00135     0.40503
 =======================================================================
   * Total *   -0.00000     10.99602    32.86101    0.14297    44.00000

 Normal termination of Gaussian 16 at Tue Dec  8 21:13:28 2020.
