 Gaussian 16, Revision A.03,

 -----------------------------------------------------------
 # opt freq B3LYP/6-31G(d) empiricaldispersion=gd3bj scf=xqc
 -----------------------------------------------------------

 ------------------------------
 CID_53787988_JID_4996_neutraal
 ------------------------------
 Symbolic Z-matrix:
 Charge =  0 Multiplicity = 1

 SCF Done:  E(RB3LYP) =  -687.746982494     A.U. after   15 cycles
 SCF Done:  E(RB3LYP) =  -687.758097359     A.U. after   12 cycles
 SCF Done:  E(RB3LYP) =  -687.760412303     A.U. after   13 cycles
 SCF Done:  E(RB3LYP) =  -687.761046641     A.U. after   12 cycles
 SCF Done:  E(RB3LYP) =  -687.761388368     A.U. after   12 cycles
 SCF Done:  E(RB3LYP) =  -687.761951699     A.U. after   13 cycles
 SCF Done:  E(RB3LYP) =  -687.762463531     A.U. after   13 cycles
 SCF Done:  E(RB3LYP) =  -687.762678120     A.U. after   12 cycles
 SCF Done:  E(RB3LYP) =  -687.762846419     A.U. after   12 cycles
 SCF Done:  E(RB3LYP) =  -687.762962011     A.U. after   12 cycles
 SCF Done:  E(RB3LYP) =  -687.764355632     A.U. after   11 cycles
 SCF Done:  E(RB3LYP) =  -687.764356788     A.U. after   10 cycles
 SCF Done:  E(RB3LYP) =  -687.764357883     A.U. after   10 cycles
 SCF Done:  E(RB3LYP) =  -687.764357887     A.U. after    8 cycles
 SCF Done:  E(RB3LYP) =  -687.764357923     A.U. after    8 cycles
 Optimization completed.
    -- Stationary point found.
 Normal termination of Gaussian 16 at Thu Dec 10 11:21:39 2020.

 --------------------------------------------------------------------
 #N Geom=AllCheck Guess=TCheck SCRF=Check GenChk RB3LYP/6-31G(d) Freq
 --------------------------------------------------------------------

 Structure from the checkpoint file:  "JID_4996.chk"
 ------------------------------
 CID_53787988_JID_4996_neutraal
 ------------------------------
 Charge =  0 Multiplicity = 1

 SCF Done:  E(RB3LYP) =  -687.764357923     A.U. after    1 cycles

  Exact polarizability: 143.842   2.766 115.792  -2.423   0.473  91.036
 Approx polarizability: 188.597  13.924 162.969  -5.683   2.898 138.458

                      1                      2                      3
                      A                      A                      A
 Frequencies --     18.3273                41.8585                44.0762
 Red. masses --      4.4934                 4.2459                 3.2012
 Frc consts  --      0.0009                 0.0044                 0.0037
 IR Inten    --      0.9020                 0.7848                 0.3678

                      4                      5                      6
                      A                      A                      A
 Frequencies --     73.6003               100.8352               104.0551
 Red. masses --      3.7335                 3.3269                 4.7891
 Frc consts  --      0.0119                 0.0199                 0.0306
 IR Inten    --      0.0646                 1.3644                 0.2435

                      7                      8                      9
                      A                      A                      A
 Frequencies --    163.1735               199.8329               233.2951
 Red. masses --      5.1658                 2.7833                 1.4201
 Frc consts  --      0.0810                 0.0655                 0.0455
 IR Inten    --      3.3858                 1.3417                 2.8962

                     10                     11                     12
                      A                      A                      A
 Frequencies --    257.9048               307.3382               320.1348
 Red. masses --      1.8343                 3.0418                 2.1787
 Frc consts  --      0.0719                 0.1693                 0.1316
 IR Inten    --      1.5137                 1.0955                10.3684

                     13                     14                     15
                      A                      A                      A
 Frequencies --    355.6024               383.8273               406.5376
 Red. masses --      2.6665                 3.6748                 5.5311
 Frc consts  --      0.1987                 0.3190                 0.5386
 IR Inten    --     10.5929                 5.1525                 0.9091

                     16                     17                     18
                      A                      A                      A
 Frequencies --    442.3012               467.0367               492.2102
 Red. masses --      2.1890                 2.7355                 2.9004
 Frc consts  --      0.2523                 0.3515                 0.4140
 IR Inten    --      1.9620                 6.0944                 0.4971

                     19                     20                     21
                      A                      A                      A
 Frequencies --    517.4615               605.1446               638.5865
 Red. masses --      5.0417                 2.6006                 3.9274
 Frc consts  --      0.7954                 0.5611                 0.9436
 IR Inten    --      3.9284                11.6220                 7.6053

                     22                     23                     24
                      A                      A                      A
 Frequencies --    676.7521               753.2718               799.0504
 Red. masses --      2.5243                 3.1915                 2.1712
 Frc consts  --      0.6812                 1.0670                 0.8168
 IR Inten    --     13.8625                 9.4704                 9.9748

                     25                     26                     27
                      A                      A                      A
 Frequencies --    817.0095               861.3118               875.4621
 Red. masses --      1.9514                 2.1645                 1.5637
 Frc consts  --      0.7675                 0.9461                 0.7061
 IR Inten    --      1.7438                12.8200                 1.4527

                     28                     29                     30
                      A                      A                      A
 Frequencies --    880.1621               902.3515               941.3893
 Red. masses --      2.9798                 1.8470                 2.4496
 Frc consts  --      1.3601                 0.8861                 1.2791
 IR Inten    --     14.4360                 1.2062                 8.1168

                     31                     32                     33
                      A                      A                      A
 Frequencies --    952.7966               981.8171               993.8633
 Red. masses --      2.2628                 2.1322                 3.5946
 Frc consts  --      1.2103                 1.2110                 2.0919
 IR Inten    --      0.5181                16.4805                72.2947

                     34                     35                     36
                      A                      A                      A
 Frequencies --   1042.0962              1044.0789              1089.2549
 Red. masses --      3.1898                 2.2442                 3.0270
 Frc consts  --      2.0410                 1.4414                 2.1160
 IR Inten    --     38.0560                 5.3227                22.3865

                     37                     38                     39
                      A                      A                      A
 Frequencies --   1100.8910              1115.0828              1132.5208
 Red. masses --      2.5392                 1.8339                 1.9913
 Frc consts  --      1.8131                 1.3435                 1.5048
 IR Inten    --     13.6005                 5.6589                39.5590

                     40                     41                     42
                      A                      A                      A
 Frequencies --   1147.9309              1155.0605              1168.3915
 Red. masses --      4.8635                 2.0153                 2.0078
 Frc consts  --      3.7760                 1.5841                 1.6149
 IR Inten    --    109.0929                40.1245                87.1930

                     43                     44                     45
                      A                      A                      A
 Frequencies --   1206.3075              1210.7964              1241.1991
 Red. masses --      3.2120                 1.9992                 1.0873
 Frc consts  --      2.7538                 1.7268                 0.9870
 IR Inten    --     23.3205                27.3866                 3.6547

                     46                     47                     48
                      A                      A                      A
 Frequencies --   1280.6097              1304.8519              1315.7058
 Red. masses --      1.5472                 1.2958                 1.6505
 Frc consts  --      1.4950                 1.2999                 1.6833
 IR Inten    --     70.3542                22.0636                92.5217

                     49                     50                     51
                      A                      A                      A
 Frequencies --   1327.1321              1342.9288              1347.7223
 Red. masses --      1.4255                 1.1573                 1.1867
 Frc consts  --      1.4792                 1.2297                 1.2700
 IR Inten    --     83.3953                26.2868                 7.0852

                     52                     53                     54
                      A                      A                      A
 Frequencies --   1377.4396              1389.1205              1408.8277
 Red. masses --      1.2804                 1.2473                 1.3182
 Frc consts  --      1.4313                 1.4181                 1.5416
 IR Inten    --      1.4561                22.9223                17.3747

                     55                     56                     57
                      A                      A                      A
 Frequencies --   1418.8148              1425.5608              1443.9687
 Red. masses --      1.2871                 1.3975                 1.3099
 Frc consts  --      1.5266                 1.6733                 1.6092
 IR Inten    --      5.7468                 3.4176                12.4162

                     58                     59                     60
                      A                      A                      A
 Frequencies --   1444.1568              1499.7002              1511.2123
 Red. masses --      1.3672                 1.1022                 1.0821
 Frc consts  --      1.6800                 1.4605                 1.4560
 IR Inten    --     11.1409                10.2980                 0.5555

                     61                     62                     63
                      A                      A                      A
 Frequencies --   1515.9680              1519.0860              1519.9453
 Red. masses --      1.0557                 1.0862                 1.0753
 Frc consts  --      1.4295                 1.4769                 1.4637
 IR Inten    --      9.3999                 4.7067                 4.8383

                     64                     65                     66
                      A                      A                      A
 Frequencies --   1525.8502              1535.8036              1540.4679
 Red. masses --      1.1066                 1.0612                 1.0928
 Frc consts  --      1.5180                 1.4747                 1.5279
 IR Inten    --      6.9780                10.0851                 3.7694

                     67                     68                     69
                      A                      A                      A
 Frequencies --   1716.4956              1821.0771              2984.6874
 Red. masses --      8.7509                10.7568                 1.0725
 Frc consts  --     15.1911                21.0180                 5.6293
 IR Inten    --     50.6548               244.3018                28.4452

                     70                     71                     72
                      A                      A                      A
 Frequencies --   2995.8883              3000.1046              3007.1130
 Red. masses --      1.0716                 1.0701                 1.0683
 Frc consts  --      5.6667                 5.6749                 5.6915
 IR Inten    --     34.0781                17.4334               133.5431

                     73                     74                     75
                      A                      A                      A
 Frequencies --   3062.5981              3072.6131              3099.3042
 Red. masses --      1.0361                 1.0659                 1.0593
 Frc consts  --      5.7258                 5.9288                 5.9950
 IR Inten    --     12.7860                 5.3206                24.7510

                     76                     77                     78
                      A                      A                      A
 Frequencies --   3106.7570              3113.9091              3119.6631
 Red. masses --      1.0943                 1.0942                 1.0943
 Frc consts  --      6.2230                 6.2512                 6.2747
 IR Inten    --     29.8645                36.2140                43.3052

                     79                     80                     81
                      A                      A                      A
 Frequencies --   3128.5773              3142.9573              3143.0282
 Red. masses --      1.1015                 1.0904                 1.1035
 Frc consts  --      6.3523                 6.3462                 6.4227
 IR Inten    --     28.2114                 1.8025                 7.5810

                     82                     83                     84
                      A                      A                      A
 Frequencies --   3158.4882              3162.6259              3175.5911
 Red. masses --      1.0903                 1.1085                 1.0963
 Frc consts  --      6.4085                 6.5328                 6.5136
 IR Inten    --      8.5199                22.8728                 6.5403

 - Thermochemistry -
 -------------------
 Temperature   298.150 Kelvin.  Pressure   1.00000 Atm.
 Atom     1 has atomic number  6 and mass  12.00000

 Molecular mass:   200.11609 amu.
 Principal axes and moments of inertia in atomic units:
                           1         2         3
     Eigenvalues --  1533.615104743.352245706.06913
           X            0.99968  -0.02398   0.00831
           Y            0.02413   0.99953  -0.01889
           Z           -0.00785   0.01909   0.99979
 This molecule is an asymmetric top.
 Rotational symmetry number  1.
 Warning -- assumption of classical behavior for rotation
           may cause significant error
 Rotational temperatures (Kelvin)      0.05648     0.01826     0.01518
 Rotational constants (GHZ):           1.17679     0.38048     0.31628
 Zero-point vibrational energy     677495.1 (Joules/Mol)
                                  161.92522 (Kcal/Mol)
 Warning -- explicit consideration of  20 degrees of freedom as
           vibrations may cause significant error
 Vibrational temperatures:     26.37    60.23    63.42   105.89   145.08
          (Kelvin)            149.71   234.77   287.51   335.66   371.07
                              442.19   460.60   511.63   552.24   584.92
                              636.37   671.96   708.18   744.51   870.67
                              918.78   973.70  1083.79  1149.66  1175.49
                             1239.24  1259.59  1266.36  1298.28  1354.45
                             1370.86  1412.62  1429.95  1499.34  1502.20
                             1567.19  1583.94  1604.36  1629.44  1651.62
                             1661.87  1681.05  1735.61  1742.07  1785.81
                             1842.51  1877.39  1893.01  1909.45  1932.18
                             1939.07  1981.83  1998.63  2026.99  2041.36
                             2051.06  2077.55  2077.82  2157.73  2174.30
                             2181.14  2185.63  2186.86  2195.36  2209.68
                             2216.39  2469.65  2620.12  4294.30  4310.42
                             4316.48  4326.56  4406.40  4420.80  4459.21
                             4469.93  4480.22  4488.50  4501.32  4522.01
                             4522.12  4544.36  4550.31  4568.97

 Zero-point correction=                           0.258044 (Hartree/Particle)
 Thermal correction to Energy=                    0.272126
 Thermal correction to Enthalpy=                  0.273070
 Thermal correction to Gibbs Free Energy=         0.214870
 Sum of electronic and zero-point Energies=           -687.506314
 Sum of electronic and thermal Energies=              -687.492232
 Sum of electronic and thermal Enthalpies=            -687.491288
 Sum of electronic and thermal Free Energies=         -687.549488

                     E (Thermal)             CV                S
                      KCal/Mol        Cal/Mol-Kelvin    Cal/Mol-Kelvin
 Total                  170.762             51.853            122.494
 Electronic               0.000              0.000              0.000
 Translational            0.889              2.981             41.786
 Rotational               0.889              2.981             32.096
 Vibrational            168.984             45.891             48.612
 Vibration     1          0.593              1.986              6.808
 Vibration     2          0.594              1.980              5.169
 Vibration     3          0.595              1.980              5.067
 Vibration     4          0.599              1.966              4.055
 Vibration     5          0.604              1.948              3.438
 Vibration     6          0.605              1.946              3.377
 Vibration     7          0.623              1.888              2.513
 Vibration     8          0.638              1.840              2.135
 Vibration     9          0.654              1.790              1.853
 Vibration    10          0.667              1.749              1.676
 Vibration    11          0.697              1.660              1.377
 Vibration    12          0.706              1.635              1.309
 Vibration    13          0.731              1.564              1.141
 Vibration    14          0.753              1.505              1.024
 Vibration    15          0.771              1.456              0.939
 Vibration    16          0.802              1.378              0.819
 Vibration    17          0.824              1.323              0.746
 Vibration    18          0.848              1.267              0.678
 Vibration    19          0.872              1.211              0.616
 Vibration    20          0.964              1.021              0.441

 Optimization completed.
    -- Stationary point found.
 Normal termination of Gaussian 16 at Thu Dec 10 11:29:23 2020.

 ----------------------------------------------------------------------
 # B3LYP/6-311++G(d,p) empiricaldispersion=gd3bj scf=xqc pop=npa geom=c
 heck
 ----------------------------------------------------------------------

 --------------------------------------
 CID_53787988_JID_4996_Energie_neutraal
 --------------------------------------
 Structure from the checkpoint file:  "JID_4996.chk"
 Charge =  0 Multiplicity = 1

 SCF Done:  E(RB3LYP) =  -687.963447591     A.U. after   14 cycles
 Normal termination of Gaussian 16 at Thu Dec 10 11:32:30 2020.

 ----------------------------------------------------------------------
 # B3LYP/6-311++G(d,p) empiricaldispersion=gd3bj scf=xqc pop=npa geom=c
 heck
 ----------------------------------------------------------------------

 ------------------------------------
 CID_53787988_JID_4996_Energie_kation
 ------------------------------------
 Structure from the checkpoint file:  "JID_4996.chk"
 Charge =  1 Multiplicity = 2

 SCF Done:  E(UB3LYP) =  -687.666697797     A.U. after   21 cycles
 Normal termination of Gaussian 16 at Thu Dec 10 11:38:26 2020.
 Gaussian 16:  ES64L-G16RevA.03 25-Dec-2016

 ----------------------------------------------------------------------
 # B3LYP/6-311++G(d,p) empiricaldispersion=gd3bj scf=xqc pop=npa geom=c
 heck
 ----------------------------------------------------------------------

 -----------------------------------
 CID_53787988_JID_4996_Energie_anion
 -----------------------------------
 Structure from the checkpoint file:  "JID_4996.chk"
 Charge = -1 Multiplicity = 2

                         Standard orientation:
 ---------------------------------------------------------------------
 Center     Atomic      Atomic             Coordinates (Angstroms)
 Number     Number       Type             X           Y           Z
 ---------------------------------------------------------------------
      1          6           0       -3.169522    1.753719   -1.125469
      2          6           0       -3.216135    1.424863    0.357372
      3          8           0       -2.105299    0.572645    0.735722
      4          6           0       -2.262437   -0.749991    0.505588
      5          8           0       -3.269700   -1.249988    0.054451
      6          6           0       -1.003188   -1.526326    0.843317
      7          6           0       -0.319355   -1.984710   -0.426468
      8          7           0        0.830951   -1.651770   -0.867284
      9          7           0        1.542387   -0.687317   -0.085039
     10          6           0        2.972550   -0.849079   -0.375446
     11          6           0        3.756709    0.180288    0.430582
     12          8           0        3.352948    1.504289    0.109697
     13          6           0        1.964542    1.674700    0.348490
     14          6           0        1.127706    0.679809   -0.449623
     15          1           0       -2.216499    2.222860   -1.390839
     16          1           0       -3.977604    2.449176   -1.378114
     17          1           0       -3.297390    0.846869   -1.722383
     18          1           0       -3.091519    2.316490    0.975493
     19          1           0       -4.147781    0.921456    0.624819
     20          1           0       -0.312175   -0.941843    1.450141
     21          1           0       -1.323242   -2.420513    1.390777
     22          1           0       -0.866550   -2.704017   -1.036393
     23          1           0        3.175390   -0.721672   -1.451304
     24          1           0        3.271364   -1.861835   -0.087866
     25          1           0        3.614845   -0.008479    1.507268
     26          1           0        4.823654    0.115772    0.200038
     27          1           0        1.720385    2.698967    0.052211
     28          1           0        1.745467    1.555713    1.422350
     29          1           0        1.268184    0.854402   -1.530000
     30          1           0        0.071298    0.815060   -0.208945
 ---------------------------------------------------------------------

 SCF Done:  E(UB3LYP) =  -687.949848294     A.U. after   33 cycles
 SCF Done:  E(UB3LYP) =  -687.949848294     a.u. after    1 cycles

 The electronic state is 2-A.
 Alpha  occ. eigenvalues --  -19.06477 -19.03184 -19.00535 -14.23725 -14.22495
 Alpha  occ. eigenvalues --  -10.19466 -10.12369 -10.12269 -10.11930 -10.10691
 Alpha  occ. eigenvalues --  -10.09660 -10.09278 -10.08890 -10.05813  -1.00326
 Alpha  occ. eigenvalues --   -0.94966  -0.91776  -0.88622  -0.75321  -0.68392
 Alpha  occ. eigenvalues --   -0.67785  -0.64691  -0.58931  -0.55881  -0.55094
 Alpha  occ. eigenvalues --   -0.49143  -0.46380  -0.45301  -0.41200  -0.40900
 Alpha  occ. eigenvalues --   -0.38974  -0.38405  -0.37935  -0.37067  -0.36283
 Alpha  occ. eigenvalues --   -0.35464  -0.34337  -0.33362  -0.32271  -0.30086
 Alpha  occ. eigenvalues --   -0.29789  -0.29017  -0.27852  -0.27259  -0.26442
 Alpha  occ. eigenvalues --   -0.26423  -0.24026  -0.23257  -0.22163  -0.20495
 Alpha  occ. eigenvalues --   -0.19038  -0.17755  -0.16816  -0.11642   0.04790
 Alpha virt. eigenvalues --    0.06423   0.06665   0.08329   0.08364   0.08763
 Alpha virt. eigenvalues --    0.09274   0.10054   0.10311   0.10902   0.11170
 Alpha virt. eigenvalues --    0.11469   0.11791   0.12484   0.13757   0.13938

  Beta  occ. eigenvalues --  -19.06467 -19.03180 -19.00449 -14.23738 -14.22343
  Beta  occ. eigenvalues --  -10.19335 -10.12352 -10.12246 -10.11914 -10.10569
  Beta  occ. eigenvalues --  -10.09654 -10.09253 -10.08914 -10.05765  -1.00220
  Beta  occ. eigenvalues --   -0.94950  -0.91656  -0.88464  -0.75180  -0.68271
  Beta  occ. eigenvalues --   -0.67753  -0.64592  -0.58867  -0.55834  -0.54986
  Beta  occ. eigenvalues --   -0.49003  -0.46263  -0.45207  -0.41064  -0.40775
  Beta  occ. eigenvalues --   -0.38846  -0.38366  -0.37798  -0.37020  -0.36170
  Beta  occ. eigenvalues --   -0.35374  -0.34228  -0.33299  -0.32198  -0.30034
  Beta  occ. eigenvalues --   -0.29664  -0.28945  -0.27575  -0.27131  -0.26412
  Beta  occ. eigenvalues --   -0.26357  -0.23967  -0.22974  -0.22047  -0.20291
  Beta  occ. eigenvalues --   -0.18692  -0.17656  -0.16773  -0.11544
  Beta virt. eigenvalues --    0.06831   0.07705   0.07838   0.08460   0.08895
  Beta virt. eigenvalues --    0.09365   0.09741   0.10277   0.10854   0.11033
  Beta virt. eigenvalues --    0.11537   0.11734   0.12113   0.12768   0.13794

 Mulliken charges and spin densities:
               1          2
     1  C    1.188155  -1.575648
     2  C   -0.196881   0.004097
     3  O   -0.001461   0.008558
     4  C   -0.153608   0.038492
     5  O   -0.280433   0.030886
     6  C   -0.156419  -0.139013
     7  C   -0.206754   0.132597
     8  N   -0.141703   0.043854
     9  N    0.133949   0.030687
    10  C   -0.044797  -0.147021
    11  C   -0.037019  -0.292003
    12  O   -0.172801   0.044122
    13  C    0.060661  -0.540345
    14  C   -0.998596   0.636508
    15  H   -0.336837   0.477714
    16  H   -0.841937   1.002719
    17  H    0.006877   0.155925
    18  H   -0.534261   0.706615
    19  H    0.049317   0.116064
    20  H    0.177550   0.028256
    21  H    0.171334   0.013854
    22  H    0.163275   0.022013
    23  H    0.104413   0.026935
    24  H   -0.039552   0.196050
    25  H    0.128908  -0.022794
    26  H   -0.221702   0.409488
    27  H   -0.098005   0.283177
    28  H   -0.029235   0.174281
    29  H   -0.195674   0.365198
    30  H    1.503234  -1.231265
 Sum of Mulliken charges =  -1.00000   1.00000

 Dipole moment (field-independent basis, Debye):
    X=              3.5666    Y=             -5.8627    Z=              3.2705  Tot=              7.6019
 Quadrupole moment (field-independent basis, Debye-Ang):
   XX=           -166.6528   YY=           -135.0613   ZZ=           -108.8261
   XY=             14.5213   XZ=             -3.8877   YZ=              1.5043

 Summary of Natural Population Analysis:

                                       Natural Population
                Natural  -----------------------------------------------
    Atom  No    Charge         Core      Valence    Rydberg      Total
 -----------------------------------------------------------------------
      C    1   -0.29961      0.99966     2.29453    0.00542     3.29961
      C    2   -0.01644      0.99958     2.00447    0.01239     3.01644
      O    3   -0.28493      0.99986     3.27638    0.00869     4.28493
      C    4    0.42318      0.99969     1.55064    0.02648     2.57682
      O    5   -0.30676      0.99987     3.30163    0.00526     4.30676
      C    6   -0.27257      0.99957     2.26531    0.00769     3.27257
      C    7    0.08208      0.99965     1.90298    0.01529     2.91792
      N    8   -0.12894      0.99968     2.61736    0.01190     3.62894
      N    9   -0.20982      0.99970     2.69644    0.01368     3.70982
      C   10   -0.09845      0.99962     2.08582    0.01301     3.09845
      C   11   -0.01607      0.99957     2.00342    0.01308     3.01607
      O   12   -0.29892      0.99989     3.28960    0.00942     4.29892
      C   13   -0.01430      0.99957     2.00142    0.01330     3.01430
      C   14   -0.10948      0.99960     2.09733    0.01255     3.10948
      H   15    0.10212      0.00000     0.39596    0.00192     0.39788
      H   16    0.10641      0.00000     0.39027    0.00332     0.39359
      H   17    0.10338      0.00000     0.39561    0.00102     0.39662
      H   18    0.09295      0.00000     0.40503    0.00202     0.40705
      H   19    0.09311      0.00000     0.40570    0.00119     0.40689
      H   20    0.11961      0.00000     0.37886    0.00153     0.38039
      H   21    0.11533      0.00000     0.38365    0.00102     0.38467
      H   22    0.08810      0.00000     0.41086    0.00104     0.41190
      H   23    0.08895      0.00000     0.40914    0.00190     0.41105
      H   24    0.09952      0.00000     0.39913    0.00135     0.40048
      H   25    0.07821      0.00000     0.42027    0.00152     0.42179
      H   26    0.09269      0.00000     0.40598    0.00133     0.40731
      H   27    0.09570      0.00000     0.40296    0.00135     0.40430
      H   28    0.07853      0.00000     0.41994    0.00153     0.42147
      H   29    0.08732      0.00000     0.41094    0.00174     0.41268
      H   30    0.10907      0.00000     0.38820    0.00273     0.39093
 =======================================================================
   * Total *   -0.00000     13.99552    39.80983    0.19466    54.00000

 Normal termination of Gaussian 16 at Thu Dec 10 11:47:22 2020.
