 Gaussian 16, Revision A.03,

 -----------------------------------------------------------
 # opt freq B3LYP/6-31G(d) empiricaldispersion=gd3bj scf=xqc
 -----------------------------------------------------------

 -------------------------------
 CID_118049146_JID_4472_neutraal
 -------------------------------
 Symbolic Z-matrix:
 Charge =  0 Multiplicity = 1

 SCF Done:  E(RB3LYP) =  -922.915600130     A.U. after   15 cycles
 SCF Done:  E(RB3LYP) =  -922.920539105     A.U. after   12 cycles
 SCF Done:  E(RB3LYP) =  -922.921899524     A.U. after   12 cycles
 SCF Done:  E(RB3LYP) =  -922.922448041     A.U. after   12 cycles
 SCF Done:  E(RB3LYP) =  -922.922612500     A.U. after   12 cycles
 SCF Done:  E(RB3LYP) =  -922.922729896     A.U. after   11 cycles
 SCF Done:  E(RB3LYP) =  -922.922810463     A.U. after   10 cycles
 SCF Done:  E(RB3LYP) =  -922.922842245     A.U. after   10 cycles
 SCF Done:  E(RB3LYP) =  -922.922861765     A.U. after   10 cycles
 SCF Done:  E(RB3LYP) =  -922.922919505     A.U. after   11 cycles
 SCF Done:  E(RB3LYP) =  -922.922984527     A.U. after   10 cycles
 SCF Done:  E(RB3LYP) =  -922.922992911     A.U. after   10 cycles
 SCF Done:  E(RB3LYP) =  -922.922993703     A.U. after    8 cycles
 SCF Done:  E(RB3LYP) =  -922.922993830     A.U. after    8 cycles
 SCF Done:  E(RB3LYP) =  -922.922993914     A.U. after    7 cycles
 Optimization completed.
    -- Stationary point found.
 Normal termination of Gaussian 16 at Thu Dec 10 09:56:31 2020.

 --------------------------------------------------------------------
 #N Geom=AllCheck Guess=TCheck SCRF=Check GenChk RB3LYP/6-31G(d) Freq
 --------------------------------------------------------------------

 Structure from the checkpoint file:  "JID_4472.chk"
 -------------------------------
 CID_118049146_JID_4472_neutraal
 -------------------------------
 Charge =  0 Multiplicity = 1

 SCF Done:  E(RB3LYP) =  -922.922993914     A.U. after    1 cycles

  Exact polarizability: 179.459 -15.482 136.324  16.671   9.108 124.159
 Approx polarizability: 225.266 -26.968 220.527  34.999  24.646 203.992

                      1                      2                      3
                      A                      A                      A
 Frequencies --     27.8626                37.0121                38.7471
 Red. masses --      4.1926                 3.4730                 3.9295
 Frc consts  --      0.0019                 0.0028                 0.0035
 IR Inten    --      0.1624                 0.3772                 0.1469

                      4                      5                      6
                      A                      A                      A
 Frequencies --     62.3140                69.0085                97.1307
 Red. masses --      3.5545                 3.3733                 3.4180
 Frc consts  --      0.0081                 0.0095                 0.0190
 IR Inten    --      0.0410                 0.3165                 0.1173

                      7                      8                      9
                      A                      A                      A
 Frequencies --    130.1615               168.7110               190.8937
 Red. masses --      3.2875                 2.1139                 1.0769
 Frc consts  --      0.0328                 0.0355                 0.0231
 IR Inten    --      2.5645                 1.4001                37.1901

                     10                     11                     12
                      A                      A                      A
 Frequencies --    217.0226               232.9937               285.3964
 Red. masses --      2.9314                 1.6171                 1.9544
 Frc consts  --      0.0813                 0.0517                 0.0938
 IR Inten    --      1.4926                 0.5882                 0.2516

                     13                     14                     15
                      A                      A                      A
 Frequencies --    304.1444               317.3736               350.1332
 Red. masses --      2.7983                 1.9717                 2.4609
 Frc consts  --      0.1525                 0.1170                 0.1777
 IR Inten    --      1.2636                 0.3315                 2.1312

                     16                     17                     18
                      A                      A                      A
 Frequencies --    381.1347               387.3679               423.3609
 Red. masses --      2.5378                 2.2299                 2.1258
 Frc consts  --      0.2172                 0.1971                 0.2245
 IR Inten    --      2.4647                 0.3381                 0.7727

                     19                     20                     21
                      A                      A                      A
 Frequencies --    473.0567               499.2485               538.0014
 Red. masses --      2.2992                 4.7203                 2.6126
 Frc consts  --      0.3031                 0.6932                 0.4456
 IR Inten    --      0.0333                30.0284                 6.0372

                     22                     23                     24
                      A                      A                      A
 Frequencies --    562.9909               595.6041               632.3809
 Red. masses --      2.8637                 3.1874                 3.8653
 Frc consts  --      0.5348                 0.6662                 0.9107
 IR Inten    --      5.7622                 4.3150                15.4681

                     25                     26                     27
                      A                      A                      A
 Frequencies --    686.3651               713.4961               717.5572
 Red. masses --      4.2204                 1.4270                 1.8036
 Frc consts  --      1.1714                 0.4280                 0.5471
 IR Inten    --     17.9085                64.7375               148.3073

                     28                     29                     30
                      A                      A                      A
 Frequencies --    738.8381               752.5763               783.2620
 Red. masses --      1.6148                 2.3391                 1.4411
 Frc consts  --      0.5194                 0.7805                 0.5209
 IR Inten    --      9.9674                21.6903                75.6209

                     31                     32                     33
                      A                      A                      A
 Frequencies --    790.1347               821.8314               847.5336
 Red. masses --      1.6391                 2.3677                 1.5429
 Frc consts  --      0.6029                 0.9422                 0.6530
 IR Inten    --     69.9338                 3.3430                 1.5645

                     34                     35                     36
                      A                      A                      A
 Frequencies --    866.1955               894.3414               916.5026
 Red. masses --      1.4702                 1.8727                 1.7255
 Frc consts  --      0.6499                 0.8825                 0.8539
 IR Inten    --      2.0686                 1.2481                 0.6910

                     37                     38                     39
                      A                      A                      A
 Frequencies --    966.1031               984.1994               989.4811
 Red. masses --      1.6380                 1.9348                 1.6367
 Frc consts  --      0.9008                 1.1042                 0.9441
 IR Inten    --      0.8165                 3.4702                 0.5633

                     40                     41                     42
                      A                      A                      A
 Frequencies --   1041.3732              1043.5432              1063.2462
 Red. masses --      1.6470                 1.6090                 1.5308
 Frc consts  --      1.0524                 1.0324                 1.0196
 IR Inten    --      5.1524                 6.3767                 2.8345

                     43                     44                     45
                      A                      A                      A
 Frequencies --   1074.5829              1113.0151              1114.4241
 Red. masses --      1.7407                 1.5497                 1.8774
 Frc consts  --      1.1843                 1.1311                 1.3738
 IR Inten    --      3.0569                 1.7137                 0.4396

                     46                     47                     48
                      A                      A                      A
 Frequencies --   1125.8207              1144.4852              1167.5792
 Red. masses --      1.4657                 1.8846                 2.4458
 Frc consts  --      1.0946                 1.4544                 1.9645
 IR Inten    --      3.3237                 0.1860                 3.9323

                     49                     50                     51
                      A                      A                      A
 Frequencies --   1203.5755              1212.9495              1244.3438
 Red. masses --      1.5526                 1.4819                 1.3442
 Frc consts  --      1.3251                 1.2846                 1.2263
 IR Inten    --      2.9085                 1.7766                 0.7363

                     52                     53                     54
                      A                      A                      A
 Frequencies --   1271.9746              1280.2531              1294.3721
 Red. masses --      1.4123                 1.9625                 1.6973
 Frc consts  --      1.3463                 1.8952                 1.6754
 IR Inten    --      2.9509                20.1067                25.0682

                     55                     56                     57
                      A                      A                      A
 Frequencies --   1308.4129              1331.3636              1352.7843
 Red. masses --      1.2249                 1.1511                 1.1076
 Frc consts  --      1.2355                 1.2022                 1.1942
 IR Inten    --      1.9282                 2.1006                 0.6756

                     58                     59                     60
                      A                      A                      A
 Frequencies --   1366.5019              1379.6119              1388.6498
 Red. masses --      1.4689                 1.3562                 1.5189
 Frc consts  --      1.6160                 1.5208                 1.7257
 IR Inten    --     12.4903                15.6696                 4.8717

                     61                     62                     63
                      A                      A                      A
 Frequencies --   1402.6885              1410.4800              1412.1791
 Red. masses --      1.5113                 1.7664                 1.5438
 Frc consts  --      1.7519                 2.0704                 1.8140
 IR Inten    --      0.4559                 4.3253                 0.3878

                     64                     65                     66
                      A                      A                      A
 Frequencies --   1424.7223              1427.5775              1443.4987
 Red. masses --      1.4337                 1.4402                 1.2713
 Frc consts  --      1.7146                 1.7293                 1.5608
 IR Inten    --      1.8513                 3.4064                 5.4121

                     67                     68                     69
                      A                      A                      A
 Frequencies --   1503.7728              1512.3005              1517.3570
 Red. masses --      1.0774                 1.0887                 1.0862
 Frc consts  --      1.4354                 1.4670                 1.4734
 IR Inten    --      0.7425                 3.5311                 5.5158

                     70                     71                     72
                      A                      A                      A
 Frequencies --   1519.5700              1524.4519              1533.1664
 Red. masses --      1.0809                 1.0650                 1.0722
 Frc consts  --      1.4706                 1.4583                 1.4850
 IR Inten    --      1.4558                 5.1002                11.8759

                     73                     74                     75
                      A                      A                      A
 Frequencies --   1534.2049              1537.5648              1545.7624
 Red. masses --      1.0759                 1.0645                 1.0848
 Frc consts  --      1.4920                 1.4828                 1.5272
 IR Inten    --      5.7554                 0.9288                 1.1679

                     76                     77                     78
                      A                      A                      A
 Frequencies --   1578.8762              1632.5309              1687.1561
 Red. masses --      6.4581                 4.8663                 1.1883
 Frc consts  --      9.4852                 7.6413                 1.9930
 IR Inten    --     96.4963                19.1393                64.9047

                     79                     80                     81
                      A                      A                      A
 Frequencies --   3025.7780              3030.2863              3034.0507
 Red. masses --      1.0638                 1.0652                 1.0631
 Frc consts  --      5.7382                 5.7633                 5.7660
 IR Inten    --     19.3541                30.6990                34.4153

                     82                     83                     84
                      A                      A                      A
 Frequencies --   3037.6022              3038.7300              3041.6203
 Red. masses --      1.0617                 1.0612                 1.0642
 Frc consts  --      5.7719                 5.7735                 5.8006
 IR Inten    --     41.7837                 1.1976                 2.7128

                     85                     86                     87
                      A                      A                      A
 Frequencies --   3044.9762              3050.8848              3058.9810
 Red. masses --      1.0404                 1.0655                 1.0940
 Frc consts  --      5.6835                 5.8434                 6.0313
 IR Inten    --     24.0031                10.7382                10.5839

                     88                     89                     90
                      A                      A                      A
 Frequencies --   3066.2432              3067.9309              3074.2864
 Red. masses --      1.0976                 1.1014                 1.0977
 Frc consts  --      6.0800                 6.1080                 6.1127
 IR Inten    --     32.5128                 7.3447                72.4191

                     91                     92                     93
                      A                      A                      A
 Frequencies --   3077.2379              3087.1907              3089.2464
 Red. masses --      1.1011                 1.0993                 1.0997
 Frc consts  --      6.1433                 6.1732                 6.1837
 IR Inten    --    138.8475                64.1270                55.7865

                     94                     95                     96
                      A                      A                      A
 Frequencies --   3108.6229              3116.6942              3201.0009
 Red. masses --      1.1015                 1.1018                 1.0888
 Frc consts  --      6.2713                 6.3059                 6.5730
 IR Inten    --     49.0770                52.4031                20.7104

                     97                     98                     99
                      A                      A                      A
 Frequencies --   3216.3272              3514.4549              3610.5370
 Red. masses --      1.0964                 1.0484                 1.0961
 Frc consts  --      6.6826                 7.6295                 8.4185
 IR Inten    --     10.2749                 6.6550                 8.8459

 - Thermochemistry -
 -------------------
 Temperature   298.150 Kelvin.  Pressure   1.00000 Atm.
 Atom     1 has atomic number  6 and mass  12.00000

 Molecular mass:   211.13947 amu.
 Principal axes and moments of inertia in atomic units:
                           1         2         3
     Eigenvalues --  1223.880328267.763288550.46184
           X            1.00000  -0.00070  -0.00108
           Y            0.00068   0.99977  -0.02140
           Z            0.00110   0.02140   0.99977
 This molecule is an asymmetric top.
 Rotational symmetry number  1.
 Warning -- assumption of classical behavior for rotation
           may cause significant error
 Rotational temperatures (Kelvin)      0.07077     0.01048     0.01013
 Rotational constants (GHZ):           1.47461     0.21829     0.21107
 Zero-point vibrational energy     823951.1 (Joules/Mol)
                                  196.92905 (Kcal/Mol)
 Warning -- explicit consideration of  23 degrees of freedom as
           vibrations may cause significant error
 Vibrational temperatures:     40.09    53.25    55.75    89.66    99.29
          (Kelvin)            139.75   187.27   242.74   274.65   312.25
                              335.23   410.62   437.60   456.63   503.76
                              548.37   557.34   609.12   680.62   718.31
                              774.06   810.02   856.94   909.86   987.53
                             1026.56  1032.40  1063.02  1082.79  1126.94
                             1136.83  1182.43  1219.41  1246.26  1286.76
                             1318.64  1390.01  1416.04  1423.64  1498.30
                             1501.43  1529.77  1546.09  1601.38  1603.41
                             1619.80  1646.66  1679.89  1731.68  1745.16
                             1790.33  1830.09  1842.00  1862.31  1882.51
                             1915.54  1946.35  1966.09  1984.95  1997.96
                             2018.16  2029.37  2031.81  2049.86  2053.97
                             2076.87  2163.59  2175.86  2183.14  2186.32
                             2193.35  2205.88  2207.38  2212.21  2224.01
                             2271.65  2348.85  2427.44  4353.42  4359.91
                             4365.32  4370.43  4372.05  4376.21  4381.04
                             4389.54  4401.19  4411.64  4414.07  4423.21
                             4427.46  4441.78  4444.74  4472.61  4484.23
                             4605.53  4627.58  5056.52  5194.76

 Zero-point correction=                           0.313826 (Hartree/Particle)
 Thermal correction to Energy=                    0.329790
 Thermal correction to Enthalpy=                  0.330734
 Thermal correction to Gibbs Free Energy=         0.268624
 Sum of electronic and zero-point Energies=           -922.609167
 Sum of electronic and thermal Energies=              -922.593204
 Sum of electronic and thermal Enthalpies=            -922.592260
 Sum of electronic and thermal Free Energies=         -922.654370

                     E (Thermal)             CV                S
                      KCal/Mol        Cal/Mol-Kelvin    Cal/Mol-Kelvin
 Total                  206.946             59.825            130.720
 Electronic               0.000              0.000              0.000
 Translational            0.889              2.981             41.946
 Rotational               0.889              2.981             32.825
 Vibrational            205.169             53.864             55.949
 Vibration     1          0.593              1.984              5.976
 Vibration     2          0.594              1.982              5.413
 Vibration     3          0.594              1.981              5.322
 Vibration     4          0.597              1.972              4.383
 Vibration     5          0.598              1.969              4.181
 Vibration     6          0.603              1.951              3.511
 Vibration     7          0.612              1.923              2.944
 Vibration     8          0.625              1.881              2.450
 Vibration     9          0.634              1.852              2.219
 Vibration    10          0.646              1.815              1.984
 Vibration    11          0.654              1.790              1.856
 Vibration    12          0.683              1.701              1.501
 Vibration    13          0.695              1.666              1.394
 Vibration    14          0.704              1.640              1.324
 Vibration    15          0.727              1.575              1.166
 Vibration    16          0.751              1.510              1.035
 Vibration    17          0.756              1.497              1.010
 Vibration    18          0.786              1.419              0.881
 Vibration    19          0.830              1.310              0.729
 Vibration    20          0.855              1.252              0.660
 Vibration    21          0.893              1.166              0.570
 Vibration    22          0.919              1.111              0.518
 Vibration    23          0.953              1.041              0.457

 Optimization completed.
    -- Stationary point found.
 Normal termination of Gaussian 16 at Thu Dec 10 10:05:57 2020.

 ----------------------------------------------------------------------
 # B3LYP/6-311++G(d,p) empiricaldispersion=gd3bj scf=xqc pop=npa geom=c
 heck
 ----------------------------------------------------------------------

 ---------------------------------------
 CID_118049146_JID_4472_Energie_neutraal
 ---------------------------------------
 Structure from the checkpoint file:  "JID_4472.chk"
 Charge =  0 Multiplicity = 1

 SCF Done:  E(RB3LYP) =  -923.100414892     A.U. after   15 cycles
 Normal termination of Gaussian 16 at Thu Dec 10 10:12:06 2020.

 ----------------------------------------------------------------------
 # B3LYP/6-311++G(d,p) empiricaldispersion=gd3bj scf=xqc pop=npa geom=c
 heck
 ----------------------------------------------------------------------

 -------------------------------------
 CID_118049146_JID_4472_Energie_kation
 -------------------------------------
 Structure from the checkpoint file:  "JID_4472.chk"
 Charge =  1 Multiplicity = 2

 SCF Done:  E(UB3LYP) =  -922.832330394     A.U. after   22 cycles
 Normal termination of Gaussian 16 at Thu Dec 10 10:24:45 2020.
 Gaussian 16:  ES64L-G16RevA.03 25-Dec-2016

 ----------------------------------------------------------------------
 # B3LYP/6-311++G(d,p) empiricaldispersion=gd3bj scf=xqc pop=npa geom=c
 heck
 ----------------------------------------------------------------------

 ------------------------------------
 CID_118049146_JID_4472_Energie_anion
 ------------------------------------
 Structure from the checkpoint file:  "JID_4472.chk"
 Charge = -1 Multiplicity = 2

                         Standard orientation:
 ---------------------------------------------------------------------
 Center     Atomic      Atomic             Coordinates (Angstroms)
 Number     Number       Type             X           Y           Z
 ---------------------------------------------------------------------
      1          6           0        5.318124    1.461285   -0.203593
      2          6           0        4.600241    0.337012   -0.956077
      3          6           0        3.959168   -0.715922   -0.039278
      4          6           0        2.901294   -0.174214    0.935784
      5          6           0        1.730605    0.569560    0.274828
      6          6           0        0.947322   -0.240264   -0.769742
      7          6           0        0.372203   -1.569138   -0.262245
      8          6           0       -0.581167   -1.428288    0.942170
      9          6           0       -1.728335   -0.493566    0.705425
     10          6           0       -2.012520    0.694419    1.313225
     11          6           0       -3.158249    1.373289    0.785353
     12          6           0       -3.755295    0.686561   -0.237306
     13         16           0       -2.918887   -0.825824   -0.553691
     14          7           0       -4.934310    0.979382   -0.930170
     15          1           0        4.621024    2.055587    0.397447
     16          1           0        5.819978    2.144666   -0.897709
     17          1           0        6.078663    1.056809    0.475997
     18          1           0        3.835727    0.769974   -1.614423
     19          1           0        5.316069   -0.167961   -1.618017
     20          1           0        3.511891   -1.500989   -0.662981
     21          1           0        4.750923   -1.207340    0.543568
     22          1           0        2.514861   -1.013953    1.528553
     23          1           0        3.380557    0.499849    1.657402
     24          1           0        1.041573    0.909282    1.058051
     25          1           0        2.103114    1.483964   -0.205016
     26          1           0        0.123452    0.380537   -1.142277
     27          1           0        1.591028   -0.447664   -1.634279
     28          1           0       -0.166800   -2.055513   -1.085856
     29          1           0        1.183122   -2.253747    0.017119
     30          1           0       -0.947220   -2.426572    1.218719
     31          1           0       -0.029487   -1.053949    1.812623
     32          1           0       -1.402982    1.092042    2.118775
     33          1           0       -3.517156    2.331713    1.145966
     34          1           0       -4.867564    0.834088   -1.932771
     35          1           0       -5.258755    1.922295   -0.741903
 ---------------------------------------------------------------------

 SCF Done:  E(UB3LYP) =  -923.087296139     A.U. after   33 cycles
 SCF Done:  E(UB3LYP) =  -923.087296139     a.u. after    1 cycles

 The electronic state is 2-A.
 Alpha  occ. eigenvalues --  -88.77087 -14.22080 -10.13471 -10.09833 -10.09113
 Alpha  occ. eigenvalues --  -10.08071 -10.07716 -10.07621 -10.07567 -10.07501
 Alpha  occ. eigenvalues --  -10.07436 -10.07377 -10.07098 -10.06553  -7.85737
 Alpha  occ. eigenvalues --   -5.82038  -5.81687  -5.81286  -0.82633  -0.76342
 Alpha  occ. eigenvalues --   -0.72884  -0.70255  -0.66614  -0.63308  -0.62749
 Alpha  occ. eigenvalues --   -0.59766  -0.56884  -0.53402  -0.49227  -0.46540
 Alpha  occ. eigenvalues --   -0.45625  -0.44045  -0.41148  -0.39682  -0.39424
 Alpha  occ. eigenvalues --   -0.38245  -0.36341  -0.35208  -0.33768  -0.32862
 Alpha  occ. eigenvalues --   -0.31784  -0.31416  -0.30112  -0.29367  -0.28442
 Alpha  occ. eigenvalues --   -0.28389  -0.27383  -0.26323  -0.25493  -0.24981
 Alpha  occ. eigenvalues --   -0.24730  -0.23949  -0.22850  -0.22190  -0.22045
 Alpha  occ. eigenvalues --   -0.20482  -0.15501  -0.10101   0.04138
 Alpha virt. eigenvalues --    0.04960   0.06428   0.07005   0.07472   0.07948
 Alpha virt. eigenvalues --    0.08268   0.08874   0.09462   0.09692   0.10143
 Alpha virt. eigenvalues --    0.10425   0.10980   0.11407   0.11864   0.12420

  Beta  occ. eigenvalues --  -88.77086 -14.21987 -10.13440 -10.09811 -10.09111
  Beta  occ. eigenvalues --  -10.08064 -10.07704 -10.07613 -10.07560 -10.07500
  Beta  occ. eigenvalues --  -10.07420 -10.07376 -10.07072 -10.06547  -7.85735
  Beta  occ. eigenvalues --   -5.82038  -5.81686  -5.81282  -0.82525  -0.76281
  Beta  occ. eigenvalues --   -0.72865  -0.70229  -0.66589  -0.63281  -0.62710
  Beta  occ. eigenvalues --   -0.59722  -0.56844  -0.53365  -0.49188  -0.46447
  Beta  occ. eigenvalues --   -0.45575  -0.44002  -0.41080  -0.39628  -0.39397
  Beta  occ. eigenvalues --   -0.38194  -0.36308  -0.35182  -0.33724  -0.32835
  Beta  occ. eigenvalues --   -0.31765  -0.31388  -0.30081  -0.29337  -0.28417
  Beta  occ. eigenvalues --   -0.28340  -0.27351  -0.26287  -0.25465  -0.24961
  Beta  occ. eigenvalues --   -0.24708  -0.23919  -0.22832  -0.22166  -0.22027
  Beta  occ. eigenvalues --   -0.20405  -0.15471  -0.10002
  Beta virt. eigenvalues --    0.05810   0.06662   0.06929   0.07164   0.07925
  Beta virt. eigenvalues --    0.08430   0.08557   0.09140   0.09601   0.10011
  Beta virt. eigenvalues --    0.10280   0.10687   0.11010   0.11505   0.12136

 Mulliken charges and spin densities:
               1          2
     1  C    0.633470  -1.276485
     2  C   -0.543000   0.365788
     3  C    0.286801  -0.576061
     4  C   -0.402684   0.169008
     5  C    0.115746  -0.386224
     6  C   -0.072719  -0.036289
     7  C   -0.254980  -0.143461
     8  C   -0.816569   0.242237
     9  C    1.605264  -0.549711
    10  C   -1.018685   0.155683
    11  C    0.899557  -0.601714
    12  C   -0.061703  -0.784660
    13  S   -0.276151   0.284702
    14  N   -0.255405   0.009858
    15  H    0.015170   0.114936
    16  H   -0.151729   0.286002
    17  H   -0.154598   0.297659
    18  H    0.162846  -0.042609
    19  H   -0.371055   0.528559
    20  H    0.085982   0.042640
    21  H   -0.414655   0.578169
    22  H    0.035961   0.107980
    23  H    0.029056   0.126611
    24  H    0.183478  -0.056506
    25  H    0.137350   0.029700
    26  H    0.109844   0.023510
    27  H    0.129375   0.045280
    28  H    0.170840  -0.022947
    29  H   -0.045825   0.174059
    30  H    0.118188   0.066757
    31  H    0.156775   0.005051
    32  H    0.128930  -0.018583
    33  H   -0.321563   0.487343
    34  H   -0.452218   0.708937
    35  H   -0.391094   0.644783
 Sum of Mulliken charges =  -1.00000   1.00000

 Dipole moment (field-independent basis, Debye):
    X=              2.5767    Y=             -3.0110    Z=              3.1650  Tot=              5.0717
 Quadrupole moment (field-independent basis, Debye-Ang):
   XX=           -256.2927   YY=           -131.4947   ZZ=           -126.1452
   XY=             20.0258   XZ=            -14.5609   YZ=              7.0314

 Summary of Natural Population Analysis:

                                       Natural Population
                Natural  -----------------------------------------------
    Atom  No    Charge         Core      Valence    Rydberg      Total
 -----------------------------------------------------------------------
      C    1   -0.28789      0.99967     2.28279    0.00544     3.28789
      C    2   -0.19340      0.99964     2.18497    0.00878     3.19340
      C    3   -0.19127      0.99963     2.18253    0.00911     3.19127
      C    4   -0.19393      0.99963     2.18538    0.00892     3.19393
      C    5   -0.19392      0.99963     2.18637    0.00792     3.19392
      C    6   -0.19555      0.99963     2.18777    0.00815     3.19555
      C    7   -0.18909      0.99963     2.18028    0.00918     3.18909
      C    8   -0.20671      0.99958     2.19709    0.01004     3.20671
      C    9   -0.10273      0.99948     2.09085    0.01240     3.10273
      C   10   -0.12094      0.99946     2.11172    0.00977     3.12094
      C   11   -0.16974      0.99946     2.15864    0.01164     3.16974
      C   12    0.01918      0.99949     1.96513    0.01620     2.98082
      S   13    0.17555      4.99938     2.80648    0.01860     7.82445
      N   14   -0.40101      0.99970     2.88829    0.01302     3.90101
      H   15    0.09468      0.00000     0.40447    0.00085     0.40532
      H   16    0.09868      0.00000     0.40048    0.00084     0.40132
      H   17    0.09762      0.00000     0.40119    0.00119     0.40238
      H   18    0.09212      0.00000     0.40685    0.00103     0.40788
      H   19    0.09717      0.00000     0.40168    0.00115     0.40283
      H   20    0.09547      0.00000     0.40347    0.00106     0.40453
      H   21    0.09743      0.00000     0.40130    0.00127     0.40257
      H   22    0.09576      0.00000     0.40326    0.00098     0.40424
      H   23    0.09651      0.00000     0.40259    0.00090     0.40349
      H   24    0.09728      0.00000     0.40149    0.00123     0.40272
      H   25    0.09651      0.00000     0.40255    0.00094     0.40349
      H   26    0.10464      0.00000     0.39447    0.00089     0.39536
      H   27    0.09572      0.00000     0.40337    0.00092     0.40428
      H   28    0.09794      0.00000     0.40118    0.00088     0.40206
      H   29    0.09660      0.00000     0.40229    0.00111     0.40340
      H   30    0.10227      0.00000     0.39664    0.00109     0.39773
      H   31    0.10361      0.00000     0.39533    0.00106     0.39639
      H   32    0.10175      0.00000     0.39731    0.00094     0.39825
      H   33    0.10622      0.00000     0.39286    0.00091     0.39378
      H   34    0.19130      0.00000     0.30039    0.00831     0.30870
      H   35    0.19216      0.00000     0.29765    0.01019     0.30784
 =======================================================================
   * Total *    0.00000     17.99399    39.81911    0.18690    58.00000

 Normal termination of Gaussian 16 at Thu Dec 10 10:43:32 2020.
