 Gaussian 16, Revision A.03,

 -----------------------------------------------------------
 # opt freq B3LYP/6-31G(d) empiricaldispersion=gd3bj scf=xqc
 -----------------------------------------------------------

 ------------------------------
 CID_65920968_JID_5385_neutraal
 ------------------------------
 Symbolic Z-matrix:
 Charge =  0 Multiplicity = 1

 SCF Done:  E(RB3LYP) =  -640.472959423     A.U. after   13 cycles
 SCF Done:  E(RB3LYP) =  -640.474777701     A.U. after   11 cycles
 SCF Done:  E(RB3LYP) =  -640.472494283     A.U. after   11 cycles
 SCF Done:  E(RB3LYP) =  -640.476579727     A.U. after   10 cycles
 SCF Done:  E(RB3LYP) =  -640.477417217     A.U. after   11 cycles
 SCF Done:  E(RB3LYP) =  -640.477685582     A.U. after   10 cycles
 SCF Done:  E(RB3LYP) =  -640.477730904     A.U. after   10 cycles
 SCF Done:  E(RB3LYP) =  -640.477742379     A.U. after    9 cycles
 SCF Done:  E(RB3LYP) =  -640.477744947     A.U. after    8 cycles
 SCF Done:  E(RB3LYP) =  -640.477745611     A.U. after    7 cycles
 SCF Done:  E(RB3LYP) =  -640.477745740     A.U. after    7 cycles
 Optimization completed.
    -- Stationary point found.
 Normal termination of Gaussian 16 at Thu Dec 10 15:55:16 2020.

 --------------------------------------------------------------------
 #N Geom=AllCheck Guess=TCheck SCRF=Check GenChk RB3LYP/6-31G(d) Freq
 --------------------------------------------------------------------

 Structure from the checkpoint file:  "JID_5385.chk"
 ------------------------------
 CID_65920968_JID_5385_neutraal
 ------------------------------
 Charge =  0 Multiplicity = 1

 SCF Done:  E(RB3LYP) =  -640.477745740     A.U. after    1 cycles

  Exact polarizability: 159.267  -2.293 143.477  -1.437   2.448 123.904
 Approx polarizability: 196.304  -0.892 195.694  -3.240   1.857 195.432

                      1                      2                      3
                      A                      A                      A
 Frequencies --     41.2262                77.1969                92.4796
 Red. masses --      3.3466                 3.2430                 2.4337
 Frc consts  --      0.0034                 0.0114                 0.0123
 IR Inten    --      0.2762                 0.9987                 1.2706

                      4                      5                      6
                      A                      A                      A
 Frequencies --     98.9466               130.8915               142.9060
 Red. masses --      3.2688                 2.9465                 2.4506
 Frc consts  --      0.0189                 0.0297                 0.0295
 IR Inten    --      0.7072                 2.2728                 2.7399

                      7                      8                      9
                      A                      A                      A
 Frequencies --    172.8119               216.3953               235.2239
 Red. masses --      2.1688                 1.5232                 1.3008
 Frc consts  --      0.0382                 0.0420                 0.0424
 IR Inten    --      1.6397                 0.8533                 1.3415

                     10                     11                     12
                      A                      A                      A
 Frequencies --    249.4430               261.6360               291.7471
 Red. masses --      1.7195                 3.0711                 1.9295
 Frc consts  --      0.0630                 0.1239                 0.0968
 IR Inten    --      0.6473                 1.7216                 3.5767

                     13                     14                     15
                      A                      A                      A
 Frequencies --    304.0757               318.2238               343.0800
 Red. masses --      2.6660                 2.1600                 2.2105
 Frc consts  --      0.1452                 0.1289                 0.1533
 IR Inten    --      0.2890                 1.1725                 0.9762

                     16                     17                     18
                      A                      A                      A
 Frequencies --    370.7271               419.1447               427.8006
 Red. masses --      2.5318                 3.2207                 2.9320
 Frc consts  --      0.2050                 0.3334                 0.3162
 IR Inten    --      2.5164                 0.0176                 0.3525

                     19                     20                     21
                      A                      A                      A
 Frequencies --    455.8604               465.5253               518.4654
 Red. masses --      2.0863                 2.1643                 2.1446
 Frc consts  --      0.2554                 0.2763                 0.3397
 IR Inten    --      1.0701                 2.6913                 1.3832

                     22                     23                     24
                      A                      A                      A
 Frequencies --    522.9058               542.7362               640.1806
 Red. masses --      2.9350                 2.9981                 3.1285
 Frc consts  --      0.4728                 0.5203                 0.7554
 IR Inten    --      2.8510                 6.9823                 0.9296

                     25                     26                     27
                      A                      A                      A
 Frequencies --    732.4418               747.7065               783.3216
 Red. masses --      2.7870                 1.8711                 2.4821
 Frc consts  --      0.8809                 0.6163                 0.8973
 IR Inten    --     20.8460                32.3555                41.2508

                     28                     29                     30
                      A                      A                      A
 Frequencies --    804.0701               847.5119               864.7818
 Red. masses --      2.1186                 2.4315                 1.8042
 Frc consts  --      0.8070                 1.0290                 0.7950
 IR Inten    --      2.5571                 1.4321                 0.9712

                     31                     32                     33
                      A                      A                      A
 Frequencies --    875.0090               889.7582               895.9959
 Red. masses --      1.6634                 2.0200                 2.1423
 Frc consts  --      0.7504                 0.9422                 1.0133
 IR Inten    --     16.1990                18.8499                 0.9788

                     34                     35                     36
                      A                      A                      A
 Frequencies --    916.2512               944.8337               959.6909
 Red. masses --      1.9458                 2.1717                 2.2213
 Frc consts  --      0.9625                 1.1422                 1.2054
 IR Inten    --      7.6401                 0.0954                 0.3634

                     37                     38                     39
                      A                      A                      A
 Frequencies --    977.2297               986.4673               998.5491
 Red. masses --      1.5326                 1.7513                 1.6998
 Frc consts  --      0.8623                 1.0041                 0.9986
 IR Inten    --     10.6456                 1.8632                 1.6245

                     40                     41                     42
                      A                      A                      A
 Frequencies --   1010.3777              1046.2507              1055.8180
 Red. masses --      1.7191                 1.7290                 2.1496
 Frc consts  --      1.0340                 1.1151                 1.4119
 IR Inten    --      1.3292                 7.1875                 5.7186

                     43                     44                     45
                      A                      A                      A
 Frequencies --   1070.6376              1089.5547              1101.0171
 Red. masses --      1.6012                 2.0058                 2.0254
 Frc consts  --      1.0814                 1.4029                 1.4466
 IR Inten    --      4.6595                 2.9383                60.9257

                     46                     47                     48
                      A                      A                      A
 Frequencies --   1109.1485              1117.8012              1124.5787
 Red. masses --      1.2809                 2.0676                 3.0179
 Frc consts  --      0.9284                 1.5221                 2.2487
 IR Inten    --     14.6420                 8.4153                33.2572

                     49                     50                     51
                      A                      A                      A
 Frequencies --   1137.3264              1156.9115              1177.6300
 Red. masses --      2.0268                 2.6141                 1.5676
 Frc consts  --      1.5446                 2.0615                 1.2809
 IR Inten    --     11.0795                23.7558                12.8757

                     52                     53                     54
                      A                      A                      A
 Frequencies --   1179.5274              1197.1389              1209.9274
 Red. masses --      1.9413                 2.1785                 1.8379
 Frc consts  --      1.5913                 1.8395                 1.5852
 IR Inten    --      4.5009                 0.5359                 2.9256

                     55                     56                     57
                      A                      A                      A
 Frequencies --   1239.4651              1255.7611              1277.9670
 Red. masses --      1.4689                 1.4268                 1.4758
 Frc consts  --      1.3296                 1.3257                 1.4201
 IR Inten    --     21.5137                12.2299                42.7395

                     58                     59                     60
                      A                      A                      A
 Frequencies --   1293.7207              1305.1052              1328.6140
 Red. masses --      1.3993                 1.3321                 1.1883
 Frc consts  --      1.3799                 1.3368                 1.2359
 IR Inten    --      1.5937                 2.4845                 1.1870

                     61                     62                     63
                      A                      A                      A
 Frequencies --   1331.8734              1335.4273              1345.6429
 Red. masses --      1.3462                 1.1934                 1.3144
 Frc consts  --      1.4070                 1.2539                 1.4023
 IR Inten    --     19.6702                 4.8846                 0.4222

                     64                     65                     66
                      A                      A                      A
 Frequencies --   1356.2483              1372.5929              1383.2880
 Red. masses --      1.2599                 1.4321                 1.3337
 Frc consts  --      1.3654                 1.5897                 1.5036
 IR Inten    --      0.9649                 7.9267                 0.1895

                     67                     68                     69
                      A                      A                      A
 Frequencies --   1387.3528              1392.7060              1400.3188
 Red. masses --      1.3231                 1.3741                 1.4461
 Frc consts  --      1.5004                 1.5703                 1.6708
 IR Inten    --      8.0722                 0.5131                 4.6978

                     70                     71                     72
                      A                      A                      A
 Frequencies --   1404.1489              1408.0377              1412.2062
 Red. masses --      1.3630                 1.4081                 1.4599
 Frc consts  --      1.5833                 1.6448                 1.7155
 IR Inten    --      2.3595                 7.8925                 0.6080

                     73                     74                     75
                      A                      A                      A
 Frequencies --   1421.6133              1430.5092              1438.8339
 Red. masses --      1.5408                 1.3668                 1.2437
 Frc consts  --      1.8347                 1.6479                 1.5170
 IR Inten    --      0.4530                12.1262                 3.2602

                     76                     77                     78
                      A                      A                      A
 Frequencies --   1449.6517              1482.6209              1499.2056
 Red. masses --      1.3288                 1.1667                 1.0921
 Frc consts  --      1.6453                 1.5111                 1.4462
 IR Inten    --      2.9333                 2.8202                 4.0340

                     79                     80                     81
                      A                      A                      A
 Frequencies --   1508.2206              1513.6924              1516.4917
 Red. masses --      1.1105                 1.0923                 1.1041
 Frc consts  --      1.4883                 1.4746                 1.4960
 IR Inten    --     11.3075                 1.1787                 6.7469

                     82                     83                     84
                      A                      A                      A
 Frequencies --   1519.0410              1524.9872              1526.7224
 Red. masses --      1.1546                 1.0653                 1.0957
 Frc consts  --      1.5698                 1.4596                 1.5047
 IR Inten    --     11.1479                 6.9275                 0.2751

                     85                     86                     87
                      A                      A                      A
 Frequencies --   1528.5387              1530.9593              1540.3659
 Red. masses --      1.0472                 1.0611                 1.0883
 Frc consts  --      1.4416                 1.4654                 1.5214
 IR Inten    --      6.0286                 3.3626                 0.7495

                     88                     89                     90
                      A                      A                      A
 Frequencies --   1545.4532              1554.0492              2966.6410
 Red. masses --      1.0628                 1.0752                 1.0592
 Frc consts  --      1.4957                 1.5300                 5.4923
 IR Inten    --      8.1932                 7.3280                85.8872

                     91                     92                     93
                      A                      A                      A
 Frequencies --   2979.7994              2993.5314              2996.9503
 Red. masses --      1.0814                 1.0746                 1.0771
 Frc consts  --      5.6574                 5.6737                 5.6997
 IR Inten    --     13.1691                27.3070                22.0581

                     94                     95                     96
                      A                      A                      A
 Frequencies --   3013.5354              3021.4505              3023.8967
 Red. masses --      1.0664                 1.0656                 1.0642
 Frc consts  --      5.7058                 5.7317                 5.7333
 IR Inten    --     14.1631                 3.8016                76.1757

                     97                     98                     99
                      A                      A                      A
 Frequencies --   3029.8508              3036.3768              3039.3681
 Red. masses --      1.0812                 1.0379                 1.0732
 Frc consts  --      5.8481                 5.6381                 5.8412
 IR Inten    --      8.4311                57.4022                 5.3245

                    100                    101                    102
                      A                      A                      A
 Frequencies --   3041.3638              3050.0147              3061.4650
 Red. masses --      1.0689                 1.0650                 1.0720
 Frc consts  --      5.8252                 5.8374                 5.9198
 IR Inten    --     36.2639                38.2556                76.7936

                    103                    104                    105
                      A                      A                      A
 Frequencies --   3063.7030              3068.9710              3073.3986
 Red. masses --      1.0970                 1.0974                 1.0743
 Frc consts  --      6.0664                 6.0896                 5.9786
 IR Inten    --     51.9244                55.0913                48.3548

                    106                    107                    108
                      A                      A                      A
 Frequencies --   3085.1352              3090.8281              3097.1444
 Red. masses --      1.1013                 1.1023                 1.0977
 Frc consts  --      6.1762                 6.2045                 6.2036
 IR Inten    --     54.3955                42.4701                 3.1180

                    109                    110                    111
                      A                      A                      A
 Frequencies --   3098.5758              3102.2253              3105.1632
 Red. masses --      1.0939                 1.0985                 1.0991
 Frc consts  --      6.1883                 6.2288                 6.2437
 IR Inten    --     73.0178                19.0905                48.4119

                    112                    113                    114
                      A                      A                      A
 Frequencies --   3108.0564              3119.6618              3530.9926
 Red. masses --      1.1019                 1.1025                 1.0732
 Frc consts  --      6.2714                 6.3216                 7.8837
 IR Inten    --     37.9961                29.7448                 0.4840

 - Thermochemistry -
 -------------------
 Temperature   298.150 Kelvin.  Pressure   1.00000 Atm.
 Atom     1 has atomic number  6 and mass  12.00000

 Molecular mass:   211.19361 amu.
 Principal axes and moments of inertia in atomic units:
                           1         2         3
     Eigenvalues --  2082.075044432.762975660.58666
           X            0.99998  -0.00590  -0.00045
           Y            0.00590   0.99984   0.01665
           Z            0.00035  -0.01665   0.99986
 This molecule is an asymmetric top.
 Rotational symmetry number  1.
 Warning -- assumption of classical behavior for rotation
           may cause significant error
 Rotational temperatures (Kelvin)      0.04160     0.01954     0.01530
 Rotational constants (GHZ):           0.86680     0.40714     0.31883
 Zero-point vibrational energy     980378.1 (Joules/Mol)
                                  234.31600 (Kcal/Mol)
 Warning -- explicit consideration of  23 degrees of freedom as
           vibrations may cause significant error
 Vibrational temperatures:     59.32   111.07   133.06   142.36   188.32
          (Kelvin)            205.61   248.64   311.34   338.43   358.89
                              376.44   419.76   437.50   457.85   493.62
                              533.39   603.06   615.51   655.88   669.79
                              745.96   752.34   780.88   921.08  1053.82
                             1075.78  1127.03  1156.88  1219.38  1244.23
                             1258.94  1280.16  1289.14  1318.28  1359.40
                             1380.78  1406.02  1419.31  1436.69  1453.71
                             1505.32  1519.09  1540.41  1567.63  1584.12
                             1595.82  1608.27  1618.02  1636.36  1664.54
                             1694.35  1697.08  1722.42  1740.82  1783.31
                             1806.76  1838.71  1861.38  1877.76  1911.58
                             1916.27  1921.38  1936.08  1951.34  1974.86
                             1990.24  1996.09  2003.79  2014.75  2020.26
                             2025.85  2031.85  2045.38  2058.18  2070.16
                             2085.73  2133.16  2157.02  2169.99  2177.87
                             2181.89  2185.56  2194.12  2196.61  2199.23
                             2202.71  2216.24  2223.56  2235.93  4268.33
                             4287.27  4307.02  4311.94  4335.81  4347.19
                             4350.71  4359.28  4368.67  4372.97  4375.84
                             4388.29  4404.77  4407.99  4415.56  4421.94
                             4438.82  4447.01  4456.10  4458.16  4463.41
                             4467.64  4471.80  4488.50  5080.31

 Zero-point correction=                           0.373406 (Hartree/Particle)
 Thermal correction to Energy=                    0.388603
 Thermal correction to Enthalpy=                  0.389547
 Thermal correction to Gibbs Free Energy=         0.331764
 Sum of electronic and zero-point Energies=           -640.104339
 Sum of electronic and thermal Energies=              -640.089143
 Sum of electronic and thermal Enthalpies=            -640.088199
 Sum of electronic and thermal Free Energies=         -640.145981

                     E (Thermal)             CV                S
                      KCal/Mol        Cal/Mol-Kelvin    Cal/Mol-Kelvin
 Total                  243.852             60.414            121.613
 Electronic               0.000              0.000              0.000
 Translational            0.889              2.981             41.946
 Rotational               0.889              2.981             32.324
 Vibrational            242.074             54.452             47.343
 Vibration     1          0.594              1.981              5.199
 Vibration     2          0.599              1.964              3.961
 Vibration     3          0.602              1.955              3.607
 Vibration     4          0.604              1.950              3.475
 Vibration     5          0.612              1.922              2.933
 Vibration     6          0.616              1.910              2.765
 Vibration     7          0.626              1.876              2.405
 Vibration     8          0.645              1.816              1.989
 Vibration     9          0.655              1.787              1.839
 Vibration    10          0.662              1.764              1.735
 Vibration    11          0.669              1.743              1.651
 Vibration    12          0.687              1.689              1.464
 Vibration    13          0.695              1.666              1.394
 Vibration    14          0.705              1.639              1.319
 Vibration    15          0.722              1.589              1.198
 Vibration    16          0.743              1.532              1.077
 Vibration    17          0.782              1.429              0.895
 Vibration    18          0.789              1.410              0.866
 Vibration    19          0.814              1.348              0.778
 Vibration    20          0.823              1.327              0.750
 Vibration    21          0.873              1.209              0.614
 Vibration    22          0.878              1.199              0.603
 Vibration    23          0.898              1.156              0.559

 Optimization completed.
    -- Stationary point found.
 Normal termination of Gaussian 16 at Thu Dec 10 16:11:08 2020.

 ----------------------------------------------------------------------
 # B3LYP/6-311++G(d,p) empiricaldispersion=gd3bj scf=xqc pop=npa geom=c
 heck
 ----------------------------------------------------------------------

 --------------------------------------
 CID_65920968_JID_5385_Energie_neutraal
 --------------------------------------
 Structure from the checkpoint file:  "JID_5385.chk"
 Charge =  0 Multiplicity = 1

 SCF Done:  E(RB3LYP) =  -640.655512506     A.U. after   14 cycles
 Normal termination of Gaussian 16 at Thu Dec 10 16:19:07 2020.

 ----------------------------------------------------------------------
 # B3LYP/6-311++G(d,p) empiricaldispersion=gd3bj scf=xqc pop=npa geom=c
 heck
 ----------------------------------------------------------------------

 ------------------------------------
 CID_65920968_JID_5385_Energie_kation
 ------------------------------------
 Structure from the checkpoint file:  "JID_5385.chk"
 Charge =  1 Multiplicity = 2

 SCF Done:  E(UB3LYP) =  -640.356755671     A.U. after   22 cycles
 Normal termination of Gaussian 16 at Thu Dec 10 16:41:11 2020.
 Gaussian 16:  ES64L-G16RevA.03 25-Dec-2016

 ----------------------------------------------------------------------
 # B3LYP/6-311++G(d,p) empiricaldispersion=gd3bj scf=xqc pop=npa geom=c
 heck
 ----------------------------------------------------------------------

 -----------------------------------
 CID_65920968_JID_5385_Energie_anion
 -----------------------------------
 Structure from the checkpoint file:  "JID_5385.chk"
 Charge = -1 Multiplicity = 2

                         Standard orientation:
 ---------------------------------------------------------------------
 Center     Atomic      Atomic             Coordinates (Angstroms)
 Number     Number       Type             X           Y           Z
 ---------------------------------------------------------------------
      1          6           0        2.417365    2.697732    0.325249
      2          6           0        2.397093    1.272402   -0.232175
      3          6           0        3.438024    0.377180    0.454077
      4          6           0        3.401474   -1.053134   -0.095140
      5          6           0        1.997074   -1.657012    0.012803
      6          6           0        0.935859   -0.778003   -0.670380
      7          6           0        0.993887    0.653119   -0.116741
      8          6           0       -0.436020   -1.492049   -0.651153
      9          6           0       -1.598055   -0.782977   -1.392754
     10          6           0       -2.594173    0.039973   -0.546388
     11          6           0       -2.911052   -0.738474    0.745604
     12          6           0       -1.615230   -1.116535    1.453099
     13          8           0       -0.806313   -1.965587    0.653286
     14          7           0       -2.152355    1.422606   -0.323716
     15          6           0       -3.225667    2.331584    0.063367
     16          1           0        2.170664    2.700116    1.395016
     17          1           0        3.406691    3.156499    0.211951
     18          1           0        1.687690    3.336132   -0.186926
     19          1           0        2.650837    1.319064   -1.303391
     20          1           0        4.440734    0.808555    0.335979
     21          1           0        3.230191    0.357735    1.534992
     22          1           0        4.124912   -1.683558    0.436932
     23          1           0        3.713164   -1.041567   -1.149937
     24          1           0        1.722585   -1.776873    1.068219
     25          1           0        1.982756   -2.663875   -0.424894
     26          1           0        1.196543   -0.712761   -1.740374
     27          1           0        0.710495    0.648944    0.946610
     28          1           0        0.278211    1.290012   -0.646198
     29          1           0       -0.253091   -2.427395   -1.194524
     30          1           0       -2.189167   -1.569928   -1.876351
     31          1           0       -1.197769   -0.147505   -2.189505
     32          1           0       -3.511585    0.127393   -1.141795
     33          1           0       -3.548173   -0.145248    1.412810
     34          1           0       -3.457051   -1.658819    0.502961
     35          1           0       -1.066326   -0.210276    1.755205
     36          1           0       -1.815876   -1.686951    2.365268
     37          1           0       -1.425463    1.445076    0.385680
     38          1           0       -3.793182    2.034914    0.963604
     39          1           0       -2.804015    3.325485    0.244994
     40          1           0       -3.940262    2.418446   -0.763413
 ---------------------------------------------------------------------

 SCF Done:  E(UB3LYP) =  -640.640630976     A.U. after   29 cycles

 The electronic state is 2-A.
 Alpha  occ. eigenvalues --  -19.02000 -14.19618 -10.12050 -10.11560 -10.10020
 Alpha  occ. eigenvalues --  -10.08490 -10.07639 -10.07308 -10.07035 -10.06871
 Alpha  occ. eigenvalues --  -10.06687 -10.06482 -10.06362 -10.06351 -10.06296
 Alpha  occ. eigenvalues --   -0.93230  -0.80756  -0.74506  -0.68978  -0.68063
 Alpha  occ. eigenvalues --   -0.66340  -0.63638  -0.58288  -0.57292  -0.54621
 Alpha  occ. eigenvalues --   -0.53825  -0.50714  -0.48562  -0.46229  -0.43821
 Alpha  occ. eigenvalues --   -0.40939  -0.38217  -0.37315  -0.36844  -0.35920
 Alpha  occ. eigenvalues --   -0.35290  -0.34931  -0.34536  -0.33807  -0.32191
 Alpha  occ. eigenvalues --   -0.31274  -0.30240  -0.29346  -0.28864  -0.28483
 Alpha  occ. eigenvalues --   -0.27378  -0.27188  -0.25907  -0.25567  -0.24900
 Alpha  occ. eigenvalues --   -0.24348  -0.23725  -0.23006  -0.22519  -0.21327
 Alpha  occ. eigenvalues --   -0.20307  -0.18788  -0.15270  -0.12647   0.04305
 Alpha virt. eigenvalues --    0.06078   0.06473   0.07208   0.07951   0.08118
 Alpha virt. eigenvalues --    0.08333   0.09466   0.09700   0.10315   0.10387
 Alpha virt. eigenvalues --    0.10762   0.11231   0.11457   0.12079   0.12871

  Beta  occ. eigenvalues --  -19.01998 -14.19608 -10.12044 -10.11545 -10.10010
  Beta  occ. eigenvalues --  -10.08452 -10.07633 -10.07303 -10.07026 -10.06860
  Beta  occ. eigenvalues --  -10.06673 -10.06459 -10.06355 -10.06329 -10.06289
  Beta  occ. eigenvalues --   -0.93220  -0.80737  -0.74491  -0.68956  -0.68030
  Beta  occ. eigenvalues --   -0.66318  -0.63614  -0.58251  -0.57231  -0.54582
  Beta  occ. eigenvalues --   -0.53778  -0.50684  -0.48527  -0.46196  -0.43786
  Beta  occ. eigenvalues --   -0.40891  -0.38187  -0.37284  -0.36815  -0.35884
  Beta  occ. eigenvalues --   -0.35260  -0.34910  -0.34504  -0.33780  -0.32173
  Beta  occ. eigenvalues --   -0.31244  -0.30207  -0.29319  -0.28826  -0.28454
  Beta  occ. eigenvalues --   -0.27351  -0.27155  -0.25882  -0.25544  -0.24872
  Beta  occ. eigenvalues --   -0.24322  -0.23698  -0.22975  -0.22496  -0.21305
  Beta  occ. eigenvalues --   -0.20289  -0.18768  -0.15254  -0.12623
  Beta virt. eigenvalues --    0.06201   0.06899   0.07072   0.07552   0.08378
  Beta virt. eigenvalues --    0.08652   0.08819   0.09715   0.10037   0.10673
  Beta virt. eigenvalues --    0.10839   0.11114   0.11438   0.11689   0.12298

 Mulliken charges and spin densities:
               1          2
     1  C    0.443086  -1.122377
     2  C   -0.638222   0.910626
     3  C   -0.225707  -0.170581
     4  C   -0.062711  -0.356396
     5  C   -0.218410  -0.193111
     6  C   -0.068714   0.533622
     7  C    0.238030  -1.105073
     8  C    0.168324  -0.048621
     9  C   -0.071973  -0.603804
    10  C   -1.002761   1.010186
    11  C    1.228127  -1.962066
    12  C   -0.274051   0.131377
    13  O   -0.080078   0.008315
    14  N   -0.039415  -0.008251
    15  C    0.983201  -1.309540
    16  H   -0.116695   0.252028
    17  H   -0.143635   0.293028
    18  H   -0.074816   0.215803
    19  H   -0.119367   0.295496
    20  H   -0.077905   0.236427
    21  H    0.038572   0.092474
    22  H   -0.039689   0.203799
    23  H    0.036109   0.088140
    24  H    0.217495  -0.036061
    25  H   -0.116603   0.258021
    26  H   -0.034553   0.194477
    27  H    0.183817  -0.107733
    28  H    0.466528  -0.319016
    29  H    0.076863   0.148372
    30  H   -0.350761   0.519112
    31  H    0.037744   0.152809
    32  H   -0.224255   0.417583
    33  H   -0.159276   0.304968
    34  H    0.004896   0.154766
    35  H   -0.131794   0.251804
    36  H   -0.302713   0.497118
    37  H    0.284635  -0.051217
    38  H   -0.253347   0.380755
    39  H   -0.266536   0.393146
    40  H   -0.313441   0.449596
 Sum of Mulliken charges =  -1.00000   1.00000

 Dipole moment (field-independent basis, Debye):
    X=              3.4948    Y=             -1.9067    Z=             -0.0928  Tot=              3.9822
 Quadrupole moment (field-independent basis, Debye-Ang):
   XX=           -175.8114   YY=           -152.3467   ZZ=           -133.0859
   XY=              0.9528   XZ=              1.2853   YZ=             -1.5505

 Summary of Natural Population Analysis:

                                       Natural Population
                Natural  -----------------------------------------------
    Atom  No    Charge         Core      Valence    Rydberg      Total
 -----------------------------------------------------------------------
      C    1   -0.28250      0.99965     2.27702    0.00583     3.28250
      C    2   -0.10840      0.99960     2.10008    0.00872     3.10840
      C    3   -0.18751      0.99961     2.17967    0.00823     3.18751
      C    4   -0.18719      0.99963     2.17971    0.00785     3.18719
      C    5   -0.18958      0.99961     2.18041    0.00956     3.18958
      C    6   -0.11476      0.99956     2.10535    0.00986     3.11476
      C    7   -0.19926      0.99959     2.19099    0.00869     3.19926
      C    8    0.07421      0.99950     1.91009    0.01620     2.92579
      C    9   -0.20538      0.99959     2.19549    0.01031     3.20538
      C   10   -0.00776      0.99957     1.99438    0.01380     3.00776
      C   11   -0.21293      0.99960     2.20454    0.00879     3.21293
      C   12   -0.00921      0.99956     1.99678    0.01287     3.00921
      O   13   -0.30784      0.99988     3.29871    0.00925     4.30784
      N   14   -0.34583      0.99974     2.83386    0.01223     3.84583
      C   15   -0.17677      0.99965     2.16894    0.00818     3.17677
      H   16    0.09610      0.00000     0.40291    0.00100     0.40390
      H   17    0.09790      0.00000     0.40121    0.00089     0.40210
      H   18    0.10063      0.00000     0.39836    0.00100     0.39937
      H   19    0.09060      0.00000     0.40770    0.00169     0.40940
      H   20    0.09778      0.00000     0.40128    0.00094     0.40222
      H   21    0.09222      0.00000     0.40656    0.00122     0.40778
      H   22    0.09606      0.00000     0.40310    0.00084     0.40394
      H   23    0.09150      0.00000     0.40719    0.00131     0.40850
      H   24    0.10028      0.00000     0.39832    0.00140     0.39972
      H   25    0.09853      0.00000     0.40052    0.00095     0.40147
      H   26    0.09443      0.00000     0.40372    0.00185     0.40557
      H   27    0.09127      0.00000     0.40679    0.00194     0.40873
      H   28    0.10876      0.00000     0.38880    0.00244     0.39124
      H   29    0.09053      0.00000     0.40803    0.00144     0.40947
      H   30    0.10250      0.00000     0.39637    0.00113     0.39750
      H   31    0.10747      0.00000     0.39103    0.00150     0.39253
      H   32    0.09651      0.00000     0.40153    0.00196     0.40349
      H   33    0.10374      0.00000     0.39491    0.00135     0.39626
      H   34    0.10100      0.00000     0.39764    0.00136     0.39900
      H   35    0.07290      0.00000     0.42513    0.00197     0.42710
      H   36    0.09138      0.00000     0.40741    0.00121     0.40862
      H   37    0.17231      0.00000     0.32327    0.00441     0.32769
      H   38    0.07954      0.00000     0.41868    0.00178     0.42046
      H   39    0.09532      0.00000     0.40370    0.00099     0.40468
      H   40    0.09148      0.00000     0.40703    0.00149     0.40852
 =======================================================================
   * Total *    0.00000     14.99435    43.81724    0.18842    59.00000

 Normal termination of Gaussian 16 at Thu Dec 10 17:06:53 2020.
