 Gaussian 16, Revision A.03,

 -----------------------------------------------------------
 # opt freq B3LYP/6-31G(d) empiricaldispersion=gd3bj scf=xqc
 -----------------------------------------------------------

 ------------------------------
 CID_130591104_JID_568_neutraal
 ------------------------------
 Symbolic Z-matrix:
 Charge =  0 Multiplicity = 1

 SCF Done:  E(RB3LYP) =  -463.762417576     A.U. after   14 cycles
 SCF Done:  E(RB3LYP) =  -463.764311991     A.U. after   12 cycles
 SCF Done:  E(RB3LYP) =  -463.758877025     A.U. after   14 cycles
 SCF Done:  E(RB3LYP) =  -463.764853835     A.U. after   12 cycles
 SCF Done:  E(RB3LYP) =  -463.764978313     A.U. after   11 cycles
 SCF Done:  E(RB3LYP) =  -463.765069033     A.U. after   12 cycles
 SCF Done:  E(RB3LYP) =  -463.765113987     A.U. after   11 cycles
 SCF Done:  E(RB3LYP) =  -463.765153941     A.U. after   11 cycles
 SCF Done:  E(RB3LYP) =  -463.765165261     A.U. after   10 cycles
 SCF Done:  E(RB3LYP) =  -463.765166539     A.U. after    8 cycles
 Optimization completed.
    -- Stationary point found.

 1\1\GINC-NODE377\FOpt\RB3LYP\6-31G(d)\C8H14O2\VSC10255\08-Dec-2020\0\\
 # opt freq B3LYP/6-31G(d) empiricaldispersion=gd3bj scf=xqc\\CID_13059
 1104_JID_568_neutraal\\0,1\C,0.9976905526,0.088937385,0.0571452412\C,0
 .1234119523,1.3103956655,0.3751778551\C,0.8500703992,2.6405239941,0.09
 65487076\C,1.0243883556,2.9181849128,-1.4024528609\C,-0.342973843,2.90
 48117085,-2.1232249046\C,-1.0563177141,1.5543052221,-1.8843727921\C,-1
 .2182983885,1.2848394612,-0.3825185912\C,-0.1195968922,3.0891719653,-3
 .6092738354\O,-0.5910244405,4.0260184188,-4.2226106062\O,-1.1491942791

 Normal termination of Gaussian 16 at Tue Dec  8 14:10:33 2020.

 --------------------------------------------------------------------
 #N Geom=AllCheck Guess=TCheck SCRF=Check GenChk RB3LYP/6-31G(d) Freq
 --------------------------------------------------------------------

 Structure from the checkpoint file:  "JID_568.chk"
 ------------------------------
 CID_130591104_JID_568_neutraal
 ------------------------------
 Charge =  0 Multiplicity = 1

 SCF Done:  E(RB3LYP) =  -463.765166539     A.U. after    1 cycles

  Exact polarizability: 101.465  -0.004  77.126  -1.320   0.002  79.374
 Approx polarizability: 136.796  -0.009 108.024  -5.119   0.002 121.734

                      1                      2                      3
                      A                      A                      A
 Frequencies --     74.8286                93.3814               183.9533
 Red. masses --      5.3523                 3.6011                 2.2715
 Frc consts  --      0.0177                 0.0185                 0.0453
 IR Inten    --      0.0324                 0.9570                 2.0803

                      4                      5                      6
                      A                      A                      A
 Frequencies --    210.2193               226.2115               294.1179
 Red. masses --      3.7911                 1.1223                 1.9335
 Frc consts  --      0.0987                 0.0338                 0.0985
 IR Inten    --      1.0928                 0.1216                 0.5070

                      7                      8                      9
                      A                      A                      A
 Frequencies --    311.6748               370.2778               374.4645
 Red. masses --      4.4018                 2.0078                 3.3392
 Frc consts  --      0.2519                 0.1622                 0.2759
 IR Inten    --     11.3322                11.0359                 7.3946

                     10                     11                     12
                      A                      A                      A
 Frequencies --    393.7962               396.5054               431.5826
 Red. masses --      1.6158                 2.0243                 2.6340
 Frc consts  --      0.1476                 0.1875                 0.2891
 IR Inten    --     44.7474                 2.0999                 0.9229

                     13                     14                     15
                      A                      A                      A
 Frequencies --    460.5432               514.7434               625.8999
 Red. masses --      1.8891                 2.2357                 2.8124
 Frc consts  --      0.2361                 0.3490                 0.6491
 IR Inten    --     17.3831                 5.0005                 5.5326

                     16                     17                     18
                      A                      A                      A
 Frequencies --    686.8635               770.4788               791.0948
 Red. masses --      2.4397                 2.9412                 1.5524
 Frc consts  --      0.6782                 1.0287                 0.5724
 IR Inten    --      4.9252                 0.7907                 0.3967

                     19                     20                     21
                      A                      A                      A
 Frequencies --    828.3477               874.0394               942.6130
 Red. masses --      4.7257                 2.4038                 2.3743
 Frc consts  --      1.9105                 1.0819                 1.2429
 IR Inten    --     29.8824                 0.9481                21.3218

                     22                     23                     24
                      A                      A                      A
 Frequencies --    948.8202               955.2187               986.9600
 Red. masses --      2.1482                 1.5297                 1.7213
 Frc consts  --      1.1395                 0.8223                 0.9879
 IR Inten    --      8.5593                 0.0257                 5.1252

                     25                     26                     27
                      A                      A                      A
 Frequencies --   1002.8075              1022.8245              1058.1817
 Red. masses --      1.7040                 1.7178                 1.8961
 Frc consts  --      1.0096                 1.0588                 1.2509
 IR Inten    --      1.0317                 1.1348                27.7671

                     28                     29                     30
                      A                      A                      A
 Frequencies --   1063.8613              1103.6600              1104.5955
 Red. masses --      2.0945                 1.4895                 2.1288
 Frc consts  --      1.3967                 1.0689                 1.5303
 IR Inten    --     42.8466                 2.3428                 6.8578

                     31                     32                     33
                      A                      A                      A
 Frequencies --   1172.9679              1200.7950              1217.3324
 Red. masses --      2.3254                 1.1297                 2.2901
 Frc consts  --      1.8850                 0.9597                 1.9995
 IR Inten    --      7.9751                 0.3269                 5.1942

                     34                     35                     36
                      A                      A                      A
 Frequencies --   1248.7315              1298.1511              1315.0067
 Red. masses --      1.5672                 1.3729                 1.5779
 Frc consts  --      1.4398                 1.3631                 1.6076
 IR Inten    --      0.0002                 2.3580                18.7365

                     37                     38                     39
                      A                      A                      A
 Frequencies --   1358.4363              1370.1770              1371.3913
 Red. masses --      1.2412                 1.4726                 1.4609
 Frc consts  --      1.3495                 1.6288                 1.6188
 IR Inten    --     41.7419                 0.0067                 0.0168

                     40                     41                     42
                      A                      A                      A
 Frequencies --   1394.5374              1395.0222              1405.0325
 Red. masses --      1.3735                 1.3401                 1.4553
 Frc consts  --      1.5738                 1.5366                 1.6927
 IR Inten    --      0.5387                41.6698                 3.4891

                     43                     44                     45
                      A                      A                      A
 Frequencies --   1419.8455              1443.1140              1449.7282
 Red. masses --      1.2844                 1.2968                 1.4826
 Frc consts  --      1.5256                 1.5912                 1.8359
 IR Inten    --      2.8819                 3.3120                42.6714

                     46                     47                     48
                      A                      A                      A
 Frequencies --   1501.0768              1510.6681              1513.0161
 Red. masses --      1.0823                 1.0749                 1.0885
 Frc consts  --      1.4368                 1.4453                 1.4681
 IR Inten    --      0.5158                 3.1230                 6.6464

                     49                     50                     51
                      A                      A                      A
 Frequencies --   1527.3699              1535.4161              1537.7368
 Red. masses --      1.0920                 1.0609                 1.0560
 Frc consts  --      1.5010                 1.4736                 1.4713
 IR Inten    --      1.4054                10.2487                 1.0818

                     52                     53                     54
                      A                      A                      A
 Frequencies --   1809.1286              2959.7991              3028.5742
 Red. masses --     10.2003                 1.0867                 1.0817
 Frc consts  --     19.6698                 5.6089                 5.8459
 IR Inten    --    172.4484                63.7917                18.1544

                     55                     56                     57
                      A                      A                      A
 Frequencies --   3040.6978              3043.0013              3047.3751
 Red. masses --      1.0621                 1.0491                 1.0530
 Frc consts  --      5.7859                 5.7236                 5.7616
 IR Inten    --      4.1176                 6.6725                54.4756

                     58                     59                     60
                      A                      A                      A
 Frequencies --   3049.6421              3057.7967              3087.7158
 Red. masses --      1.0622                 1.0623                 1.0997
 Frc consts  --      5.8202                 5.8519                 6.1775
 IR Inten    --     54.5977                32.4454                41.2892

                     61                     62                     63
                      A                      A                      A
 Frequencies --   3088.7292              3097.4636              3100.8630
 Red. masses --      1.1006                 1.1027                 1.1020
 Frc consts  --      6.1865                 6.2331                 6.2431
 IR Inten    --      4.8946                 1.8206                74.5840

                     64                     65                     66
                      A                      A                      A
 Frequencies --   3110.4458              3113.4968              3614.7236
 Red. masses --      1.1025                 1.1007                 1.0648
 Frc consts  --      6.2845                 6.2865                 8.1973
 IR Inten    --     34.9359                50.0109                77.9100

 - Thermochemistry -
 -------------------
 Temperature   298.150 Kelvin.  Pressure   1.00000 Atm.
 Atom     1 has atomic number  6 and mass  12.00000

 Molecular mass:   142.09938 amu.
 Principal axes and moments of inertia in atomic units:
                           1         2         3
     Eigenvalues --   688.631622077.260472130.36248
           X            0.99995   0.00000  -0.00978
           Y           -0.00000   1.00000   0.00017
           Z            0.00978  -0.00017   0.99995
 This molecule is an asymmetric top.
 Rotational symmetry number  1.
 Warning -- assumption of classical behavior for rotation
           may cause significant error
 Rotational temperatures (Kelvin)      0.12578     0.04170     0.04066
 Rotational constants (GHZ):           2.62076     0.86881     0.84715
 Zero-point vibrational energy     559478.9 (Joules/Mol)
                                  133.71867 (Kcal/Mol)
 Warning -- explicit consideration of  14 degrees of freedom as
           vibrations may cause significant error
 Vibrational temperatures:    107.66   134.36   264.67   302.46   325.47
          (Kelvin)            423.17   448.43   532.75   538.77   566.58
                              570.48   620.95   662.62   740.60   900.53
                              988.24  1108.55  1138.21  1191.81  1257.55
                             1356.21  1365.14  1374.35  1420.02  1442.82
                             1471.62  1522.49  1530.66  1587.92  1589.27
                             1687.64  1727.68  1751.47  1796.65  1867.75
                             1892.00  1954.49  1971.38  1973.13  2006.43
                             2007.13  2021.53  2042.84  2076.32  2085.84
                             2159.71  2173.51  2176.89  2197.54  2209.12
                             2212.46  2602.93  4258.49  4357.44  4374.89
                             4378.20  4384.49  4387.75  4399.49  4442.53
                             4443.99  4456.56  4461.45  4475.24  4479.63
                             5200.78

 Zero-point correction=                           0.213094 (Hartree/Particle)
 Thermal correction to Energy=                    0.223090
 Thermal correction to Enthalpy=                  0.224034
 Thermal correction to Gibbs Free Energy=         0.178369
 Sum of electronic and zero-point Energies=           -463.552072
 Sum of electronic and thermal Energies=              -463.542076
 Sum of electronic and thermal Enthalpies=            -463.541132
 Sum of electronic and thermal Free Energies=         -463.586797

                     E (Thermal)             CV                S
                      KCal/Mol        Cal/Mol-Kelvin    Cal/Mol-Kelvin
 Total                  139.991             39.117             96.110
 Electronic               0.000              0.000              0.000
 Translational            0.889              2.981             40.765
 Rotational               0.889              2.981             29.501
 Vibrational            138.214             33.156             25.844
 Vibration     1          0.599              1.966              4.022
 Vibration     2          0.602              1.954              3.588
 Vibration     3          0.631              1.862              2.288
 Vibration     4          0.642              1.825              2.042
 Vibration     5          0.650              1.801              1.909
 Vibration     6          0.689              1.685              1.450
 Vibration     7          0.700              1.651              1.353
 Vibration     8          0.742              1.533              1.079
 Vibration     9          0.746              1.524              1.061
 Vibration    10          0.761              1.483              0.986
 Vibration    11          0.763              1.478              0.976
 Vibration    12          0.793              1.401              0.853
 Vibration    13          0.818              1.338              0.765
 Vibration    14          0.870              1.217              0.622

 Optimization completed.
    -- Stationary point found.

 1\1\GINC-NODE377\Freq\RB3LYP\6-31G(d)\C8H14O2\VSC10255\08-Dec-2020\0\\
 #N Geom=AllCheck Guess=TCheck SCRF=Check GenChk RB3LYP/6-31G(d) Freq\\
 CID_130591104_JID_568_neutraal\\0,1\C,0.9976905526,0.088937385,0.05714
 52412\C,0.1234119523,1.3103956655,0.3751778551\C,0.8500703992,2.640523
 9941,0.0965487076\C,1.0243883556,2.9181849128,-1.4024528609\C,-0.34297
 3843,2.9048117085,-2.1232249046\C,-1.0563177141,1.5543052221,-1.884372
 7921\C,-1.2182983885,1.2848394612,-0.3825185912\C,-0.1195968922,3.0891
 719653,-3.6092738354\O,-0.5910244405,4.0260184188,-4.2226106062\O,-1.1

 Normal termination of Gaussian 16 at Tue Dec  8 14:16:46 2020.

 ----------------------------------------------------------------------
 # B3LYP/6-311++G(d,p) empiricaldispersion=gd3bj scf=xqc pop=npa geom=c
 heck
 ----------------------------------------------------------------------

 --------------------------------------
 CID_130591104_JID_568_Energie_neutraal
 --------------------------------------
 Structure from the checkpoint file:  "JID_568.chk"
 Charge =  0 Multiplicity = 1

 SCF Done:  E(RB3LYP) =  -463.907904500     A.U. after   13 cycles
 Normal termination of Gaussian 16 at Tue Dec  8 14:19:11 2020.

 ----------------------------------------------------------------------
 # B3LYP/6-311++G(d,p) empiricaldispersion=gd3bj scf=xqc pop=npa geom=c
 heck
 ----------------------------------------------------------------------

 ------------------------------------
 CID_130591104_JID_568_Energie_kation
 ------------------------------------
 Structure from the checkpoint file:  "JID_568.chk"
 Charge =  1 Multiplicity = 2

 SCF Done:  E(UB3LYP) =  -463.550959364     A.U. after   26 cycles
 Normal termination of Gaussian 16 at Tue Dec  8 14:25:46 2020.
 Gaussian 16:  ES64L-G16RevA.03 25-Dec-2016

 -----------------------------------
 CID_130591104_JID_568_Energie_anion
 -----------------------------------
 Structure from the checkpoint file:  "JID_568.chk"
 Charge = -1 Multiplicity = 2

                         Standard orientation:
 ---------------------------------------------------------------------
 Center     Atomic      Atomic             Coordinates (Angstroms)
 Number     Number       Type             X           Y           Z
 ---------------------------------------------------------------------
      1          6           0        2.749193    0.000317   -1.033325
      2          6           0        2.079184    0.000032    0.348180
      3          6           0        1.223330    1.259458    0.585392
      4          6           0       -0.064373    1.267006   -0.249026
      5          6           0       -0.904280   -0.000093    0.030949
      6          6           0       -0.064166   -1.267111   -0.249499
      7          6           0        1.223467   -1.259577    0.584983
      8          6           0       -2.115779    0.000005   -0.877070
      9          8           0       -3.250051    0.000330   -0.441715
     10          8           0       -1.337216   -0.000528    1.378877
     11          1           0        2.020287    0.000595   -1.851469
     12          1           0        3.382070   -0.885712   -1.160031
     13          1           0        3.382214    0.886306   -1.159562
     14          1           0        2.882246   -0.000036    1.097675
     15          1           0        0.940983    1.308359    1.643066
     16          1           0        1.808210    2.161016    0.364187
     17          1           0        0.170722    1.319631   -1.320392
     18          1           0       -0.669436    2.147184   -0.004094
     19          1           0        0.170963   -1.319336   -1.320863
     20          1           0       -0.669277   -2.147293   -0.004773
     21          1           0        1.808540   -2.160966    0.363571
     22          1           0        0.941146   -1.308836    1.642649
     23          1           0       -1.916186   -0.000161   -1.967840
     24          1           0       -2.313796    0.000607    1.337082
 ---------------------------------------------------------------------

 SCF Done:  E(UB3LYP) =  -463.897186204     A.U. after   33 cycles
 SCF Done:  E(UB3LYP) =  -463.897186204     a.u. after    1 cycles

 The electronic state is 2-A.
 Alpha  occ. eigenvalues --  -18.99713 -18.98185 -10.10478 -10.10204 -10.05523
 Alpha  occ. eigenvalues --  -10.05229 -10.04790 -10.04591 -10.04567 -10.03983
 Alpha  occ. eigenvalues --   -0.92901  -0.89163  -0.71690  -0.64619  -0.62948
 Alpha  occ. eigenvalues --   -0.57100  -0.50412  -0.49983  -0.45168  -0.42071
 Alpha  occ. eigenvalues --   -0.38741  -0.36497  -0.34307  -0.33698  -0.31586
 Alpha  occ. eigenvalues --   -0.31118  -0.28927  -0.27957  -0.26858  -0.26467
 Alpha  occ. eigenvalues --   -0.24830  -0.23910  -0.23223  -0.23198  -0.20187
 Alpha  occ. eigenvalues --   -0.19518  -0.19467  -0.15280  -0.13134   0.05253
 Alpha virt. eigenvalues --    0.07066   0.08687   0.09076   0.09553   0.10854
 Alpha virt. eigenvalues --    0.11491   0.11534   0.12297   0.12385   0.13756
 Alpha virt. eigenvalues --    0.13960   0.14555   0.15083   0.16424   0.17162

  Beta  occ. eigenvalues --  -18.99712 -18.97826 -10.10507 -10.09841 -10.05514
  Beta  occ. eigenvalues --  -10.05211 -10.04723 -10.04565 -10.04547 -10.03941
  Beta  occ. eigenvalues --   -0.92508  -0.88857  -0.71631  -0.64486  -0.62880
  Beta  occ. eigenvalues --   -0.56927  -0.50037  -0.49866  -0.44900  -0.41914
  Beta  occ. eigenvalues --   -0.38514  -0.36442  -0.34235  -0.33560  -0.31327
  Beta  occ. eigenvalues --   -0.30805  -0.28796  -0.27886  -0.26573  -0.25965
  Beta  occ. eigenvalues --   -0.24791  -0.23347  -0.23073  -0.22563  -0.20150
  Beta  occ. eigenvalues --   -0.19460  -0.19365  -0.15201  -0.12871
  Beta virt. eigenvalues --    0.07812   0.09319   0.09469   0.09876   0.10586
  Beta virt. eigenvalues --    0.11222   0.11702   0.11962   0.12626   0.12949
  Beta virt. eigenvalues --    0.14068   0.14175   0.15000   0.15249   0.16606

 Mulliken charges and spin densities:
               1          2
     1  C    1.957356  -2.678323
     2  C   -1.208189   1.625530
     3  C    0.327444  -0.807837
     4  C   -0.040478  -0.148234
     5  C   -0.658388   0.399174
     6  C    0.573725  -0.779912
     7  C   -0.359535  -0.101877
     8  C    0.163362  -0.032182
     9  O   -0.321431   0.097570
    10  O   -0.226602   0.029107
    11  H   -0.112007   0.238660
    12  H   -0.420203   0.555699
    13  H   -0.374655   0.517104
    14  H   -0.587125   0.780499
    15  H    0.132013   0.027967
    16  H   -0.285572   0.452341
    17  H    0.132800   0.015723
    18  H    0.172970  -0.005574
    19  H   -0.262260   0.421803
    20  H    0.151754   0.021960
    21  H   -0.108723   0.264889
    22  H    0.129597   0.027275
    23  H   -0.008977   0.068974
    24  H    0.233125   0.009664
 Sum of Mulliken charges =  -1.00000   1.00000

 Dipole moment (field-independent basis, Debye):
    X=             -3.1099    Y=              0.3251    Z=              1.5013  Tot=              3.4686
 Quadrupole moment (field-independent basis, Debye-Ang):
   XX=           -128.6964   YY=            -87.1982   ZZ=            -87.5552
   XY=             -3.8081   XZ=              2.0747   YZ=             -3.9498

 Summary of Natural Population Analysis:

                                       Natural Population
                Natural  -----------------------------------------------
    Atom  No    Charge         Core      Valence    Rydberg      Total
 -----------------------------------------------------------------------
      C    1   -0.28667      0.99965     2.28059    0.00643     3.28667
      C    2   -0.11174      0.99960     2.10133    0.01081     3.11174
      C    3   -0.18948      0.99961     2.17987    0.01000     3.18948
      C    4   -0.19174      0.99958     2.18244    0.00971     3.19174
      C    5    0.08261      0.99950     1.90144    0.01644     2.91739
      C    6   -0.19252      0.99959     2.18213    0.01080     3.19252
      C    7   -0.18745      0.99961     2.17855    0.00929     3.18745
      C    8    0.26623      0.99966     1.71239    0.02172     2.73377
      O    9   -0.27058      0.99988     3.26336    0.00734     4.27058
      O   10   -0.38761      0.99989     3.38101    0.00671     4.38761
      H   11    0.09465      0.00000     0.40391    0.00144     0.40535
      H   12    0.09904      0.00000     0.39937    0.00158     0.40096
      H   13    0.10035      0.00000     0.39783    0.00182     0.39965
      H   14    0.09536      0.00000     0.40275    0.00190     0.40464
      H   15    0.10149      0.00000     0.39722    0.00129     0.39851
      H   16    0.09842      0.00000     0.40047    0.00111     0.40158
      H   17    0.09667      0.00000     0.40192    0.00141     0.40333
      H   18    0.10024      0.00000     0.39870    0.00106     0.39976
      H   19    0.09911      0.00000     0.39940    0.00149     0.40089
      H   20    0.10205      0.00000     0.39688    0.00106     0.39795
      H   21    0.09590      0.00000     0.40320    0.00090     0.40410
      H   22    0.10057      0.00000     0.39804    0.00139     0.39943
      H   23    0.04686      0.00000     0.45113    0.00201     0.45314
      H   24    0.23823      0.00000     0.25842    0.00335     0.26177
 =======================================================================
   * Total *    0.00000      9.99656    28.87235    0.13108    39.00000

 Normal termination of Gaussian 16 at Tue Dec  8 14:33:06 2020.
