 Gaussian 16, Revision A.03,

 -----------------------------------------------------------
 # opt freq B3LYP/6-31G(d) empiricaldispersion=gd3bj scf=xqc
 -----------------------------------------------------------

 ------------------------------
 CID_78804433_JID_9733_neutraal
 ------------------------------
 Symbolic Z-matrix:
 Charge =  0 Multiplicity = 1

 SCF Done:  E(RB3LYP) =  -787.873649726     A.U. after   14 cycles
 SCF Done:  E(RB3LYP) =  -787.877073194     A.U. after   12 cycles
 SCF Done:  E(RB3LYP) =  -787.877516181     A.U. after   12 cycles
 SCF Done:  E(RB3LYP) =  -787.877711470     A.U. after   12 cycles
 SCF Done:  E(RB3LYP) =  -787.877850876     A.U. after   11 cycles
 SCF Done:  E(RB3LYP) =  -787.878144250     A.U. after   12 cycles
 SCF Done:  E(RB3LYP) =  -787.712279900     A.U. after   15 cycles
 SCF Done:  E(RB3LYP) =  -787.862088320     A.U. after   13 cycles
 SCF Done:  E(RB3LYP) =  -787.868857399     A.U. after   12 cycles
 SCF Done:  E(RB3LYP) =  -787.878153210     A.U. after    9 cycles
 SCF Done:  E(RB3LYP) =  -787.881172996     A.U. after    9 cycles
 SCF Done:  E(RB3LYP) =  -787.881173818     A.U. after    9 cycles
 SCF Done:  E(RB3LYP) =  -787.881173862     A.U. after    9 cycles
 SCF Done:  E(RB3LYP) =  -787.881173985     A.U. after    8 cycles
 SCF Done:  E(RB3LYP) =  -787.881173986     A.U. after    7 cycles
 Optimization completed.
    -- Stationary point found.
 Normal termination of Gaussian 16 at Mon Dec 14 14:24:30 2020.

 --------------------------------------------------------------------
 #N Geom=AllCheck Guess=TCheck SCRF=Check GenChk RB3LYP/6-31G(d) Freq
 --------------------------------------------------------------------

 Structure from the checkpoint file:  "JID_9733.chk"
 ------------------------------
 CID_78804433_JID_9733_neutraal
 ------------------------------
 Charge =  0 Multiplicity = 1

 SCF Done:  E(RB3LYP) =  -787.881173986     A.U. after    1 cycles

  Exact polarizability: 209.424   9.684 189.860  32.857 -13.227 138.551
 Approx polarizability: 278.713  18.038 303.852  58.638 -28.429 219.301

                      1                      2                      3
                      A                      A                      A
 Frequencies --     13.6639                24.1340                29.6813
 Red. masses --      4.2611                 4.2555                 3.8380
 Frc consts  --      0.0005                 0.0015                 0.0020
 IR Inten    --      0.0622                 0.0530                 0.5113

                      4                      5                      6
                      A                      A                      A
 Frequencies --     66.8702                68.8256                92.2588
 Red. masses --      3.6314                 3.8013                 1.0775
 Frc consts  --      0.0096                 0.0106                 0.0054
 IR Inten    --      0.4495                 0.5469                 0.0755

                      7                      8                      9
                      A                      A                      A
 Frequencies --    109.7455               147.5388               153.4613
 Red. masses --      3.3303                 1.1887                 2.6494
 Frc consts  --      0.0236                 0.0152                 0.0368
 IR Inten    --      0.3942                 0.7570                 1.0856

                     10                     11                     12
                      A                      A                      A
 Frequencies --    174.5923               186.6502               189.8068
 Red. masses --      1.0917                 2.8498                 2.6847
 Frc consts  --      0.0196                 0.0585                 0.0570
 IR Inten    --      0.2178                 1.1541                 3.7711

                     13                     14                     15
                      A                      A                      A
 Frequencies --    208.4236               224.9135               258.0095
 Red. masses --      3.4095                 2.4452                 2.5165
 Frc consts  --      0.0873                 0.0729                 0.0987
 IR Inten    --      0.9574                 1.2937                 3.0297

                     16                     17                     18
                      A                      A                      A
 Frequencies --    267.4676               287.7687               293.4870
 Red. masses --      2.6250                 2.2322                 2.9924
 Frc consts  --      0.1106                 0.1089                 0.1519
 IR Inten    --      3.4338                 0.9718                 3.9996

                     19                     20                     21
                      A                      A                      A
 Frequencies --    316.5693               345.8747               395.1169
 Red. masses --      2.8556                 3.2067                 2.7820
 Frc consts  --      0.1686                 0.2260                 0.2559
 IR Inten    --      1.5730                 0.6391                 3.7579

                     22                     23                     24
                      A                      A                      A
 Frequencies --    444.4317               462.9027               479.9566
 Red. masses --      2.9718                 3.2203                 2.7445
 Frc consts  --      0.3458                 0.4066                 0.3725
 IR Inten    --      1.1613                 5.1519                 4.0702

                     25                     26                     27
                      A                      A                      A
 Frequencies --    516.6485               533.6368               581.6472
 Red. masses --      3.3937                 4.1415                 3.6155
 Frc consts  --      0.5337                 0.6949                 0.7207
 IR Inten    --      0.4372                 0.2070                 0.2753

                     28                     29                     30
                      A                      A                      A
 Frequencies --    603.8340               624.8745               637.9747
 Red. masses --      4.1644                 4.4876                 4.9095
 Frc consts  --      0.8946                 1.0324                 1.1773
 IR Inten    --      1.2329                 1.8519                 2.4905

                     31                     32                     33
                      A                      A                      A
 Frequencies --    669.1238               683.6295               722.1827
 Red. masses --      2.9732                 4.1031                 3.0641
 Frc consts  --      0.7843                 1.1298                 0.9416
 IR Inten    --      5.3569                 0.6226                 4.8614

                     34                     35                     36
                      A                      A                      A
 Frequencies --    751.8312               767.1519               784.1010
 Red. masses --      1.4318                 1.2162                 1.6302
 Frc consts  --      0.4769                 0.4217                 0.5905
 IR Inten    --     45.0677                32.9695                12.6250

                     37                     38                     39
                      A                      A                      A
 Frequencies --    793.0827               793.9910               817.9453
 Red. masses --      2.3526                 1.6876                 3.1140
 Frc consts  --      0.8718                 0.6268                 1.2275
 IR Inten    --     15.6145                25.2658                 9.4677

                     40                     41                     42
                      A                      A                      A
 Frequencies --    844.6155               883.3634               890.9144
 Red. masses --      3.8493                 2.3782                 1.2867
 Frc consts  --      1.6179                 1.0934                 0.6017
 IR Inten    --      0.8246                16.1135                 0.5333

                     43                     44                     45
                      A                      A                      A
 Frequencies --    951.2254               966.7908               992.0801
 Red. masses --      1.3322                 1.8901                 1.2869
 Frc consts  --      0.7102                 1.0409                 0.7463
 IR Inten    --      2.7132                 2.7593                 0.7784

                     46                     47                     48
                      A                      A                      A
 Frequencies --    999.5342              1009.7415              1014.9587
 Red. masses --      1.6995                 1.4938                 1.7457
 Frc consts  --      1.0004                 0.8973                 1.0595
 IR Inten    --      6.4450                 1.5848                 4.8340

                     49                     50                     51
                      A                      A                      A
 Frequencies --   1020.2407              1035.3001              1052.3521
 Red. masses --      1.5971                 2.0517                 2.9649
 Frc consts  --      0.9795                 1.2957                 1.9345
 IR Inten    --      3.7187                 1.3306                 5.2942

                     52                     53                     54
                      A                      A                      A
 Frequencies --   1072.6996              1077.4105              1080.2826
 Red. masses --      1.5918                 1.4781                 1.6023
 Frc consts  --      1.0792                 1.0109                 1.1017
 IR Inten    --      1.9714                 1.5399                 5.2481

                     55                     56                     57
                      A                      A                      A
 Frequencies --   1081.8753              1084.7814              1125.9067
 Red. masses --      2.0295                 2.1527                 2.2061
 Frc consts  --      1.3996                 1.4925                 1.6477
 IR Inten    --      6.4524                 1.2145                11.5876

                     58                     59                     60
                      A                      A                      A
 Frequencies --   1140.4723              1157.8604              1177.0195
 Red. masses --      2.1710                 2.9269                 1.8898
 Frc consts  --      1.6637                 2.3119                 1.5425
 IR Inten    --      2.7571                10.5934                25.7602

                     61                     62                     63
                      A                      A                      A
 Frequencies --   1194.6790              1196.4436              1212.7869
 Red. masses --      2.0451                 1.1344                 2.0486
 Frc consts  --      1.7198                 0.9567                 1.7753
 IR Inten    --     17.4793                 0.0203                 0.7400

                     64                     65                     66
                      A                      A                      A
 Frequencies --   1231.0179              1246.7318              1256.7654
 Red. masses --      1.3499                 1.8661                 2.1875
 Frc consts  --      1.2053                 1.7090                 2.0357
 IR Inten    --      3.3476                 2.0900                 6.2156

                     67                     68                     69
                      A                      A                      A
 Frequencies --   1299.4783              1317.1143              1322.8539
 Red. masses --      1.3267                 1.5818                 1.9505
 Frc consts  --      1.3199                 1.6168                 2.0111
 IR Inten    --      7.6100                 5.8036                20.9613

                     70                     71                     72
                      A                      A                      A
 Frequencies --   1338.7320              1353.8861              1400.1970
 Red. masses --      1.8925                 2.6442                 1.4348
 Frc consts  --      1.9983                 2.8557                 1.6574
 IR Inten    --      5.5152                 3.4082                23.6158

                     73                     74                     75
                      A                      A                      A
 Frequencies --   1402.7268              1424.2984              1426.6693
 Red. masses --      1.4046                 1.5753                 1.4650
 Frc consts  --      1.6283                 1.8828                 1.7568
 IR Inten    --      5.9812                21.3484                 3.9031

                     76                     77                     78
                      A                      A                      A
 Frequencies --   1433.8149              1443.1866              1446.6531
 Red. masses --      1.2997                 2.2009                 1.2385
 Frc consts  --      1.5743                 2.7008                 1.5271
 IR Inten    --      0.6584                10.7674                 0.8608

                     79                     80                     81
                      A                      A                      A
 Frequencies --   1451.0554              1480.6307              1493.9173
 Red. masses --      1.2611                 2.2796                 1.8603
 Frc consts  --      1.5645                 2.9444                 2.4461
 IR Inten    --      4.2504                34.4425                 1.3309

                     82                     83                     84
                      A                      A                      A
 Frequencies --   1505.7384              1507.8400              1510.6937
 Red. masses --      1.6998                 1.3824                 1.1991
 Frc consts  --      2.2706                 1.8518                 1.6123
 IR Inten    --     25.7242                24.7734                11.3290

                     85                     86                     87
                      A                      A                      A
 Frequencies --   1514.1422              1514.9201              1517.0041
 Red. masses --      1.0445                 1.0808                 1.0862
 Frc consts  --      1.4109                 1.4615                 1.4728
 IR Inten    --      5.6262                 7.8504                 2.7782

                     88                     89                     90
                      A                      A                      A
 Frequencies --   1522.4848              1527.2840              1530.3683
 Red. masses --      1.2041                 1.2846                 1.1515
 Frc consts  --      1.6444                 1.7654                 1.5890
 IR Inten    --     15.3457                21.0669                 6.3948

                     91                     92                     93
                      A                      A                      A
 Frequencies --   1534.0495              1538.0636              1540.7050
 Red. masses --      1.1980                 1.5567                 1.7774
 Frc consts  --      1.6611                 2.1697                 2.4859
 IR Inten    --      1.4390                 3.1965                10.7497

                     94                     95                     96
                      A                      A                      A
 Frequencies --   1549.1153              1611.5610              1641.0409
 Red. masses --      1.2071                 5.1387                 5.8011
 Frc consts  --      1.7066                 7.8632                 9.2044
 IR Inten    --      3.6457                43.2653                 0.0879

                     97                     98                     99
                      A                      A                      A
 Frequencies --   1667.8062              2963.8226              3005.1154
 Red. masses --      5.7426                 1.0714                 1.0857
 Frc consts  --      9.4113                 5.5452                 5.7766
 IR Inten    --      2.2827                44.1084                36.5122

                    100                    101                    102
                      A                      A                      A
 Frequencies --   3037.3834              3042.3809              3045.9951
 Red. masses --      1.0397                 1.0402                 1.0677
 Frc consts  --      5.6512                 5.6727                 5.8365
 IR Inten    --     28.7202                15.7509                27.8146

                    103                    104                    105
                      A                      A                      A
 Frequencies --   3047.7166              3054.6364              3064.5665
 Red. masses --      1.0381                 1.0658                 1.0689
 Frc consts  --      5.6814                 5.8593                 5.9143
 IR Inten    --     40.3137                32.1045                60.4439

                    106                    107                    108
                      A                      A                      A
 Frequencies --   3086.0210              3091.5035              3097.5155
 Red. masses --      1.0991                 1.1010                 1.1012
 Frc consts  --      6.1669                 6.1997                 6.2251
 IR Inten    --     22.9469                11.5828                22.2909

                    109                    110                    111
                      A                      A                      A
 Frequencies --   3103.0913              3118.6010              3126.1437
 Red. masses --      1.0964                 1.0986                 1.0998
 Frc consts  --      6.2202                 6.2952                 6.3325
 IR Inten    --      4.2077                24.2456                24.0563

                    112                    113                    114
                      A                      A                      A
 Frequencies --   3133.6402              3142.1981              3142.7110
 Red. masses --      1.0961                 1.0977                 1.0999
 Frc consts  --      6.3416                 6.3853                 6.4008
 IR Inten    --     34.6505                 7.8019                12.5610

                    115                    116                    117
                      A                      A                      A
 Frequencies --   3175.1824              3187.9386              3203.7307
 Red. masses --      1.0865                 1.0889                 1.0949
 Frc consts  --      6.4537                 6.5205                 6.6210
 IR Inten    --      8.6107                18.1301                31.8391

                    118                    119                    120
                      A                      A                      A
 Frequencies --   3219.1815              3263.2651              3531.2455
 Red. masses --      1.0930                 1.0971                 1.0733
 Frc consts  --      6.6737                 6.8831                 7.8854
 IR Inten    --      7.7771                 3.6848                 3.2998

 - Thermochemistry -
 -------------------
 Temperature   298.150 Kelvin.  Pressure   1.00000 Atm.
 Atom     1 has atomic number  6 and mass  12.00000

 Molecular mass:   257.18920 amu.
 Principal axes and moments of inertia in atomic units:
                           1         2         3
     Eigenvalues --  2619.207008876.452309814.21270
           X            0.99991  -0.00702   0.01176
           Y            0.00719   0.99987  -0.01433
           Z           -0.01166   0.01442   0.99983
 This molecule is an asymmetric top.
 Rotational symmetry number  1.
 Warning -- assumption of classical behavior for rotation
           may cause significant error
 Rotational temperatures (Kelvin)      0.03307     0.00976     0.00883
 Rotational constants (GHZ):           0.68904     0.20332     0.18389
 Zero-point vibrational energy     970011.6 (Joules/Mol)
                                  231.83833 (Kcal/Mol)
 Warning -- explicit consideration of  28 degrees of freedom as
           vibrations may cause significant error
 Vibrational temperatures:     19.66    34.72    42.70    96.21    99.02
          (Kelvin)            132.74   157.90   212.28   220.80   251.20
                              268.55   273.09   299.88   323.60   371.22
                              384.83   414.04   422.26   455.47   497.64
                              568.49   639.44   666.01   690.55   743.34
                              767.78   836.86   868.78   899.06   917.90
                              962.72   983.59  1039.06  1081.72  1103.76
                             1128.15  1141.07  1142.38  1176.84  1215.21
                             1270.96  1281.83  1368.60  1391.00  1427.38
                             1438.11  1452.79  1460.30  1467.90  1489.57
                             1514.10  1543.38  1550.15  1554.29  1556.58
                             1560.76  1619.93  1640.89  1665.90  1693.47
                             1718.88  1721.42  1744.93  1771.16  1793.77
                             1808.21  1869.66  1895.03  1903.29  1926.14
                             1947.94  2014.57  2018.21  2049.25  2052.66
                             2062.94  2076.42  2081.41  2087.75  2130.30
                             2149.41  2166.42  2169.45  2173.55  2178.51
                             2179.63  2182.63  2190.52  2197.42  2201.86
                             2207.16  2212.93  2216.73  2228.83  2318.68
                             2361.09  2399.60  4264.28  4323.69  4370.12
                             4377.31  4382.51  4384.98  4394.94  4409.23
                             4440.10  4447.98  4456.63  4464.66  4486.97
                             4497.82  4508.61  4520.92  4521.66  4568.38
                             4586.73  4609.45  4631.68  4695.11  5080.67

 Zero-point correction=                           0.369458 (Hartree/Particle)
 Thermal correction to Energy=                    0.388665
 Thermal correction to Enthalpy=                  0.389609
 Thermal correction to Gibbs Free Energy=         0.319752
 Sum of electronic and zero-point Energies=           -787.511716
 Sum of electronic and thermal Energies=              -787.492509
 Sum of electronic and thermal Enthalpies=            -787.491565
 Sum of electronic and thermal Free Energies=         -787.561422

                     E (Thermal)             CV                S
                      KCal/Mol        Cal/Mol-Kelvin    Cal/Mol-Kelvin
 Total                  243.891             72.569            147.028
 Electronic               0.000              0.000              0.000
 Translational            0.889              2.981             42.534
 Rotational               0.889              2.981             33.789
 Vibrational            242.114             66.608             70.705
 Vibration     1          0.593              1.986              7.391
 Vibration     2          0.593              1.985              6.261
 Vibration     3          0.593              1.984              5.851
 Vibration     4          0.598              1.970              4.243
 Vibration     5          0.598              1.969              4.187
 Vibration     6          0.602              1.955              3.612
 Vibration     7          0.606              1.941              3.273
 Vibration     8          0.617              1.905              2.704
 Vibration     9          0.619              1.899              2.629
 Vibration    10          0.627              1.874              2.385
 Vibration    11          0.632              1.858              2.261
 Vibration    12          0.633              1.854              2.230
 Vibration    13          0.642              1.828              2.057
 Vibration    14          0.650              1.803              1.919
 Vibration    15          0.667              1.749              1.675
 Vibration    16          0.673              1.733              1.613
 Vibration    17          0.685              1.696              1.487
 Vibration    18          0.688              1.686              1.454
 Vibration    19          0.703              1.642              1.328
 Vibration    20          0.724              1.584              1.185
 Vibration    21          0.762              1.481              0.981
 Vibration    22          0.804              1.373              0.813
 Vibration    23          0.821              1.332              0.758
 Vibration    24          0.836              1.295              0.710
 Vibration    25          0.872              1.213              0.618
 Vibration    26          0.889              1.176              0.579
 Vibration    27          0.938              1.071              0.482
 Vibration    28          0.962              1.024              0.443

                           ! Non-Optimized Parameters !
 Normal termination of Gaussian 16 at Mon Dec 14 14:49:20 2020.

 ----------------------------------------------------------------------
 # B3LYP/6-311++G(d,p) empiricaldispersion=gd3bj scf=xqc pop=npa geom=c
 heck
 ----------------------------------------------------------------------

 --------------------------------------
 CID_78804433_JID_9733_Energie_neutraal
 --------------------------------------
 Structure from the checkpoint file:  "JID_9733.chk"
 Charge =  0 Multiplicity = 1

 SCF Done:  E(RB3LYP) =  -788.090016553     A.U. after   14 cycles
 Normal termination of Gaussian 16 at Mon Dec 14 15:00:20 2020.

 ----------------------------------------------------------------------
 # B3LYP/6-311++G(d,p) empiricaldispersion=gd3bj scf=xqc pop=npa geom=c
 heck
 ----------------------------------------------------------------------

 ------------------------------------
 CID_78804433_JID_9733_Energie_kation
 ------------------------------------
 Structure from the checkpoint file:  "JID_9733.chk"
 Charge =  1 Multiplicity = 2

 SCF Done:  E(UB3LYP) =  -787.805897485     A.U. after   31 cycles
 Normal termination of Gaussian 16 at Mon Dec 14 15:34:37 2020.
 Gaussian 16:  ES64L-G16RevA.03 25-Dec-2016

 ----------------------------------------------------------------------
 # B3LYP/6-311++G(d,p) empiricaldispersion=gd3bj scf=xqc pop=npa geom=c
 heck
 ----------------------------------------------------------------------

 -----------------------------------
 CID_78804433_JID_9733_Energie_anion
 -----------------------------------
 Structure from the checkpoint file:  "JID_9733.chk"
 Charge = -1 Multiplicity = 2

                         Standard orientation:
 ---------------------------------------------------------------------
 Center     Atomic      Atomic             Coordinates (Angstroms)
 Number     Number       Type             X           Y           Z
 ---------------------------------------------------------------------
      1          6           0        3.597490   -1.623008    1.252613
      2          6           0        3.463587   -0.369538    0.420550
      3          6           0        4.392312    0.665303    0.569109
      4          6           0        4.305900    1.835474   -0.185176
      5          6           0        3.279000    1.977910   -1.115060
      6          6           0        2.346319    0.953255   -1.277700
      7          6           0        2.419511   -0.217851   -0.515547
      8          6           0        1.389021   -1.314538   -0.700339
      9          7           0        0.165026   -0.813796   -1.308614
     10          6           0       -0.932491   -1.771909   -1.397609
     11          6           0       -1.391442   -2.439583   -0.083536
     12          6           0       -1.546114   -1.464744    1.090061
     13          7           0       -2.293751   -0.269106    0.735659
     14          6           0       -1.938160    1.038435    0.924077
     15          6           0       -2.975124    1.789176    0.397358
     16          6           0       -3.919390    0.851720   -0.086406
     17          7           0       -3.499321   -0.397297    0.124813
     18          6           0       -5.233445    1.106409   -0.757405
     19          6           0       -0.671855    1.467721    1.597256
     20          1           0        3.653347   -2.523642    0.628929
     21          1           0        4.502240   -1.587076    1.866493
     22          1           0        2.743443   -1.759180    1.929092
     23          1           0        5.196766    0.549094    1.291573
     24          1           0        5.038955    2.625523   -0.047559
     25          1           0        3.202822    2.879335   -1.716873
     26          1           0        1.550465    1.045694   -2.009084
     27          1           0        1.792545   -2.101316   -1.357659
     28          1           0        1.221551   -1.808706    0.272251
     29          1           0       -0.152439    0.015194   -0.813896
     30          1           0       -1.784249   -1.238372   -1.828874
     31          1           0       -0.649389   -2.557065   -2.110850
     32          1           0       -2.351183   -2.931820   -0.270068
     33          1           0       -0.687443   -3.220503    0.230872
     34          1           0       -2.042220   -1.966598    1.929237
     35          1           0       -0.567941   -1.130337    1.442991
     36          1           0       -3.037650    2.868129    0.371101
     37          1           0       -5.106644    1.683544   -1.681282
     38          1           0       -5.711793    0.155877   -1.007825
     39          1           0       -5.911797    1.674224   -0.109217
     40          1           0       -0.602615    1.083678    2.622287
     41          1           0        0.229822    1.141422    1.063299
     42          1           0       -0.640988    2.558897    1.648586
 ---------------------------------------------------------------------

 SCF Done:  E(UB3LYP) =  -788.078601664     A.U. after   33 cycles
 SCF Done:  E(UB3LYP) =  -788.078601664     a.u. after    1 cycles

 The electronic state is 2-A.
 Alpha  occ. eigenvalues --  -14.29111 -14.23059 -14.20634 -10.12304 -10.12059
 Alpha  occ. eigenvalues --  -10.10584 -10.10507 -10.10086 -10.09094 -10.08891
 Alpha  occ. eigenvalues --  -10.08834 -10.08651 -10.08270 -10.08210 -10.07970
 Alpha  occ. eigenvalues --  -10.07874 -10.07809 -10.07042 -10.06930  -0.95460
 Alpha  occ. eigenvalues --   -0.82233  -0.76820  -0.76077  -0.71612  -0.68677
 Alpha  occ. eigenvalues --   -0.67791  -0.66274  -0.63243  -0.61837  -0.60190
 Alpha  occ. eigenvalues --   -0.58564  -0.56235  -0.51330  -0.50265  -0.49304
 Alpha  occ. eigenvalues --   -0.48838  -0.44505  -0.42571  -0.41294  -0.40554
 Alpha  occ. eigenvalues --   -0.38255  -0.38126  -0.36892  -0.35265  -0.35063
 Alpha  occ. eigenvalues --   -0.34608  -0.34244  -0.33528  -0.33245  -0.32707
 Alpha  occ. eigenvalues --   -0.32155  -0.31544  -0.30969  -0.30717  -0.29984
 Alpha  occ. eigenvalues --   -0.29672  -0.29160  -0.28072  -0.27209  -0.26600
 Alpha  occ. eigenvalues --   -0.26023  -0.25579  -0.24648  -0.24158  -0.20109
 Alpha  occ. eigenvalues --   -0.16077  -0.15438  -0.15309  -0.15136  -0.13412
 Alpha  occ. eigenvalues --    0.03998
 Alpha virt. eigenvalues --    0.05823   0.06153   0.06886   0.07173   0.07584
 Alpha virt. eigenvalues --    0.07706   0.08026   0.08598   0.08692   0.09046
 Alpha virt. eigenvalues --    0.09545   0.09828   0.10037   0.10709   0.11014

  Beta  occ. eigenvalues --  -14.29112 -14.23052 -14.20631 -10.12302 -10.12034
  Beta  occ. eigenvalues --  -10.10582 -10.10487 -10.10081 -10.09092 -10.08886
  Beta  occ. eigenvalues --  -10.08802 -10.08642 -10.08263 -10.08205 -10.07958
  Beta  occ. eigenvalues --  -10.07860 -10.07805 -10.06998 -10.06921  -0.95456
  Beta  occ. eigenvalues --   -0.82222  -0.76804  -0.76063  -0.71594  -0.68654
  Beta  occ. eigenvalues --   -0.67767  -0.66252  -0.63224  -0.61795  -0.60150
  Beta  occ. eigenvalues --   -0.58519  -0.56199  -0.51302  -0.50244  -0.49275
  Beta  occ. eigenvalues --   -0.48804  -0.44475  -0.42544  -0.41259  -0.40528
  Beta  occ. eigenvalues --   -0.38232  -0.38108  -0.36866  -0.35236  -0.35035
  Beta  occ. eigenvalues --   -0.34582  -0.34217  -0.33505  -0.33218  -0.32678
  Beta  occ. eigenvalues --   -0.32122  -0.31514  -0.30946  -0.30692  -0.29955
  Beta  occ. eigenvalues --   -0.29650  -0.29121  -0.28055  -0.27186  -0.26575
  Beta  occ. eigenvalues --   -0.25997  -0.25555  -0.24622  -0.24137  -0.20092
  Beta  occ. eigenvalues --   -0.16057  -0.15421  -0.15292  -0.15116  -0.13399
  Beta virt. eigenvalues --    0.05795   0.06335   0.06733   0.07372   0.07507
  Beta virt. eigenvalues --    0.07796   0.07844   0.08237   0.08866   0.08978
  Beta virt. eigenvalues --    0.09290   0.09778   0.09979   0.10186   0.10993

 Mulliken charges and spin densities:
               1          2
     1  C    2.102703  -2.668261
     2  C   -2.114709   2.756859
     3  C    0.610774  -0.864452
     4  C    0.369489  -0.744339
     5  C   -0.352930   0.018219
     6  C    0.123069  -0.477381
     7  C   -0.820958   1.462195
     8  C   -0.058470  -0.994722
     9  N   -0.011044  -0.065719
    10  C   -0.008952  -0.306749
    11  C    0.085454  -0.383889
    12  C   -0.071901  -0.107379
    13  N    0.350294  -0.060893
    14  C   -1.037020   1.028377
    15  C   -0.161106   0.045327
    16  C    0.185372  -0.269316
    17  N   -0.230924   0.090878
    18  C   -0.124626  -0.575839
    19  C    0.405393  -0.997217
    20  H   -0.111937   0.275348
    21  H   -0.531111   0.693816
    22  H   -0.607333   0.778602
    23  H   -0.301264   0.456999
    24  H   -0.160446   0.309877
    25  H   -0.055321   0.215675
    26  H    0.100150   0.109092
    27  H   -0.132828   0.343715
    28  H    1.143875  -1.068611
    29  H    0.242033  -0.045091
    30  H    0.192766  -0.000124
    31  H   -0.014109   0.162954
    32  H    0.165124   0.001483
    33  H   -0.356812   0.541155
    34  H   -0.424732   0.656764
    35  H    0.082638   0.066529
    36  H   -0.213825   0.382321
    37  H    0.077062   0.074888
    38  H    0.107824   0.037413
    39  H    0.039589   0.100063
    40  H   -0.299871   0.504358
    41  H    1.029875  -0.853707
    42  H   -0.211254   0.370783
 Sum of Mulliken charges =  -1.00000   1.00000

 Dipole moment (field-independent basis, Debye):
    X=             -3.8913    Y=              2.5402    Z=             -4.6798  Tot=              6.5951
 Quadrupole moment (field-independent basis, Debye-Ang):
   XX=           -201.6141   YY=           -165.9488   ZZ=           -163.3013
   XY=              5.0441   XZ=             -4.7425   YZ=              5.5905

 Summary of Natural Population Analysis:

                                       Natural Population
                Natural  -----------------------------------------------
    Atom  No    Charge         Core      Valence    Rydberg      Total
 -----------------------------------------------------------------------
      C    1   -0.29574      0.99964     2.29006    0.00604     3.29574
      C    2   -0.01151      0.99948     2.00140    0.01064     3.01151
      C    3   -0.09882      0.99951     2.08929    0.01001     3.09882
      C    4   -0.10241      0.99956     2.09327    0.00958     3.10241
      C    5   -0.10475      0.99956     2.09566    0.00953     3.10475
      C    6   -0.10352      0.99951     2.09543    0.00857     3.10352
      C    7   -0.02006      0.99946     2.01002    0.01058     3.02006
      C    8   -0.09674      0.99959     2.08661    0.01054     3.09674
      N    9   -0.34156      0.99975     2.83179    0.01002     3.84156
      C   10   -0.08764      0.99963     2.07696    0.01105     3.08764
      C   11   -0.20544      0.99962     2.19776    0.00805     3.20544
      C   12   -0.08438      0.99960     2.07278    0.01199     3.08438
      N   13   -0.11775      0.99962     2.60471    0.01342     3.61775
      C   14    0.09111      0.99953     1.89785    0.01152     2.90889
      C   15   -0.16612      0.99945     2.15815    0.00852     3.16612
      C   16    0.07379      0.99960     1.91352    0.01308     2.92621
      N   17   -0.16618      0.99970     2.65575    0.01073     3.66618
      C   18   -0.29714      0.99963     2.29303    0.00449     3.29714
      C   19   -0.30702      0.99963     2.30151    0.00588     3.30702
      H   20    0.10455      0.00000     0.39421    0.00124     0.39545
      H   21    0.10405      0.00000     0.39454    0.00141     0.39595
      H   22    0.10908      0.00000     0.38861    0.00231     0.39092
      H   23    0.10011      0.00000     0.39884    0.00105     0.39989
      H   24    0.09893      0.00000     0.40022    0.00084     0.40107
      H   25    0.09835      0.00000     0.40085    0.00080     0.40165
      H   26    0.10900      0.00000     0.38959    0.00141     0.39100
      H   27    0.09920      0.00000     0.39960    0.00120     0.40080
      H   28    0.08767      0.00000     0.40992    0.00240     0.41233
      H   29    0.17477      0.00000     0.32117    0.00405     0.32523
      H   30    0.10014      0.00000     0.39869    0.00116     0.39986
      H   31    0.09173      0.00000     0.40736    0.00092     0.40827
      H   32    0.10587      0.00000     0.39285    0.00128     0.39413
      H   33    0.10164      0.00000     0.39707    0.00130     0.39836
      H   34    0.10363      0.00000     0.39493    0.00144     0.39637
      H   35    0.10350      0.00000     0.39413    0.00237     0.39650
      H   36    0.10714      0.00000     0.39212    0.00074     0.39286
      H   37    0.10138      0.00000     0.39746    0.00116     0.39862
      H   38    0.10772      0.00000     0.39125    0.00103     0.39228
      H   39    0.10147      0.00000     0.39732    0.00121     0.39853
      H   40    0.11133      0.00000     0.38744    0.00123     0.38867
      H   41    0.10962      0.00000     0.38837    0.00202     0.39038
      H   42    0.11099      0.00000     0.38817    0.00084     0.38901
 =======================================================================
   * Total *   -0.00000     18.99205    50.79029    0.21766    70.00000

 Normal termination of Gaussian 16 at Mon Dec 14 16:10:54 2020.
