 Gaussian 16, Revision A.03,

 -----------------------------------------------------------
 # opt freq B3LYP/6-31G(d) empiricaldispersion=gd3bj scf=xqc
 -----------------------------------------------------------

 ------------------------------
 CID_81976588_JID_9852_neutraal
 ------------------------------
 Symbolic Z-matrix:
 Charge =  0 Multiplicity = 1

 SCF Done:  E(RB3LYP) =  -879.399202815     A.U. after   14 cycles
 SCF Done:  E(RB3LYP) =  -879.407773765     A.U. after   12 cycles
 SCF Done:  E(RB3LYP) =  -879.409383248     A.U. after   12 cycles
 SCF Done:  E(RB3LYP) =  -879.409761902     A.U. after   13 cycles
 SCF Done:  E(RB3LYP) =  -879.410488472     A.U. after   12 cycles
 SCF Done:  E(RB3LYP) =  -879.410555144     A.U. after   11 cycles
 SCF Done:  E(RB3LYP) =  -879.410718923     A.U. after   10 cycles
 SCF Done:  E(RB3LYP) =  -879.410765974     A.U. after   10 cycles
 SCF Done:  E(RB3LYP) =  -879.410800128     A.U. after   10 cycles
 SCF Done:  E(RB3LYP) =  -879.410807210     A.U. after    9 cycles
 SCF Done:  E(RB3LYP) =  -879.410926799     A.U. after    8 cycles
 SCF Done:  E(RB3LYP) =  -879.410926944     A.U. after    7 cycles
 SCF Done:  E(RB3LYP) =  -879.410926941     A.U. after    7 cycles
 SCF Done:  E(RB3LYP) =  -879.410926927     A.U. after    6 cycles
 SCF Done:  E(RB3LYP) =  -879.410926919     A.U. after    6 cycles
 Optimization completed.
    -- Stationary point found.
 Normal termination of Gaussian 16 at Mon Dec 14 17:41:43 2020.

 --------------------------------------------------------------------
 #N Geom=AllCheck Guess=TCheck SCRF=Check GenChk RB3LYP/6-31G(d) Freq
 --------------------------------------------------------------------

 Structure from the checkpoint file:  "JID_9852.chk"
 ------------------------------
 CID_81976588_JID_9852_neutraal
 ------------------------------
 Charge =  0 Multiplicity = 1

 SCF Done:  E(RB3LYP) =  -879.410926919     A.U. after    1 cycles

  Exact polarizability: 199.100   2.143 155.326   3.871   3.021 136.025
 Approx polarizability: 230.151  15.996 243.758  11.806  12.601 213.688

                      1                      2                      3
                      A                      A                      A
 Frequencies --     12.9057                25.6099                30.3523
 Red. masses --      4.3327                 4.8890                 5.0680
 Frc consts  --      0.0004                 0.0019                 0.0028
 IR Inten    --      0.4974                 1.1314                 4.1917

                      4                      5                      6
                      A                      A                      A
 Frequencies --     39.6035                76.0108                91.4226
 Red. masses --      3.5729                 3.1986                 3.5965
 Frc consts  --      0.0033                 0.0109                 0.0177
 IR Inten    --      0.5231                 2.4927                 2.5536

                      7                      8                      9
                      A                      A                      A
 Frequencies --    102.9285               135.2579               171.3379
 Red. masses --      4.5466                 3.1580                 2.0295
 Frc consts  --      0.0284                 0.0340                 0.0351
 IR Inten    --      2.7853                 0.4799                 3.3622

                     10                     11                     12
                      A                      A                      A
 Frequencies --    192.7955               206.2691               232.7184
 Red. masses --      3.2081                 3.6354                 2.7220
 Frc consts  --      0.0703                 0.0911                 0.0869
 IR Inten    --      3.5207                 1.7064                 2.3122

                     13                     14                     15
                      A                      A                      A
 Frequencies --    235.5897               245.2629               250.5692
 Red. masses --      2.4154                 2.4794                 2.3221
 Frc consts  --      0.0790                 0.0879                 0.0859
 IR Inten    --      2.1104                 4.0406                 2.2111

                     16                     17                     18
                      A                      A                      A
 Frequencies --    283.6389               312.1145               351.6600
 Red. masses --      2.3499                 2.4032                 1.1308
 Frc consts  --      0.1114                 0.1379                 0.0824
 IR Inten    --      3.4971                 2.7706                38.6940

                     19                     20                     21
                      A                      A                      A
 Frequencies --    370.1252               395.7787               405.6886
 Red. masses --      3.6713                 2.6214                 2.0496
 Frc consts  --      0.2963                 0.2419                 0.1988
 IR Inten    --     22.3823                14.1129                 1.1077

                     22                     23                     24
                      A                      A                      A
 Frequencies --    420.5657               452.1655               469.5602
 Red. masses --      2.6317                 2.7855                 2.7648
 Frc consts  --      0.2743                 0.3355                 0.3592
 IR Inten    --     16.8541                 1.0405                 2.0444

                     25                     26                     27
                      A                      A                      A
 Frequencies --    475.4208               514.6003               544.0233
 Red. masses --      3.1750                 2.4925                 2.5942
 Frc consts  --      0.4228                 0.3889                 0.4524
 IR Inten    --     11.5823                 0.0724                16.7658

                     28                     29                     30
                      A                      A                      A
 Frequencies --    549.9103               581.7132               603.3550
 Red. masses --      2.0781                 2.8927                 3.2660
 Frc consts  --      0.3703                 0.5767                 0.7005
 IR Inten    --     85.0171                29.1017                 5.8165

                     31                     32                     33
                      A                      A                      A
 Frequencies --    655.6677               688.4078               732.5127
 Red. masses --      3.3740                 2.7999                 3.2705
 Frc consts  --      0.8546                 0.7818                 1.0340
 IR Inten    --     10.3847                14.5120                37.1448

                     34                     35                     36
                      A                      A                      A
 Frequencies --    761.4293               783.9160               797.9703
 Red. masses --      9.1068                 1.7592                 3.0646
 Frc consts  --      3.1108                 0.6370                 1.1497
 IR Inten    --     30.7133                 6.1868                 1.4356

                     37                     38                     39
                      A                      A                      A
 Frequencies --    813.8001               826.3975               848.1652
 Red. masses --      2.3128                 1.5528                 1.7578
 Frc consts  --      0.9025                 0.6248                 0.7450
 IR Inten    --      6.8419                 2.2675                 9.8958

                     40                     41                     42
                      A                      A                      A
 Frequencies --    872.5112               913.5000               928.0442
 Red. masses --      2.4818                 2.4336                 1.8433
 Frc consts  --      1.1132                 1.1965                 0.9354
 IR Inten    --      4.2288                31.0821                 8.4426

                     43                     44                     45
                      A                      A                      A
 Frequencies --    936.2444               942.6808               968.1641
 Red. masses --      2.0538                 1.5653                 2.1975
 Frc consts  --      1.0607                 0.8196                 1.2136
 IR Inten    --      7.9702               199.3174                 9.8272

                     46                     47                     48
                      A                      A                      A
 Frequencies --    973.3784               995.9276              1000.0876
 Red. masses --      2.1987                 1.5735                 1.8208
 Frc consts  --      1.2274                 0.9195                 1.0730
 IR Inten    --      7.6747                22.1541                45.7585

                     49                     50                     51
                      A                      A                      A
 Frequencies --   1028.4512              1034.7979              1062.5767
 Red. masses --      2.3664                 2.3051                 2.1280
 Frc consts  --      1.4747                 1.4543                 1.4156
 IR Inten    --     47.2233                 5.3562                 0.3233

                     52                     53                     54
                      A                      A                      A
 Frequencies --   1072.6698              1077.0419              1109.9460
 Red. masses --      1.6198                 2.0177                 3.1498
 Frc consts  --      1.0981                 1.3790                 2.2863
 IR Inten    --      0.2612                 6.8101                44.0847

                     55                     56                     57
                      A                      A                      A
 Frequencies --   1127.1308              1128.9180              1136.9252
 Red. masses --      2.3326                 1.5966                 1.8896
 Frc consts  --      1.7460                 1.1989                 1.4391
 IR Inten    --     40.0953                40.6805                 7.8717

                     58                     59                     60
                      A                      A                      A
 Frequencies --   1141.1411              1160.6919              1195.0692
 Red. masses --      1.6647                 2.3680                 1.2441
 Frc consts  --      1.2772                 1.8796                 1.0469
 IR Inten    --      5.4350                 8.4787                 9.4950

                     61                     62                     63
                      A                      A                      A
 Frequencies --   1213.3952              1231.5198              1235.8527
 Red. masses --      1.9697                 1.1759                 2.1041
 Frc consts  --      1.7087                 1.0507                 1.8934
 IR Inten    --     34.8314                13.3890                41.5758

                     64                     65                     66
                      A                      A                      A
 Frequencies --   1253.8364              1260.5066              1263.7078
 Red. masses --      1.5014                 1.3097                 1.6718
 Frc consts  --      1.3907                 1.2260                 1.5730
 IR Inten    --      6.5935                 2.3562                12.6440

                     67                     68                     69
                      A                      A                      A
 Frequencies --   1279.7195              1289.5167              1298.7750
 Red. masses --      2.2959                 1.8560                 1.4300
 Frc consts  --      2.2153                 1.8184                 1.4212
 IR Inten    --     54.7067               164.9806                 3.3625

                     70                     71                     72
                      A                      A                      A
 Frequencies --   1304.7608              1311.7358              1350.3119
 Red. masses --      1.4908                 1.5692                 1.3557
 Frc consts  --      1.4953                 1.5908                 1.4564
 IR Inten    --     91.0587                38.5066                 9.4998

                     73                     74                     75
                      A                      A                      A
 Frequencies --   1356.2898              1359.9467              1378.1791
 Red. masses --      1.3823                 1.3829                 1.4947
 Frc consts  --      1.4982                 1.5069                 1.6727
 IR Inten    --     24.0347                14.6366                13.0793

                     76                     77                     78
                      A                      A                      A
 Frequencies --   1385.7712              1390.5458              1402.4112
 Red. masses --      1.4216                 1.2903                 1.4367
 Frc consts  --      1.6084                 1.4700                 1.6648
 IR Inten    --     12.8682                 1.5725                 9.4265

                     79                     80                     81
                      A                      A                      A
 Frequencies --   1411.9561              1417.8808              1427.2622
 Red. masses --      1.3273                 1.3758                 1.4737
 Frc consts  --      1.5591                 1.6297                 1.7687
 IR Inten    --     15.9651                30.9532                 9.2841

                     82                     83                     84
                      A                      A                      A
 Frequencies --   1440.8994              1447.5034              1451.4110
 Red. masses --      1.2824                 1.3884                 1.5830
 Frc consts  --      1.5687                 1.7140                 1.9648
 IR Inten    --      3.7021                14.2401                 7.1129

                     85                     86                     87
                      A                      A                      A
 Frequencies --   1457.9071              1480.8018              1490.7509
 Red. masses --      2.1821                 2.1719                 1.1070
 Frc consts  --      2.7327                 2.8059                 1.4495
 IR Inten    --    209.6572               127.8763                 9.6890

                     88                     89                     90
                      A                      A                      A
 Frequencies --   1507.4817              1511.2643              1522.6262
 Red. masses --      1.0968                 1.1239                 1.1012
 Frc consts  --      1.4686                 1.5124                 1.5042
 IR Inten    --      0.7886                23.9862                 5.9498

                     91                     92                     93
                      A                      A                      A
 Frequencies --   1525.2645              1533.0381              1533.6674
 Red. masses --      1.0607                 1.0938                 1.0968
 Frc consts  --      1.4538                 1.5146                 1.5199
 IR Inten    --      4.1101                 9.3810                 5.7943

                     94                     95                     96
                      A                      A                      A
 Frequencies --   1542.1537              1550.9298              1558.1250
 Red. masses --      1.0614                 1.1178                 1.0986
 Frc consts  --      1.4872                 1.5841                 1.5715
 IR Inten    --      2.6801                20.6670                 8.7058

                     97                     98                     99
                      A                      A                      A
 Frequencies --   1704.2583              1731.5594              1831.2143
 Red. masses --      1.1670                 5.9677                10.4231
 Frc consts  --      1.9970                10.5421                20.5932
 IR Inten    --     39.4255               245.2653               390.5091

                    100                    101                    102
                      A                      A                      A
 Frequencies --   3008.5103              3015.6282              3020.3323
 Red. masses --      1.0734                 1.0797                 1.0691
 Frc consts  --      5.7244                 5.7851                 5.7461
 IR Inten    --     25.5251                37.0671                71.1335

                    103                    104                    105
                      A                      A                      A
 Frequencies --   3029.7048              3037.6328              3039.2964
 Red. masses --      1.0727                 1.0713                 1.0394
 Frc consts  --      5.8013                 5.8240                 5.6567
 IR Inten    --     25.8420                13.2491                27.3908

                    106                    107                    108
                      A                      A                      A
 Frequencies --   3043.8796              3047.8341              3051.7932
 Red. masses --      1.0712                 1.0652                 1.0649
 Frc consts  --      5.8475                 5.8298                 5.8432
 IR Inten    --     14.3482                22.7029                36.6395

                    109                    110                    111
                      A                      A                      A
 Frequencies --   3068.4764              3073.6503              3087.6180
 Red. masses --      1.0617                 1.0823                 1.0958
 Frc consts  --      5.8900                 6.0241                 6.1553
 IR Inten    --     18.5319                13.6822                14.9087

                    112                    113                    114
                      A                      A                      A
 Frequencies --   3093.5608              3100.0983              3106.8149
 Red. masses --      1.0964                 1.1015                 1.1011
 Frc consts  --      6.1821                 6.2369                 6.2617
 IR Inten    --     15.1269                35.2055                27.4725

                    115                    116                    117
                      A                      A                      A
 Frequencies --   3110.8252              3113.1854              3116.3580
 Red. masses --      1.0918                 1.0994                 1.0967
 Frc consts  --      6.2249                 6.2782                 6.2755
 IR Inten    --     44.9192                40.0243                26.0123

                    118                    119                    120
                      A                      A                      A
 Frequencies --   3119.0416              3168.5681              3176.9387
 Red. masses --      1.1039                 1.0904                 1.0926
 Frc consts  --      6.3272                 6.4503                 6.4973
 IR Inten    --     64.8232                17.1697                 2.7958

                    121                    122                    123
                      A                      A                      A
 Frequencies --   3455.8672              3544.4947              3622.6582
 Red. masses --      1.0501                 1.0907                 1.0773
 Frc consts  --      7.3888                 8.0735                 8.3302
 IR Inten    --     10.9910                11.6472                29.8066

 - Thermochemistry -
 -------------------
 Temperature   298.150 Kelvin.  Pressure   1.00000 Atm.
 Atom     1 has atomic number  6 and mass  12.00000

 Molecular mass:   268.18993 amu.
 Principal axes and moments of inertia in atomic units:
                           1         2         3
     Eigenvalues --  1947.81690********************
           X            0.99990  -0.01242  -0.00676
           Y            0.01236   0.99989  -0.00780
           Z            0.00686   0.00772   0.99995
 This molecule is an asymmetric top.
 Rotational symmetry number  1.
 Warning -- assumption of classical behavior for rotation
           may cause significant error
 Rotational temperatures (Kelvin)      0.04447     0.00722     0.00694
 Rotational constants (GHZ):           0.92655     0.15051     0.14461
 Zero-point vibrational energy    1007199.6 (Joules/Mol)
                                  240.72648 (Kcal/Mol)
 Warning -- explicit consideration of  30 degrees of freedom as
           vibrations may cause significant error
 Vibrational temperatures:     18.57    36.85    43.67    56.98   109.36
          (Kelvin)            131.54   148.09   194.61   246.52   277.39
                              296.78   334.83   338.96   352.88   360.51
                              408.09   449.06   505.96   532.53   569.44
                              583.70   605.10   650.57   675.59   684.02
                              740.40   782.73   791.20   836.96   868.09
                              943.36   990.47  1053.92  1095.53  1127.88
                             1148.10  1170.88  1189.00  1220.32  1255.35
                             1314.32  1335.25  1347.05  1356.31  1392.97
                             1400.47  1432.92  1438.90  1479.71  1488.84
                             1528.81  1543.33  1549.62  1596.96  1621.69
                             1624.26  1635.78  1641.85  1669.98  1719.44
                             1745.81  1771.88  1778.12  1803.99  1813.59
                             1818.19  1841.23  1855.33  1868.65  1877.26
                             1887.30  1942.80  1951.40  1956.66  1982.89
                             1993.82  2000.69  2017.76  2031.49  2040.01
                             2053.51  2073.13  2082.63  2088.26  2097.60
                             2130.54  2144.86  2168.93  2174.37  2190.72
                             2194.52  2205.70  2206.61  2218.82  2231.44
                             2241.79  2452.05  2491.33  2634.71  4328.58
                             4338.82  4345.58  4359.07  4370.48  4372.87
                             4379.46  4385.15  4390.85  4414.85  4422.30
                             4442.39  4450.94  4460.35  4470.01  4475.78
                             4479.18  4483.74  4487.61  4558.86  4570.91
                             4972.22  5099.74  5212.20

 Zero-point correction=                           0.383622 (Hartree/Particle)
 Thermal correction to Energy=                    0.402597
 Thermal correction to Enthalpy=                  0.403542
 Thermal correction to Gibbs Free Energy=         0.333838
 Sum of electronic and zero-point Energies=           -879.027305
 Sum of electronic and thermal Energies=              -879.008330
 Sum of electronic and thermal Enthalpies=            -879.007385
 Sum of electronic and thermal Free Energies=         -879.077089

                     E (Thermal)             CV                S
                      KCal/Mol        Cal/Mol-Kelvin    Cal/Mol-Kelvin
 Total                  252.634             72.580            146.704
 Electronic               0.000              0.000              0.000
 Translational            0.889              2.981             42.659
 Rotational               0.889              2.981             34.032
 Vibrational            250.856             66.618             70.013
 Vibration     1          0.593              1.987              7.504
 Vibration     2          0.593              1.985              6.143
 Vibration     3          0.594              1.984              5.806
 Vibration     4          0.594              1.981              5.279
 Vibration     5          0.599              1.965              3.991
 Vibration     6          0.602              1.955              3.629
 Vibration     7          0.605              1.947              3.398
 Vibration     8          0.613              1.918              2.870
 Vibration     9          0.626              1.878              2.421
 Vibration    10          0.635              1.850              2.201
 Vibration    11          0.641              1.831              2.076
 Vibration    12          0.653              1.791              1.858
 Vibration    13          0.655              1.786              1.836
 Vibration    14          0.660              1.771              1.764
 Vibration    15          0.663              1.762              1.727
 Vibration    16          0.682              1.704              1.512
 Vibration    17          0.700              1.651              1.351
 Vibration    18          0.728              1.572              1.159
 Vibration    19          0.742              1.534              1.079
 Vibration    20          0.763              1.479              0.978
 Vibration    21          0.771              1.458              0.942
 Vibration    22          0.783              1.426              0.890
 Vibration    23          0.811              1.356              0.789
 Vibration    24          0.827              1.318              0.739
 Vibration    25          0.832              1.305              0.723
 Vibration    26          0.870              1.218              0.623
 Vibration    27          0.899              1.153              0.557
 Vibration    28          0.905              1.140              0.544
 Vibration    29          0.938              1.071              0.482
 Vibration    30          0.962              1.025              0.444

 Optimization completed.
    -- Stationary point found.
 Normal termination of Gaussian 16 at Mon Dec 14 18:02:53 2020.

 ----------------------------------------------------------------------
 # B3LYP/6-311++G(d,p) empiricaldispersion=gd3bj scf=xqc pop=npa geom=c
 heck
 ----------------------------------------------------------------------

 --------------------------------------
 CID_81976588_JID_9852_Energie_neutraal
 --------------------------------------
 Structure from the checkpoint file:  "JID_9852.chk"
 Charge =  0 Multiplicity = 1

 SCF Done:  E(RB3LYP) =  -879.668539945     A.U. after   15 cycles
 Normal termination of Gaussian 16 at Mon Dec 14 18:13:14 2020.

 ----------------------------------------------------------------------
 # B3LYP/6-311++G(d,p) empiricaldispersion=gd3bj scf=xqc pop=npa geom=c
 heck
 ----------------------------------------------------------------------

 ------------------------------------
 CID_81976588_JID_9852_Energie_kation
 ------------------------------------
 Structure from the checkpoint file:  "JID_9852.chk"
 Charge =  1 Multiplicity = 2

 SCF Done:  E(UB3LYP) =  -879.371440405     A.U. after   33 cycles
 SCF Done:  E(UB3LYP) =  -879.371440405     a.u. after    1 cycles
 Normal termination of Gaussian 16 at Mon Dec 14 18:46:23 2020.
 Gaussian 16:  ES64L-G16RevA.03 25-Dec-2016

 ----------------------------------------------------------------------
 # B3LYP/6-311++G(d,p) empiricaldispersion=gd3bj scf=xqc pop=npa geom=c
 heck
 ----------------------------------------------------------------------

 -----------------------------------
 CID_81976588_JID_9852_Energie_anion
 -----------------------------------
 Structure from the checkpoint file:  "JID_9852.chk"
 Charge = -1 Multiplicity = 2

                         Standard orientation:
 ---------------------------------------------------------------------
 Center     Atomic      Atomic             Coordinates (Angstroms)
 Number     Number       Type             X           Y           Z
 ---------------------------------------------------------------------
      1          6           0        5.291068   -1.414406   -0.425349
      2          6           0        5.128650    0.046706    0.001807
      3          6           0        4.138641    0.852763   -0.854086
      4          6           0        2.741196    0.191421   -0.948679
      5          6           0        2.030801    0.039327    0.394881
      6          8           0        2.388878    0.671057    1.391435
      7          7           0        0.982698   -0.847771    0.460503
      8          6           0        0.254892   -1.368878   -0.694768
      9          6           0       -1.063121   -0.606479   -0.891438
     10          6           0       -1.905023   -0.641073    0.397504
     11          6           0       -1.089846   -0.152909    1.599431
     12          6           0        0.223153   -0.937332    1.708419
     13          7           0       -3.162055    0.083122    0.269139
     14          6           0       -3.247069    1.534180    0.152685
     15          6           0       -4.754138    1.734500   -0.093725
     16          7           0       -5.087324    0.499694   -0.793720
     17          6           0       -4.213985   -0.515250   -0.415028
     18          8           0       -4.335978   -1.706624   -0.650993
     19          7           0        4.130235    2.240384   -0.381994
     20          1           0        4.379191   -1.997176   -0.249115
     21          1           0        6.096258   -1.897191    0.138962
     22          1           0        5.539322   -1.496386   -1.491543
     23          1           0        4.807933    0.094010    1.047896
     24          1           0        6.092253    0.564649   -0.056790
     25          1           0        4.528899    0.865947   -1.882122
     26          1           0        2.105497    0.803304   -1.605788
     27          1           0        2.831287   -0.783270   -1.439677
     28          1           0        0.042911   -2.431322   -0.513547
     29          1           0        0.873239   -1.311552   -1.589088
     30          1           0       -1.637913   -1.053249   -1.709994
     31          1           0       -0.834777    0.432280   -1.164664
     32          1           0       -2.199672   -1.682214    0.571601
     33          1           0       -0.842695    0.910671    1.489269
     34          1           0       -1.678210   -0.263052    2.517626
     35          1           0        0.850813   -0.548695    2.508508
     36          1           0        0.014923   -1.997699    1.903421
     37          1           0       -2.658678    1.911454   -0.697652
     38          1           0       -2.905493    2.037641    1.060611
     39          1           0       -4.960971    2.618354   -0.703122
     40          1           0       -5.291776    1.829143    0.861375
     41          1           0       -6.051964    0.226862   -0.926015
     42          1           0        3.541341    2.805779   -0.993313
     43          1           0        3.678877    2.242836    0.532202
 ---------------------------------------------------------------------

 SCF Done:  E(UB3LYP) =  -879.662470479     A.U. after   32 cycles

 The electronic state is 2-A.
 Alpha  occ. eigenvalues --  -19.00301 -18.99591 -14.25854 -14.24550 -14.24105
 Alpha  occ. eigenvalues --  -14.19318 -10.19994 -10.18839 -10.12901 -10.12647
 Alpha  occ. eigenvalues --  -10.12249 -10.12215 -10.12111 -10.11239 -10.09043
 Alpha  occ. eigenvalues --  -10.09025 -10.08753 -10.08020 -10.07529  -0.96295
 Alpha  occ. eigenvalues --   -0.95555  -0.87905  -0.86027  -0.81363  -0.79617
 Alpha  occ. eigenvalues --   -0.71488  -0.69259  -0.68580  -0.66000  -0.65134
 Alpha  occ. eigenvalues --   -0.60153  -0.56864  -0.55733  -0.55216  -0.52987
 Alpha  occ. eigenvalues --   -0.49220  -0.48004  -0.45495  -0.42273  -0.41941
 Alpha  occ. eigenvalues --   -0.41632  -0.40454  -0.39760  -0.39167  -0.38189
 Alpha  occ. eigenvalues --   -0.37062  -0.36298  -0.35754  -0.35401  -0.34861
 Alpha  occ. eigenvalues --   -0.33223  -0.32665  -0.32495  -0.31813  -0.31609
 Alpha  occ. eigenvalues --   -0.31171  -0.30667  -0.30096  -0.29087  -0.28484
 Alpha  occ. eigenvalues --   -0.27682  -0.27058  -0.26926  -0.25640  -0.25111
 Alpha  occ. eigenvalues --   -0.24795  -0.24273  -0.18629  -0.17750  -0.17163
 Alpha  occ. eigenvalues --   -0.16195  -0.15181  -0.14934   0.03557
 Alpha virt. eigenvalues --    0.05113   0.06189   0.06737   0.07102   0.07661
 Alpha virt. eigenvalues --    0.07896   0.08805   0.09113   0.09187   0.09479
 Alpha virt. eigenvalues --    0.09850   0.10178   0.11105   0.11442   0.11704

  Beta  occ. eigenvalues --  -19.00290 -18.99588 -14.25857 -14.24546 -14.24090
  Beta  occ. eigenvalues --  -14.19305 -10.19994 -10.18822 -10.12890 -10.12646
  Beta  occ. eigenvalues --  -10.12209 -10.12183 -10.12106 -10.11231 -10.09032
  Beta  occ. eigenvalues --  -10.09000 -10.08736 -10.08007 -10.07526  -0.96287
  Beta  occ. eigenvalues --   -0.95530  -0.87892  -0.86017  -0.81339  -0.79591
  Beta  occ. eigenvalues --   -0.71467  -0.69234  -0.68561  -0.65952  -0.65090
  Beta  occ. eigenvalues --   -0.60128  -0.56829  -0.55701  -0.55145  -0.52950
  Beta  occ. eigenvalues --   -0.49191  -0.47977  -0.45467  -0.42218  -0.41901
  Beta  occ. eigenvalues --   -0.41592  -0.40417  -0.39740  -0.39142  -0.38154
  Beta  occ. eigenvalues --   -0.37037  -0.36278  -0.35737  -0.35364  -0.34835
  Beta  occ. eigenvalues --   -0.33204  -0.32642  -0.32467  -0.31784  -0.31584
  Beta  occ. eigenvalues --   -0.31149  -0.30633  -0.30059  -0.29055  -0.28447
  Beta  occ. eigenvalues --   -0.27654  -0.27027  -0.26885  -0.25621  -0.25095
  Beta  occ. eigenvalues --   -0.24777  -0.24252  -0.18613  -0.17735  -0.17144
  Beta  occ. eigenvalues --   -0.16175  -0.15159  -0.14913
  Beta virt. eigenvalues --    0.05537   0.06165   0.06774   0.06965   0.07450
  Beta virt. eigenvalues --    0.08203   0.08391   0.09152   0.09227   0.09406
  Beta virt. eigenvalues --    0.09580   0.10194   0.10458   0.11347   0.11624

 Mulliken charges and spin densities:
               1          2
     1  C   -0.242174  -0.454077
     2  C   -0.363326   0.341664
     3  C    0.918052  -1.482285
     4  C   -0.256224   0.182146
     5  C   -0.388151  -0.101743
     6  O   -0.320313   0.012745
     7  N    0.247447   0.022652
     8  C   -0.860600   0.330763
     9  C    0.964257  -0.688844
    10  C   -1.327874  -0.034232
    11  C   -0.003889   0.223207
    12  C    0.070653  -0.520648
    13  N    0.256219   0.067339
    14  C   -0.575779   0.433186
    15  C    2.110447  -2.535600
    16  N   -0.423471   0.239111
    17  C    0.268013  -0.008337
    18  O   -0.387607   0.009121
    19  N   -0.299533   0.063109
    20  H    0.077510   0.082628
    21  H    0.081768   0.042979
    22  H    0.008943   0.127073
    23  H    0.113044   0.027889
    24  H    0.165900   0.011675
    25  H   -0.131702   0.333131
    26  H   -0.386907   0.605286
    27  H    0.144513   0.013042
    28  H    0.043188   0.113810
    29  H   -0.314051   0.505806
    30  H    0.051266   0.166208
    31  H    0.040069   0.124144
    32  H    0.201309   0.009902
    33  H    0.104892   0.077823
    34  H    0.031292   0.185887
    35  H    0.181770   0.046484
    36  H    0.113783   0.043430
    37  H   -0.141051   0.317672
    38  H   -0.232326   0.379845
    39  H   -0.548294   0.738257
    40  H   -0.371648   0.551347
    41  H    0.044637   0.250903
    42  H    0.111320   0.110559
    43  H    0.224628   0.034940
 Sum of Mulliken charges =  -1.00000   1.00000

 Dipole moment (field-independent basis, Debye):
    X=              3.9733    Y=             -4.9635    Z=              2.4490  Tot=              6.8133
 Quadrupole moment (field-independent basis, Debye-Ang):
   XX=           -233.7278   YY=           -166.4666   ZZ=           -155.2035
   XY=             -0.7337   XZ=              0.7524   YZ=             -2.2448

 Summary of Natural Population Analysis:

                                       Natural Population
                Natural  -----------------------------------------------
    Atom  No    Charge         Core      Valence    Rydberg      Total
 -----------------------------------------------------------------------
      C    1   -0.28690      0.99967     2.28321    0.00402     3.28690
      C    2   -0.19656      0.99961     2.18909    0.00785     3.19656
      C    3   -0.00916      0.99961     1.99516    0.01439     3.00916
      C    4   -0.24570      0.99957     2.23650    0.00963     3.24570
      C    5    0.35377      0.99964     1.62320    0.02339     2.64623
      O    6   -0.33660      0.99988     3.33184    0.00488     4.33660
      N    7   -0.25692      0.99965     2.74718    0.01010     3.75692
      C    8   -0.08293      0.99961     2.07326    0.01006     3.08293
      C    9   -0.20286      0.99960     2.19491    0.00836     3.20286
      C   10   -0.00713      0.99957     1.99492    0.01264     3.00713
      C   11   -0.19938      0.99960     2.19145    0.00833     3.19938
      C   12   -0.08559      0.99961     2.07653    0.00944     3.08559
      N   13   -0.26942      0.99963     2.75840    0.01139     3.76942
      C   14   -0.08328      0.99962     2.07289    0.01076     3.08328
      C   15   -0.08531      0.99964     2.07485    0.01082     3.08531
      N   16   -0.33180      0.99969     2.82222    0.00989     3.83180
      C   17    0.41236      0.99967     1.56376    0.02421     2.58764
      O   18   -0.33567      0.99987     3.33081    0.00499     4.33567
      N   19   -0.42678      0.99977     2.91741    0.00961     3.92678
      H   20    0.09592      0.00000     0.40302    0.00106     0.40408
      H   21    0.09723      0.00000     0.40196    0.00082     0.40277
      H   22    0.09506      0.00000     0.40389    0.00105     0.40494
      H   23    0.10391      0.00000     0.39489    0.00121     0.39609
      H   24    0.09943      0.00000     0.39944    0.00113     0.40057
      H   25    0.08888      0.00000     0.40937    0.00175     0.41112
      H   26    0.11590      0.00000     0.38143    0.00267     0.38410
      H   27    0.10738      0.00000     0.39113    0.00149     0.39262
      H   28    0.09317      0.00000     0.40573    0.00110     0.40683
      H   29    0.10749      0.00000     0.39137    0.00114     0.39251
      H   30    0.10959      0.00000     0.38939    0.00102     0.39041
      H   31    0.10003      0.00000     0.39798    0.00199     0.39997
      H   32    0.10835      0.00000     0.38983    0.00182     0.39165
      H   33    0.10259      0.00000     0.39591    0.00150     0.39741
      H   34    0.10506      0.00000     0.39395    0.00099     0.39494
      H   35    0.11777      0.00000     0.38115    0.00108     0.38223
      H   36    0.09082      0.00000     0.40819    0.00100     0.40918
      H   37    0.09217      0.00000     0.40590    0.00193     0.40783
      H   38    0.10138      0.00000     0.39693    0.00170     0.39862
      H   39    0.10087      0.00000     0.39654    0.00259     0.39913
      H   40    0.08909      0.00000     0.40845    0.00246     0.41091
      H   41    0.19553      0.00000     0.30264    0.00184     0.30447
      H   42    0.17232      0.00000     0.32606    0.00162     0.32768
      H   43    0.18594      0.00000     0.31205    0.00200     0.31406
 =======================================================================
   * Total *    0.00000     18.99350    53.76479    0.24171    73.00000

 Normal termination of Gaussian 16 at Mon Dec 14 19:18:13 2020.
