 Gaussian 16, Revision A.03,

 -----------------------------------------------------------
 # opt freq B3LYP/6-31G(d) empiricaldispersion=gd3bj scf=xqc
 -----------------------------------------------------------

 ------------------------------
 CID_89017651_JID_3145_neutraal
 ------------------------------
 Symbolic Z-matrix:
 Charge =  0 Multiplicity = 1

 SCF Done:  E(RB3LYP) =  -542.162476686     A.U. after   14 cycles
 SCF Done:  E(RB3LYP) =  -542.165124364     A.U. after   12 cycles
 SCF Done:  E(RB3LYP) =  -542.165940232     A.U. after   12 cycles
 SCF Done:  E(RB3LYP) =  -542.166867599     A.U. after   13 cycles
 SCF Done:  E(RB3LYP) =  -542.167216272     A.U. after   11 cycles
 SCF Done:  E(RB3LYP) =  -542.167306850     A.U. after   10 cycles
 SCF Done:  E(RB3LYP) =  -542.167315964     A.U. after   10 cycles
 SCF Done:  E(RB3LYP) =  -542.167332977     A.U. after    9 cycles
 SCF Done:  E(RB3LYP) =  -542.167333198     A.U. after    8 cycles
 SCF Done:  E(RB3LYP) =  -542.167333313     A.U. after    7 cycles
 SCF Done:  E(RB3LYP) =  -542.167333333     A.U. after    7 cycles
 Optimization completed.
    -- Stationary point found.
 Normal termination of Gaussian 16 at Wed Dec  9 22:25:25 2020.

 --------------------------------------------------------------------
 #N Geom=AllCheck Guess=TCheck SCRF=Check GenChk RB3LYP/6-31G(d) Freq
 --------------------------------------------------------------------

 Structure from the checkpoint file:  "JID_3145.chk"
 ------------------------------
 CID_89017651_JID_3145_neutraal
 ------------------------------
 Charge =  0 Multiplicity = 1

 SCF Done:  E(RB3LYP) =  -542.167333333     A.U. after    1 cycles

  Exact polarizability: 162.029  -3.588 160.122  -1.768  -5.399  72.201
 Approx polarizability: 223.431  -7.198 254.596  -2.971 -12.439 108.084

                      1                      2                      3
                      A                      A                      A
 Frequencies --     41.7683                51.7752                83.1007
 Red. masses --      3.7411                 2.5104                 2.8634
 Frc consts  --      0.0038                 0.0040                 0.0117
 IR Inten    --      0.4730                 0.5154                 0.6603

                      4                      5                      6
                      A                      A                      A
 Frequencies --    103.8169               148.2735               162.9278
 Red. masses --      3.0131                 1.7614                 2.7789
 Frc consts  --      0.0191                 0.0228                 0.0435
 IR Inten    --      0.4192                 0.2699                 1.8797

                      7                      8                      9
                      A                      A                      A
 Frequencies --    219.1008               226.7357               248.7606
 Red. masses --      1.5256                 3.1774                 1.0699
 Frc consts  --      0.0431                 0.0962                 0.0390
 IR Inten    --      0.8168                 2.3709                 0.0211

                     10                     11                     12
                      A                      A                      A
 Frequencies --    256.8067               281.5822               305.3070
 Red. masses --      3.4549                 2.8594                 1.9136
 Frc consts  --      0.1342                 0.1336                 0.1051
 IR Inten    --      0.3740                 0.8500                 0.5284

                     13                     14                     15
                      A                      A                      A
 Frequencies --    353.0122               389.8298               427.4418
 Red. masses --      2.8821                 3.5900                 2.8260
 Frc consts  --      0.2116                 0.3214                 0.3042
 IR Inten    --      0.3167                 0.6640                 1.5043

                     16                     17                     18
                      A                      A                      A
 Frequencies --    483.8259               498.4534               563.1736
 Red. masses --      2.7474                 3.5846                 4.7719
 Frc consts  --      0.3789                 0.5247                 0.8917
 IR Inten    --      0.5189                 0.5219                 0.5421

                     19                     20                     21
                      A                      A                      A
 Frequencies --    579.6208               611.9260               664.9148
 Red. masses --      3.8132                 3.1106                 2.1498
 Frc consts  --      0.7548                 0.6863                 0.5600
 IR Inten    --      0.8410                 3.7448                 1.4774

                     22                     23                     24
                      A                      A                      A
 Frequencies --    710.9128               768.8525               783.1364
 Red. masses --      3.8656                 1.4475                 1.4411
 Frc consts  --      1.1511                 0.5041                 0.5207
 IR Inten    --      6.6209                32.0199                 6.3692

                     25                     26                     27
                      A                      A                      A
 Frequencies --    796.8402               822.3334               870.7965
 Red. masses --      2.9228                 3.4967                 1.3862
 Frc consts  --      1.0934                 1.3932                 0.6193
 IR Inten    --      6.8996                 1.4393                 0.1757

                     28                     29                     30
                      A                      A                      A
 Frequencies --    901.8426               929.1952               934.8025
 Red. masses --      2.5395                 1.3700                 2.1659
 Frc consts  --      1.2169                 0.6969                 1.1151
 IR Inten    --      1.9472                32.0075                 5.0203

                     31                     32                     33
                      A                      A                      A
 Frequencies --    950.8096               958.5532              1019.9750
 Red. masses --      1.3486                 1.2471                 1.6908
 Frc consts  --      0.7183                 0.6751                 1.0364
 IR Inten    --      0.5744                 1.1654                29.4186

                     34                     35                     36
                      A                      A                      A
 Frequencies --   1040.8767              1050.8042              1070.2964
 Red. masses --      1.1303                 1.5493                 1.6157
 Frc consts  --      0.7215                 1.0079                 1.0905
 IR Inten    --     12.0277                12.8523                 6.2560

                     37                     38                     39
                      A                      A                      A
 Frequencies --   1081.2141              1113.1672              1142.5861
 Red. masses --      1.9182                 3.0948                 1.7131
 Frc consts  --      1.3212                 2.2595                 1.3177
 IR Inten    --      1.8139                75.3427                 7.5893

                     40                     41                     42
                      A                      A                      A
 Frequencies --   1151.7674              1187.6050              1210.2548
 Red. masses --      2.3240                 1.7439                 1.2243
 Frc consts  --      1.8164                 1.4491                 1.0566
 IR Inten    --     50.0527                 5.3581                 0.6035

                     43                     44                     45
                      A                      A                      A
 Frequencies --   1221.6543              1286.6734              1290.6688
 Red. masses --      2.8599                 1.2134                 1.9856
 Frc consts  --      2.5147                 1.1836                 1.9489
 IR Inten    --      9.4558                10.9280                 3.4354

                     46                     47                     48
                      A                      A                      A
 Frequencies --   1307.8691              1324.0708              1340.0032
 Red. masses --      3.5463                 1.2095                 2.3038
 Frc consts  --      3.5740                 1.2494                 2.4373
 IR Inten    --    251.2127                 6.0457                 4.8854

                     49                     50                     51
                      A                      A                      A
 Frequencies --   1373.2784              1400.7500              1432.7510
 Red. masses --      1.8581                 1.3814                 1.4045
 Frc consts  --      2.0646                 1.5969                 1.6986
 IR Inten    --     29.6873                 2.6464                14.0161

                     52                     53                     54
                      A                      A                      A
 Frequencies --   1443.6010              1446.5331              1469.6359
 Red. masses --      1.2517                 1.2903                 1.4113
 Frc consts  --      1.5369                 1.5907                 1.7959
 IR Inten    --      2.9717                30.7844                15.9496

                     55                     56                     57
                      A                      A                      A
 Frequencies --   1505.3966              1509.4972              1513.5157
 Red. masses --      1.8141                 1.0987                 1.3829
 Frc consts  --      2.4222                 1.4750                 1.8665
 IR Inten    --     29.4560                 0.6177                15.4249

                     58                     59                     60
                      A                      A                      A
 Frequencies --   1520.5144              1525.8746              1534.0809
 Red. masses --      1.6670                 1.0560                 1.1466
 Frc consts  --      2.2708                 1.4487                 1.5899
 IR Inten    --     31.1986                 4.2475                41.9968

                     61                     62                     63
                      A                      A                      A
 Frequencies --   1538.7280              1549.5955              1636.5777
 Red. masses --      1.0649                 1.1275                 5.8152
 Frc consts  --      1.4856                 1.5951                 9.1767
 IR Inten    --      3.0247                 0.5998                61.0597

                     64                     65                     66
                      A                      A                      A
 Frequencies --   1654.3506              1712.5839              3010.0135
 Red. masses --      5.7566                 4.3086                 1.0558
 Frc consts  --      9.2827                 7.4455                 5.6361
 IR Inten    --     17.9154                16.6723                33.4044

                     67                     68                     69
                      A                      A                      A
 Frequencies --   3044.3731              3045.2009              3052.0661
 Red. masses --      1.0798                 1.0418                 1.0389
 Frc consts  --      5.8967                 5.6918                 5.7016
 IR Inten    --     11.1879                23.7437                22.0057

                     70                     71                     72
                      A                      A                      A
 Frequencies --   3057.0968              3087.4153              3102.6460
 Red. masses --      1.0882                 1.1011                 1.0942
 Frc consts  --      5.9922                 6.1839                 6.2061
 IR Inten    --     64.8584                20.9086                23.6657

                     73                     74                     75
                      A                      A                      A
 Frequencies --   3117.0239              3134.4711              3137.7643
 Red. masses --      1.1011                 1.1025                 1.1018
 Frc consts  --      6.3034                 6.3818                 6.3912
 IR Inten    --     43.5715                11.6682                38.6875

                     76                     77                     78
                      A                      A                      A
 Frequencies --   3173.0117              3182.4152              3184.9198
 Red. masses --      1.0649                 1.0864                 1.0842
 Frc consts  --      6.3168                 6.4829                 6.4796
 IR Inten    --      6.7722                 5.5668                14.6610

                     79                     80                     81
                      A                      A                      A
 Frequencies --   3200.2276              3235.3930              3259.9037
 Red. masses --      1.0939                 1.0916                 1.1137
 Frc consts  --      6.6004                 6.7325                 6.9731
 IR Inten    --     31.8377                13.1890                15.4132

 - Thermochemistry -
 -------------------
 Temperature   298.150 Kelvin.  Pressure   1.00000 Atm.
 Atom     1 has atomic number  6 and mass  12.00000

 Molecular mass:   176.12012 amu.
 Principal axes and moments of inertia in atomic units:
                           1         2         3
     Eigenvalues --  1432.839163519.706694737.90097
           X            0.99996  -0.00854   0.00325
           Y            0.00853   0.99996   0.00303
           Z           -0.00328  -0.00300   0.99999
 This molecule is an asymmetric top.
 Rotational symmetry number  1.
 Warning -- assumption of classical behavior for rotation
           may cause significant error
 Rotational temperatures (Kelvin)      0.06045     0.02461     0.01828
 Rotational constants (GHZ):           1.25956     0.51275     0.38092
 Zero-point vibrational energy     662497.4 (Joules/Mol)
                                  158.34069 (Kcal/Mol)
 Warning -- explicit consideration of  20 degrees of freedom as
           vibrations may cause significant error
 Vibrational temperatures:     60.10    74.49   119.56   149.37   213.33
          (Kelvin)            234.42   315.24   326.22   357.91   369.49
                              405.13   439.27   507.91   560.88   614.99
                              696.12   717.16   810.28   833.95   880.43
                              956.66  1022.84  1106.21  1126.76  1146.48
                             1183.15  1252.88  1297.55  1336.90  1344.97
                             1368.00  1379.14  1467.52  1497.59  1511.87
                             1539.92  1555.63  1601.60  1643.93  1657.14
                             1708.70  1741.29  1757.69  1851.24  1856.98
                             1881.73  1905.04  1927.97  1975.84  2015.37
                             2061.41  2077.02  2081.24  2114.48  2165.93
                             2171.83  2177.61  2187.68  2195.39  2207.20
                             2213.89  2229.52  2354.67  2380.24  2464.03
                             4330.74  4380.17  4381.36  4391.24  4398.48
                             4442.10  4464.02  4484.70  4509.80  4514.54
                             4565.26  4578.79  4582.39  4604.41  4655.01
                             4690.27

 Zero-point correction=                           0.252332 (Hartree/Particle)
 Thermal correction to Energy=                    0.265671
 Thermal correction to Enthalpy=                  0.266615
 Thermal correction to Gibbs Free Energy=         0.212184
 Sum of electronic and zero-point Energies=           -541.915001
 Sum of electronic and thermal Energies=              -541.901663
 Sum of electronic and thermal Enthalpies=            -541.900718
 Sum of electronic and thermal Free Energies=         -541.955150

                     E (Thermal)             CV                S
                      KCal/Mol        Cal/Mol-Kelvin    Cal/Mol-Kelvin
 Total                  166.711             50.443            114.560
 Electronic               0.000              0.000              0.000
 Translational            0.889              2.981             41.405
 Rotational               0.889              2.981             31.547
 Vibrational            164.933             44.482             41.608
 Vibration     1          0.594              1.980              5.173
 Vibration     2          0.596              1.977              4.748
 Vibration     3          0.600              1.961              3.816
 Vibration     4          0.605              1.946              3.381
 Vibration     5          0.618              1.905              2.694
 Vibration     6          0.623              1.888              2.516
 Vibration     7          0.647              1.812              1.967
 Vibration     8          0.650              1.800              1.905
 Vibration     9          0.662              1.765              1.739
 Vibration    10          0.666              1.751              1.683
 Vibration    11          0.681              1.708              1.524
 Vibration    12          0.696              1.664              1.388
 Vibration    13          0.729              1.569              1.153
 Vibration    14          0.758              1.492              1.001
 Vibration    15          0.789              1.411              0.867
 Vibration    16          0.840              1.286              0.700
 Vibration    17          0.854              1.253              0.662
 Vibration    18          0.919              1.111              0.518
 Vibration    19          0.936              1.075              0.486
 Vibration    20          0.971              1.007              0.430

 Optimization completed.
    -- Stationary point found.
 Normal termination of Gaussian 16 at Wed Dec  9 22:32:34 2020.

 ----------------------------------------------------------------------
 # B3LYP/6-311++G(d,p) empiricaldispersion=gd3bj scf=xqc pop=npa geom=c
 heck
 ----------------------------------------------------------------------

 --------------------------------------
 CID_89017651_JID_3145_Energie_neutraal
 --------------------------------------
 Structure from the checkpoint file:  "JID_3145.chk"
 Charge =  0 Multiplicity = 1

 SCF Done:  E(RB3LYP) =  -542.313553895     A.U. after   14 cycles
 Normal termination of Gaussian 16 at Wed Dec  9 22:35:48 2020.

 ----------------------------------------------------------------------
 # B3LYP/6-311++G(d,p) empiricaldispersion=gd3bj scf=xqc pop=npa geom=c
 heck
 ----------------------------------------------------------------------

 ------------------------------------
 CID_89017651_JID_3145_Energie_kation
 ------------------------------------
 Structure from the checkpoint file:  "JID_3145.chk"
 Charge =  1 Multiplicity = 2

 SCF Done:  E(UB3LYP) =  -542.031733761     A.U. after   22 cycles
 Normal termination of Gaussian 16 at Wed Dec  9 22:42:41 2020.
 Gaussian 16:  ES64L-G16RevA.03 25-Dec-2016

 ----------------------------------------------------------------------
 # B3LYP/6-311++G(d,p) empiricaldispersion=gd3bj scf=xqc pop=npa geom=c
 heck
 ----------------------------------------------------------------------

 -----------------------------------
 CID_89017651_JID_3145_Energie_anion
 -----------------------------------
 Structure from the checkpoint file:  "JID_3145.chk"
 Charge = -1 Multiplicity = 2

                         Standard orientation:
 ---------------------------------------------------------------------
 Center     Atomic      Atomic             Coordinates (Angstroms)
 Number     Number       Type             X           Y           Z
 ---------------------------------------------------------------------
      1          6           0        3.887068    0.859325    0.870521
      2          6           0        3.697096   -0.011626   -0.373227
      3          6           0        2.448373   -0.878776   -0.310905
      4          8           0        1.319673   -0.011283   -0.264405
      5          6           0        0.072560   -0.551776   -0.124904
      6          6           0       -0.164632   -1.926301   -0.110755
      7          6           0       -1.472950   -2.387900    0.031149
      8          6           0       -2.522704   -1.488669    0.164197
      9          6           0       -2.301270   -0.104363    0.146284
     10          6           0       -0.986681    0.385852   -0.009319
     11          6           0       -0.617502    1.811716   -0.006276
     12          6           0       -1.314440    2.847133   -0.491417
     13          6           0       -3.491693    0.806285    0.329017
     14          1           0        3.968674    0.242287    1.773710
     15          1           0        3.038594    1.536801    1.003498
     16          1           0        4.797289    1.463236    0.792832
     17          1           0        3.639841    0.616711   -1.270400
     18          1           0        4.559680   -0.677618   -0.505698
     19          1           0        2.379845   -1.529525   -1.193956
     20          1           0        2.463887   -1.518427    0.583930
     21          1           0        0.649723   -2.632677   -0.212245
     22          1           0       -1.664873   -3.457176    0.044986
     23          1           0       -3.536857   -1.856585    0.293148
     24          1           0        0.363202    2.017469    0.415675
     25          1           0       -0.917385    3.856152   -0.425585
     26          1           0       -2.271504    2.738256   -0.988930
     27          1           0       -3.871123    1.179725   -0.630541
     28          1           0       -4.311565    0.265090    0.811359
     29          1           0       -3.244169    1.681151    0.937278
 ---------------------------------------------------------------------

 SCF Done:  E(UB3LYP) =  -542.299291834     A.U. after   33 cycles
 SCF Done:  E(UB3LYP) =  -542.299291834     a.u. after    1 cycles

 The electronic state is 2-A.
 Alpha  occ. eigenvalues --  -19.03449 -10.11362 -10.11012 -10.06401 -10.06061
 Alpha  occ. eigenvalues --  -10.06042 -10.05493 -10.05154 -10.05115 -10.04912
 Alpha  occ. eigenvalues --  -10.04888 -10.04872 -10.03757  -0.95202  -0.74231
 Alpha  occ. eigenvalues --   -0.68401  -0.67099  -0.64662  -0.61059  -0.57831
 Alpha  occ. eigenvalues --   -0.57271  -0.50248  -0.49638  -0.46012  -0.43733
 Alpha  occ. eigenvalues --   -0.41184  -0.37895  -0.36715  -0.36466  -0.33551
 Alpha  occ. eigenvalues --   -0.32267  -0.31934  -0.31378  -0.31048  -0.29684
 Alpha  occ. eigenvalues --   -0.28255  -0.27238  -0.26680  -0.25457  -0.24383
 Alpha  occ. eigenvalues --   -0.24002  -0.23281  -0.22810  -0.20318  -0.19945
 Alpha  occ. eigenvalues --   -0.17331  -0.12188  -0.10168   0.05086
 Alpha virt. eigenvalues --    0.06849   0.07616   0.08061   0.08852   0.09333
 Alpha virt. eigenvalues --    0.09636   0.10446   0.10952   0.11202   0.12067
 Alpha virt. eigenvalues --    0.12137   0.12438   0.12998   0.13632   0.13720

  Beta  occ. eigenvalues --  -19.03448 -10.11337 -10.10989 -10.06303 -10.06048
  Beta  occ. eigenvalues --  -10.06034 -10.05418 -10.05129 -10.04978 -10.04912
  Beta  occ. eigenvalues --  -10.04858 -10.04851 -10.03591  -0.95182  -0.74071
  Beta  occ. eigenvalues --   -0.68338  -0.66869  -0.64522  -0.60870  -0.57774
  Beta  occ. eigenvalues --   -0.57167  -0.50048  -0.49448  -0.45913  -0.43539
  Beta  occ. eigenvalues --   -0.41106  -0.37823  -0.36643  -0.36383  -0.33438
  Beta  occ. eigenvalues --   -0.32211  -0.31848  -0.31274  -0.30972  -0.29597
  Beta  occ. eigenvalues --   -0.28194  -0.27121  -0.26602  -0.25382  -0.24306
  Beta  occ. eigenvalues --   -0.23860  -0.23200  -0.22744  -0.20169  -0.19809
  Beta  occ. eigenvalues --   -0.16590  -0.11691  -0.09629
  Beta virt. eigenvalues --    0.07433   0.07884   0.08178   0.08753   0.09335
  Beta virt. eigenvalues --    0.09541   0.09932   0.10465   0.11316   0.11579
  Beta virt. eigenvalues --    0.12114   0.12443   0.12706   0.13349   0.13679

 Mulliken charges and spin densities:
               1          2
     1  C    0.495275  -0.946244
     2  C    0.047326  -0.549466
     3  C    0.460619  -0.469439
     4  O   -0.053879   0.033457
     5  C   -0.505420  -0.245151
     6  C    0.855185  -0.716978
     7  C   -0.544427   0.301207
     8  C   -0.543344  -0.085132
     9  C    0.352365   0.223140
    10  C    0.270681   0.445842
    11  C    0.221571  -0.175108
    12  C   -0.692507   0.207902
    13  C   -0.540043  -0.017432
    14  H   -0.058000   0.175326
    15  H    0.005884   0.131897
    16  H   -0.337912   0.480050
    17  H    0.087356   0.053696
    18  H   -0.700692   0.860095
    19  H   -0.319487   0.484039
    20  H    0.051743   0.099736
    21  H   -0.358356   0.518069
    22  H   -0.081936   0.218368
    23  H    0.081155   0.004642
    24  H    0.195767  -0.031469
    25  H    0.100201  -0.004218
    26  H    0.099648  -0.006085
    27  H    0.146484   0.003853
    28  H    0.112849   0.005713
    29  H    0.151893  -0.000309
 Sum of Mulliken charges =  -1.00000   1.00000

 Dipole moment (field-independent basis, Debye):
    X=             -7.2705    Y=              1.8872    Z=              0.8189  Tot=              7.5560
 Quadrupole moment (field-independent basis, Debye-Ang):
   XX=           -150.2097   YY=           -117.0267   ZZ=           -102.2186
   XY=              6.3784   XZ=              1.3009   YZ=             -1.5615

 Summary of Natural Population Analysis:

                                       Natural Population
                Natural  -----------------------------------------------
    Atom  No    Charge         Core      Valence    Rydberg      Total
 -----------------------------------------------------------------------
      C    1   -0.28682      0.99966     2.28114    0.00602     3.28682
      C    2   -0.19794      0.99964     2.18881    0.00949     3.19794
      C    3   -0.00844      0.99956     1.99634    0.01253     3.00844
      O    4   -0.28079      0.99985     3.27167    0.00928     4.28079
      C    5    0.18313      0.99937     1.80482    0.01268     2.81687
      C    6   -0.15025      0.99952     2.14172    0.00901     3.15025
      C    7   -0.06819      0.99958     2.05738    0.01124     3.06819
      C    8   -0.12916      0.99952     2.12091    0.00873     3.12916
      C    9    0.00989      0.99950     1.98134    0.00927     2.99011
      C   10   -0.04912      0.99943     2.03954    0.01015     3.04912
      C   11   -0.08732      0.99956     2.07773    0.01003     3.08732
      C   12   -0.16616      0.99959     2.15973    0.00684     3.16616
      C   13   -0.29334      0.99964     2.28901    0.00468     3.29334
      H   14    0.09531      0.00000     0.40374    0.00095     0.40469
      H   15    0.10040      0.00000     0.39830    0.00131     0.39960
      H   16    0.09803      0.00000     0.40087    0.00110     0.40197
      H   17    0.09650      0.00000     0.40228    0.00123     0.40350
      H   18    0.10106      0.00000     0.39582    0.00312     0.39894
      H   19    0.08841      0.00000     0.40958    0.00202     0.41159
      H   20    0.08212      0.00000     0.41624    0.00164     0.41788
      H   21    0.10475      0.00000     0.39384    0.00141     0.39525
      H   22    0.09393      0.00000     0.40526    0.00080     0.40607
      H   23    0.09220      0.00000     0.40691    0.00090     0.40780
      H   24    0.09890      0.00000     0.39894    0.00216     0.40110
      H   25    0.08617      0.00000     0.41287    0.00096     0.41383
      H   26    0.08407      0.00000     0.41490    0.00103     0.41593
      H   27    0.09914      0.00000     0.39979    0.00107     0.40086
      H   28    0.09494      0.00000     0.40421    0.00085     0.40506
      H   29    0.10860      0.00000     0.39045    0.00095     0.39140
 =======================================================================
   * Total *   -0.00000     12.99442    34.86414    0.14145    48.00000

 Normal termination of Gaussian 16 at Wed Dec  9 22:53:24 2020.
