 Gaussian 16, Revision A.03,

 -----------------------------------------------------------
 # opt freq B3LYP/6-31G(d) empiricaldispersion=gd3bj scf=xqc
 -----------------------------------------------------------

 -------------------------------
 CID_115084839_JID_1708_neutraal
 -------------------------------
 Symbolic Z-matrix:
 Charge =  0 Multiplicity = 1

 SCF Done:  E(RB3LYP) =  -533.920234513     A.U. after   14 cycles
 SCF Done:  E(RB3LYP) =  -533.924207675     A.U. after   12 cycles
 SCF Done:  E(RB3LYP) =  -533.924230837     A.U. after   12 cycles
 SCF Done:  E(RB3LYP) =  -533.924677780     A.U. after   11 cycles
 SCF Done:  E(RB3LYP) =  -533.924819082     A.U. after   11 cycles
 SCF Done:  E(RB3LYP) =  -533.924866137     A.U. after   10 cycles
 SCF Done:  E(RB3LYP) =  -533.924886898     A.U. after   10 cycles
 SCF Done:  E(RB3LYP) =  -533.924893547     A.U. after   10 cycles
 SCF Done:  E(RB3LYP) =  -533.924899740     A.U. after   10 cycles
 SCF Done:  E(RB3LYP) =  -533.924902752     A.U. after   10 cycles
 SCF Done:  E(RB3LYP) =  -533.924904207     A.U. after   10 cycles
 SCF Done:  E(RB3LYP) =  -533.924905746     A.U. after    9 cycles
 SCF Done:  E(RB3LYP) =  -533.924906023     A.U. after    8 cycles
 SCF Done:  E(RB3LYP) =  -533.924906058     A.U. after    6 cycles
 SCF Done:  E(RB3LYP) =  -533.924906079     A.U. after    7 cycles
 Optimization completed.
    -- Stationary point found.
 Normal termination of Gaussian 16 at Tue Dec  8 20:56:17 2020.

 --------------------------------------------------------------------
 #N Geom=AllCheck Guess=TCheck SCRF=Check GenChk RB3LYP/6-31G(d) Freq
 --------------------------------------------------------------------

 Structure from the checkpoint file:  "JID_1708.chk"
 -------------------------------
 CID_115084839_JID_1708_neutraal
 -------------------------------
 Charge =  0 Multiplicity = 1

 SCF Done:  E(RB3LYP) =  -533.924906079     A.U. after    1 cycles

  Exact polarizability: 109.472  -4.379  91.531  -5.884  -1.953  68.298
 Approx polarizability: 139.110  -4.508 144.778 -11.450  -7.990 101.159

                      1                      2                      3
                      A                      A                      A
 Frequencies --     26.0347                65.4140                97.8406
 Red. masses --      4.1501                 4.6876                 3.0865
 Frc consts  --      0.0017                 0.0118                 0.0174
 IR Inten    --      0.3348                 2.7344                 2.9333

                      4                      5                      6
                      A                      A                      A
 Frequencies --    111.6997               153.1194               176.6486
 Red. masses --      3.9886                 3.7854                 3.6513
 Frc consts  --      0.0293                 0.0523                 0.0671
 IR Inten    --      1.1173                 1.5610                 1.2160

                      7                      8                      9
                      A                      A                      A
 Frequencies --    235.3884               264.4490               319.0777
 Red. masses --      1.7011                 1.7137                 1.8644
 Frc consts  --      0.0555                 0.0706                 0.1118
 IR Inten    --     20.8804                28.3868                 5.6886

                     10                     11                     12
                      A                      A                      A
 Frequencies --    349.2752               408.5706               446.6762
 Red. masses --      3.2144                 3.0952                 3.8363
 Frc consts  --      0.2310                 0.3044                 0.4510
 IR Inten    --      0.9982                 6.3304                 4.8106

                     13                     14                     15
                      A                      A                      A
 Frequencies --    502.2576               526.5086               627.4960
 Red. masses --      1.0621                 2.6643                 3.7032
 Frc consts  --      0.1579                 0.4352                 0.8591
 IR Inten    --    103.9979                 0.5866                 8.1232

                     16                     17                     18
                      A                      A                      A
 Frequencies --    669.7767               715.8396               755.1807
 Red. masses --      4.4190                 3.7246                 2.2695
 Frc consts  --      1.1680                 1.1245                 0.7626
 IR Inten    --      1.0473                10.9649                 4.5865

                     19                     20                     21
                      A                      A                      A
 Frequencies --    804.5821               848.1368               865.8822
 Red. masses --      2.3653                 1.2968                 2.7357
 Frc consts  --      0.9021                 0.5496                 1.2085
 IR Inten    --      4.8331                47.0984                 3.6626

                     22                     23                     24
                      A                      A                      A
 Frequencies --    869.2096               942.7347               974.9597
 Red. masses --      1.3455                 2.6135                 2.9523
 Frc consts  --      0.5989                 1.3685                 1.6534
 IR Inten    --     73.5198                18.4105                 1.2317

                     25                     26                     27
                      A                      A                      A
 Frequencies --    998.1384              1020.6828              1031.4301
 Red. masses --      2.6383                 3.0924                 2.0086
 Frc consts  --      1.5487                 1.8982                 1.2590
 IR Inten    --     77.9892                 6.5649                26.7134

                     28                     29                     30
                      A                      A                      A
 Frequencies --   1065.0175              1087.5026              1105.5198
 Red. masses --      3.0142                 2.1784                 2.9895
 Frc consts  --      2.0143                 1.5179                 2.1527
 IR Inten    --     16.2618                14.8921                62.1312

                     31                     32                     33
                      A                      A                      A
 Frequencies --   1146.3228              1191.3973              1207.1274
 Red. masses --      2.1071                 1.3045                 1.8657
 Frc consts  --      1.6314                 1.0909                 1.6018
 IR Inten    --     29.7926                 2.0422                 1.8058

                     34                     35                     36
                      A                      A                      A
 Frequencies --   1214.6870              1241.3352              1267.1210
 Red. masses --      1.2504                 2.6142                 1.8017
 Frc consts  --      1.0870                 2.3734                 1.7044
 IR Inten    --     19.2868                 4.6867                 7.1601

                     37                     38                     39
                      A                      A                      A
 Frequencies --   1300.4161              1319.7289              1363.1349
 Red. masses --      1.4197                 1.2397                 1.4594
 Frc consts  --      1.4145                 1.2722                 1.5977
 IR Inten    --     21.2801                 1.4704                 3.2190

                     40                     41                     42
                      A                      A                      A
 Frequencies --   1386.9441              1407.3626              1431.0333
 Red. masses --      1.5735                 1.6642                 1.2649
 Frc consts  --      1.7833                 1.9420                 1.5261
 IR Inten    --      6.1222                11.2595                11.3897

                     43                     44                     45
                      A                      A                      A
 Frequencies --   1439.5144              1444.4963              1502.8325
 Red. masses --      1.2446                 1.4498                 1.0925
 Frc consts  --      1.5196                 1.7824                 1.4537
 IR Inten    --     40.5706                36.0507                 6.3154

                     46                     47                     48
                      A                      A                      A
 Frequencies --   1512.3486              1525.2414              1536.3192
 Red. masses --      1.1138                 1.0834                 1.0850
 Frc consts  --      1.5009                 1.4850                 1.5089
 IR Inten    --      7.9367                 0.8573                 0.8302

                     49                     50                     51
                      A                      A                      A
 Frequencies --   1626.4703              1661.5566              1694.5530
 Red. masses --      8.5509                 5.7494                 1.1345
 Frc consts  --     13.3277                 9.3519                 1.9195
 IR Inten    --     45.7671                 9.4730                29.4263

                     52                     53                     54
                      A                      A                      A
 Frequencies --   2976.5496              3019.4617              3050.0641
 Red. masses --      1.0715                 1.0687                 1.0608
 Frc consts  --      5.5931                 5.7405                 5.8145
 IR Inten    --     67.6411                45.6232                27.4545

                     55                     56                     57
                      A                      A                      A
 Frequencies --   3056.0512              3074.8695              3090.5607
 Red. masses --      1.0896                 1.0669                 1.0944
 Frc consts  --      5.9956                 5.9435                 6.1588
 IR Inten    --     24.8368                 2.3390                43.1945

                     58                     59                     60
                      A                      A                      A
 Frequencies --   3101.6126              3136.1252              3274.2050
 Red. masses --      1.1022                 1.1010                 1.0981
 Frc consts  --      6.2472                 6.3800                 6.9359
 IR Inten    --     62.7073                 8.2827                 6.7741

                     61                     62                     63
                      A                      A                      A
 Frequencies --   3469.3653              3559.6381              3734.3462
 Red. masses --      1.0495                 1.0932                 1.0658
 Frc consts  --      7.4430                 8.1616                 8.7571
 IR Inten    --      2.2727                 0.3168                71.9287

 - Thermochemistry -
 -------------------
 Temperature   298.150 Kelvin.  Pressure   1.00000 Atm.
 Atom     1 has atomic number  6 and mass  12.00000

 Molecular mass:   156.08988 amu.
 Principal axes and moments of inertia in atomic units:
                           1         2         3
     Eigenvalues --  1079.826502349.775513083.14871
           X            0.99969  -0.02487  -0.00029
           Y            0.02488   0.99963   0.01072
           Z            0.00002  -0.01073   0.99994
 This molecule is an asymmetric top.
 Rotational symmetry number  1.
 Warning -- assumption of classical behavior for rotation
           may cause significant error
 Rotational temperatures (Kelvin)      0.08021     0.03686     0.02809
 Rotational constants (GHZ):           1.67133     0.76805     0.58536
 Zero-point vibrational energy     514560.8 (Joules/Mol)
                                  122.98297 (Kcal/Mol)
 Warning -- explicit consideration of  14 degrees of freedom as
           vibrations may cause significant error
 Vibrational temperatures:     37.46    94.12   140.77   160.71   220.30
          (Kelvin)            254.16   338.67   380.48   459.08   502.53
                              587.84   642.67   722.64   757.53   902.83
                              963.66  1029.93  1086.54  1157.61  1220.28
                             1245.81  1250.60  1356.38  1402.75  1436.10
                             1468.53  1484.00  1532.32  1564.67  1590.60
                             1649.30  1714.15  1736.79  1747.66  1786.00
                             1823.10  1871.01  1898.80  1961.25  1995.50
                             2024.88  2058.94  2071.14  2078.31  2162.24
                             2175.93  2194.48  2210.42  2340.13  2390.61
                             2438.08  4282.59  4344.33  4388.36  4396.98
                             4424.05  4446.63  4462.53  4512.18  4710.85
                             4991.64  5121.53  5372.89

 Zero-point correction=                           0.195986 (Hartree/Particle)
 Thermal correction to Energy=                    0.207114
 Thermal correction to Enthalpy=                  0.208058
 Thermal correction to Gibbs Free Energy=         0.157852
 Sum of electronic and zero-point Energies=           -533.728920
 Sum of electronic and thermal Energies=              -533.717792
 Sum of electronic and thermal Enthalpies=            -533.716848
 Sum of electronic and thermal Free Energies=         -533.767054

                     E (Thermal)             CV                S
                      KCal/Mol        Cal/Mol-Kelvin    Cal/Mol-Kelvin
 Total                  129.966             40.578            105.667
 Electronic               0.000              0.000              0.000
 Translational            0.889              2.981             41.045
 Rotational               0.889              2.981             30.437
 Vibrational            128.189             34.616             34.185
 Vibration     1          0.593              1.985              6.111
 Vibration     2          0.597              1.971              4.287
 Vibration     3          0.603              1.951              3.497
 Vibration     4          0.607              1.940              3.239
 Vibration     5          0.619              1.899              2.633
 Vibration     6          0.628              1.871              2.364
 Vibration     7          0.655              1.787              1.837
 Vibration     8          0.671              1.738              1.632
 Vibration     9          0.705              1.637              1.315
 Vibration    10          0.727              1.577              1.169
 Vibration    11          0.773              1.452              0.932
 Vibration    12          0.806              1.368              0.806
 Vibration    13          0.858              1.245              0.653
 Vibration    14          0.881              1.191              0.595

 Optimization completed.
    -- Stationary point found.
 Normal termination of Gaussian 16 at Tue Dec  8 21:01:10 2020.

 ----------------------------------------------------------------------
 # B3LYP/6-311++G(d,p) empiricaldispersion=gd3bj scf=xqc pop=npa geom=c
 heck
 ----------------------------------------------------------------------

 ---------------------------------------
 CID_115084839_JID_1708_Energie_neutraal
 ---------------------------------------
 Structure from the checkpoint file:  "JID_1708.chk"
 Charge =  0 Multiplicity = 1

 SCF Done:  E(RB3LYP) =  -534.093710439     A.U. after   14 cycles
 Normal termination of Gaussian 16 at Tue Dec  8 21:05:00 2020.

 ----------------------------------------------------------------------
 # B3LYP/6-311++G(d,p) empiricaldispersion=gd3bj scf=xqc pop=npa geom=c
 heck
 ----------------------------------------------------------------------

 -------------------------------------
 CID_115084839_JID_1708_Energie_kation
 -------------------------------------
 Structure from the checkpoint file:  "JID_1708.chk"
 Charge =  1 Multiplicity = 2

 SCF Done:  E(UB3LYP) =  -533.772499082     A.U. after   25 cycles
 Normal termination of Gaussian 16 at Tue Dec  8 21:11:27 2020.
 Gaussian 16:  ES64L-G16RevA.03 25-Dec-2016

 ----------------------------------------------------------------------
 # B3LYP/6-311++G(d,p) empiricaldispersion=gd3bj scf=xqc pop=npa geom=c
 heck
 ----------------------------------------------------------------------

 ------------------------------------
 CID_115084839_JID_1708_Energie_anion
 ------------------------------------
 Structure from the checkpoint file:  "JID_1708.chk"
 Charge = -1 Multiplicity = 2

                         Standard orientation:
 ---------------------------------------------------------------------
 Center     Atomic      Atomic             Coordinates (Angstroms)
 Number     Number       Type             X           Y           Z
 ---------------------------------------------------------------------
      1          6           0        1.479403    1.674405   -0.459509
      2          6           0        1.575795    0.329976   -0.298201
      3          8           0        0.370352   -0.092175    0.223880
      4          6           0       -0.393175    1.042282    0.341625
      5          7           0        0.221772    2.114889   -0.053088
      6          6           0       -1.776249    0.869070    0.866179
      7          6           0       -2.769447    0.276134   -0.157680
      8          6           0       -2.297615   -1.042649   -0.784854
      9          8           0       -1.877504   -1.996976    0.180221
     10          6           0        2.630353   -0.688583   -0.548541
     11          7           0        2.984961   -1.398364    0.686614
     12          1           0        2.224059    2.359916   -0.838940
     13          1           0       -1.738241    0.207030    1.738136
     14          1           0       -2.127482    1.847782    1.202200
     15          1           0       -3.719682    0.111085    0.363447
     16          1           0       -2.954942    1.003700   -0.958243
     17          1           0       -3.128495   -1.497784   -1.334600
     18          1           0       -1.497836   -0.844806   -1.513568
     19          1           0       -0.963364   -1.770202    0.416361
     20          1           0        2.255241   -1.437185   -1.258885
     21          1           0        3.465981   -0.169049   -1.048829
     22          1           0        3.667233   -2.124837    0.477260
     23          1           0        3.433209   -0.751930    1.334061
 ---------------------------------------------------------------------

 SCF Done:  E(UB3LYP) =  -534.081770527     A.U. after   33 cycles
 SCF Done:  E(UB3LYP) =  -534.082093012     a.u. after    5 cycles

 The electronic state is 2-A.
 Alpha  occ. eigenvalues --  -19.09335 -19.02326 -14.20880 -14.17902 -10.15841
 Alpha  occ. eigenvalues --  -10.12391 -10.12360 -10.09656 -10.09369 -10.08855
 Alpha  occ. eigenvalues --  -10.08764  -1.02737  -0.92592  -0.81869  -0.77329
 Alpha  occ. eigenvalues --   -0.71870  -0.66375  -0.60929  -0.56043  -0.52597
 Alpha  occ. eigenvalues --   -0.50046  -0.46684  -0.42997  -0.40277  -0.38855
 Alpha  occ. eigenvalues --   -0.38003  -0.36452  -0.35309  -0.33856  -0.32698
 Alpha  occ. eigenvalues --   -0.31294  -0.29861  -0.28963  -0.27982  -0.27418
 Alpha  occ. eigenvalues --   -0.27003  -0.23534  -0.21999  -0.19158  -0.18314
 Alpha  occ. eigenvalues --   -0.13828  -0.13302   0.04776
 Alpha virt. eigenvalues --    0.06401   0.07982   0.08414   0.09313   0.09496
 Alpha virt. eigenvalues --    0.09703   0.10131   0.11510   0.11849   0.12435
 Alpha virt. eigenvalues --    0.13122   0.14000   0.14488   0.15255   0.16306

  Beta  occ. eigenvalues --  -19.09302 -19.02320 -14.20893 -14.17828 -10.15804
  Beta  occ. eigenvalues --  -10.12379 -10.12347 -10.09655 -10.09319 -10.08815
  Beta  occ. eigenvalues --  -10.08756  -1.02684  -0.92578  -0.81845  -0.77205
  Beta  occ. eigenvalues --   -0.71833  -0.66307  -0.60867  -0.55926  -0.52556
  Beta  occ. eigenvalues --   -0.49990  -0.46637  -0.42964  -0.40197  -0.38790
  Beta  occ. eigenvalues --   -0.37946  -0.36393  -0.35233  -0.33793  -0.32621
  Beta  occ. eigenvalues --   -0.31233  -0.29796  -0.28932  -0.27947  -0.27390
  Beta  occ. eigenvalues --   -0.26934  -0.23518  -0.21927  -0.19157  -0.18299
  Beta  occ. eigenvalues --   -0.13689  -0.13201
  Beta virt. eigenvalues --    0.06429   0.07843   0.08184   0.09092   0.09518
  Beta virt. eigenvalues --    0.10083   0.10349   0.10643   0.11637   0.12517
  Beta virt. eigenvalues --    0.12949   0.13305   0.14383   0.14768   0.15366

 Mulliken charges and spin densities:
               1          2
     1  C   -1.195733   1.034750
     2  C   -1.074274   1.474601
     3  O   -0.073931   0.060864
     4  C   -0.117336   0.014653
     5  N   -0.106000   0.094660
     6  C    0.435474  -1.024386
     7  C   -0.044811   0.089671
     8  C   -0.155107  -0.354148
     9  O   -0.247188  -0.015620
    10  C    4.236939  -4.927576
    11  N   -0.572004   0.230366
    12  H   -0.849570   1.028671
    13  H    0.155379   0.056525
    14  H    0.111503   0.047680
    15  H    0.154382  -0.006583
    16  H   -0.011947   0.134497
    17  H   -0.160545   0.322118
    18  H    0.131005   0.039385
    19  H    0.253729   0.026100
    20  H   -0.610750   0.792560
    21  H   -0.804316   0.970081
    22  H   -0.302943   0.546660
    23  H   -0.151956   0.364470
 Sum of Mulliken charges =  -1.00000   1.00000

 Dipole moment (field-independent basis, Debye):
    X=            -10.0470    Y=              2.8805    Z=              1.8299  Tot=             10.6108
 Quadrupole moment (field-independent basis, Debye-Ang):
   XX=           -137.1590   YY=           -111.1965   ZZ=            -93.1426
   XY=              4.1871   XZ=              3.4259   YZ=              2.5399

 Summary of Natural Population Analysis:

                                       Natural Population
                Natural  -----------------------------------------------
    Atom  No    Charge         Core      Valence    Rydberg      Total
 -----------------------------------------------------------------------
      C    1   -0.03894      0.99948     2.02634    0.01312     3.03894
      C    2    0.13838      0.99946     1.84604    0.01612     2.86162
      O    3   -0.25216      0.99985     3.24320    0.00912     4.25216
      C    4    0.26980      0.99959     1.71085    0.01976     2.73020
      N    5   -0.25848      0.99968     2.74880    0.01000     3.75848
      C    6   -0.22305      0.99958     2.21480    0.00867     3.22305
      C    7   -0.19477      0.99963     2.18781    0.00733     3.19477
      C    8   -0.01338      0.99960     2.00187    0.01191     3.01338
      O    9   -0.37761      0.99990     3.37049    0.00722     4.37761
      C   10   -0.11228      0.99960     2.09985    0.01283     3.11228
      N   11   -0.41908      0.99977     2.90827    0.01104     3.91908
      H   12    0.10410      0.00000     0.39435    0.00156     0.39590
      H   13    0.11019      0.00000     0.38829    0.00152     0.38981
      H   14    0.11266      0.00000     0.38619    0.00115     0.38734
      H   15    0.09485      0.00000     0.40389    0.00126     0.40515
      H   16    0.09883      0.00000     0.39972    0.00145     0.40117
      H   17    0.08421      0.00000     0.41437    0.00141     0.41579
      H   18    0.08168      0.00000     0.41671    0.00162     0.41832
      H   19    0.23985      0.00000     0.25692    0.00323     0.26015
      H   20    0.10193      0.00000     0.39489    0.00318     0.39807
      H   21    0.09596      0.00000     0.39591    0.00812     0.40404
      H   22    0.18193      0.00000     0.31052    0.00756     0.31807
      H   23    0.17537      0.00000     0.32109    0.00354     0.32463
 =======================================================================
   * Total *   -0.00000     10.99613    30.84115    0.16272    42.00000

 Normal termination of Gaussian 16 at Tue Dec  8 21:40:17 2020.
