 Gaussian 16, Revision A.03,

 ----------------------------------------------------------------------
 # opt=(cartesian,calcfc) freq B3LYP/6-31G(d) empiricaldispersion=gd3bj
  scf=xqc
 ----------------------------------------------------------------------

 -------------------------------
 CID_123552417_JID_1842_neutraal
 -------------------------------
 Symbolic Z-matrix:
 Charge =  0 Multiplicity = 1

 SCF Done:  E(RB3LYP) =  -481.984923948     A.U. after   13 cycles
 SCF Done:  E(RB3LYP) =  -481.984971361     A.U. after   10 cycles
 SCF Done:  E(RB3LYP) =  -481.984958344     A.U. after   10 cycles
 SCF Done:  E(RB3LYP) =  -481.984979453     A.U. after   10 cycles
 SCF Done:  E(RB3LYP) =  -481.984976541     A.U. after   10 cycles
 SCF Done:  E(RB3LYP) =  -481.984990438     A.U. after    9 cycles
 SCF Done:  E(RB3LYP) =  -481.984993526     A.U. after   10 cycles
 SCF Done:  E(RB3LYP) =  -481.984994008     A.U. after    9 cycles
 SCF Done:  E(RB3LYP) =  -481.984985682     A.U. after   10 cycles
 SCF Done:  E(RB3LYP) =  -481.984996147     A.U. after    9 cycles
 SCF Done:  E(RB3LYP) =  -481.984998240     A.U. after    8 cycles
 SCF Done:  E(RB3LYP) =  -481.984998322     A.U. after    7 cycles
 SCF Done:  E(RB3LYP) =  -481.984998315     A.U. after    7 cycles
 SCF Done:  E(RB3LYP) =  -481.984998325     A.U. after    6 cycles
 SCF Done:  E(RB3LYP) =  -481.984998319     A.U. after    7 cycles
 SCF Done:  E(RB3LYP) =  -481.984998326     A.U. after    6 cycles
 Optimization completed on the basis of negligible forces.
    -- Stationary point found.
 Normal termination of Gaussian 16 at Mon Jan  4 09:04:32 2021.

 --------------------------------------------------------------------
 #N Geom=AllCheck Guess=TCheck SCRF=Check GenChk RB3LYP/6-31G(d) Freq
 --------------------------------------------------------------------

 Structure from the checkpoint file:  "JID_1842.chk"
 -------------------------------
 CID_123552417_JID_1842_neutraal
 -------------------------------
 Charge =  0 Multiplicity = 1

 SCF Done:  E(RB3LYP) =  -481.984998326     A.U. after    1 cycles

  Exact polarizability:  86.312   5.302 117.913 -17.681   2.686  96.972
 Approx polarizability: 112.018  15.233 193.746 -32.209   5.909 155.732

                      1                      2                      3
                      A                      A                      A
 Frequencies --     10.0198                25.6863                44.0410
 Red. masses --      3.3290                 2.5428                 3.8110
 Frc consts  --      0.0002                 0.0010                 0.0044
 IR Inten    --      0.5905                 0.6761                 0.8195

                      4                      5                      6
                      A                      A                      A
 Frequencies --     49.9114                64.7494                79.8160
 Red. masses --      3.4987                 3.2936                 4.3381
 Frc consts  --      0.0051                 0.0081                 0.0163
 IR Inten    --      0.1285                 0.7162                 0.4541

                      7                      8                      9
                      A                      A                      A
 Frequencies --    110.7607               208.6780               227.1466
 Red. masses --      1.5191                 1.1478                 3.6039
 Frc consts  --      0.0110                 0.0294                 0.1096
 IR Inten    --      2.1291                 1.5126                 6.7206

                     10                     11                     12
                      A                      A                      A
 Frequencies --    264.0815               295.4182               382.3846
 Red. masses --      1.3269                 1.0382                 2.3767
 Frc consts  --      0.0545                 0.0534                 0.2048
 IR Inten    --      1.5112                22.5092                 3.0195

                     13                     14                     15
                      A                      A                      A
 Frequencies --    384.5838               418.3416               471.9639
 Red. masses --      2.9642                 3.0919                 2.3860
 Frc consts  --      0.2583                 0.3188                 0.3131
 IR Inten    --      0.2174                 0.3654                 4.5979

                     16                     17                     18
                      A                      A                      A
 Frequencies --    507.9564               538.0389               627.5381
 Red. masses --      2.4048                 6.4064                 1.4049
 Frc consts  --      0.3656                 1.0927                 0.3260
 IR Inten    --     61.0554                 3.4180               328.5078

                     19                     20                     21
                      A                      A                      A
 Frequencies --    637.0936               705.4220               763.8244
 Red. masses --      6.3438                 2.1238                 1.7046
 Frc consts  --      1.5171                 0.6227                 0.5859
 IR Inten    --      0.2235                10.2702                88.9579

                     22                     23                     24
                      A                      A                      A
 Frequencies --    816.1637               828.8920               838.8833
 Red. masses --      1.1126                 1.2604                 4.1677
 Frc consts  --      0.4367                 0.5102                 1.7280
 IR Inten    --      1.5297                 0.4800                 3.0763

                     25                     26                     27
                      A                      A                      A
 Frequencies --    863.6089               878.2842               949.7795
 Red. masses --      2.5459                 1.5070                 1.3228
 Frc consts  --      1.1187                 0.6849                 0.7031
 IR Inten    --     11.8103                13.2665                 0.0313

                     28                     29                     30
                      A                      A                      A
 Frequencies --    976.0618              1009.3221              1015.1810
 Red. masses --      1.2229                 2.8925                 5.8464
 Frc consts  --      0.6864                 1.7361                 3.5500
 IR Inten    --      0.3609                23.0274                 0.2256

                     31                     32                     33
                      A                      A                      A
 Frequencies --   1058.8268              1080.4611              1103.7549
 Red. masses --      2.1435                 1.5996                 2.2113
 Frc consts  --      1.4158                 1.1002                 1.5873
 IR Inten    --      1.5744                 2.2763                18.9803

                     34                     35                     36
                      A                      A                      A
 Frequencies --   1147.6701              1152.1786              1191.4748
 Red. masses --      1.7828                 1.2555                 1.0883
 Frc consts  --      1.3836                 0.9820                 0.9102
 IR Inten    --     59.4773                 1.8802                 1.3267

                     37                     38                     39
                      A                      A                      A
 Frequencies --   1192.0491              1210.6401              1212.9661
 Red. masses --      1.3215                 2.1253                 1.2326
 Frc consts  --      1.1064                 1.8353                 1.0685
 IR Inten    --      8.0571                86.0904                27.7063

                     40                     41                     42
                      A                      A                      A
 Frequencies --   1252.1777              1322.6411              1346.1555
 Red. masses --      1.6349                 3.1258                 1.1309
 Frc consts  --      1.5103                 3.2217                 1.2074
 IR Inten    --     10.2049                51.5327                 6.0666

                     43                     44                     45
                      A                      A                      A
 Frequencies --   1372.3797              1378.3736              1414.4988
 Red. masses --      4.1264                 1.4172                 1.2198
 Frc consts  --      4.5790                 1.5864                 1.4379
 IR Inten    --      6.6961                 1.5181                 7.3900

                     46                     47                     48
                      A                      A                      A
 Frequencies --   1440.6121              1500.7310              1513.5297
 Red. masses --      1.2818                 1.1300                 1.0557
 Frc consts  --      1.5674                 1.4995                 1.4249
 IR Inten    --     16.3996                 1.3638                 2.5425

                     49                     50                     51
                      A                      A                      A
 Frequencies --   1518.4904              1520.5641              1527.5451
 Red. masses --      1.1341                 2.0399                 1.0607
 Frc consts  --      1.5408                 2.7789                 1.4582
 IR Inten    --      3.2854                 1.3762                 2.2552

                     52                     53                     54
                      A                      A                      A
 Frequencies --   1539.2433              1546.2479              1553.2590
 Red. masses --      1.0531                 1.0778                 2.3778
 Frc consts  --      1.4701                 1.5183                 3.3799
 IR Inten    --      1.6221                 8.4487                55.0374

                     55                     56                     57
                      A                      A                      A
 Frequencies --   1647.7283              1669.3234              1696.3393
 Red. masses --      5.6567                 3.5157                 1.2951
 Frc consts  --      9.0486                 5.7721                 2.1958
 IR Inten    --      4.4145                35.7030               106.1821

                     58                     59                     60
                      A                      A                      A
 Frequencies --   2982.1863              2997.8000              3032.8944
 Red. masses --      1.0441                 1.0698                 1.0960
 Frc consts  --      5.4710                 5.6643                 5.9401
 IR Inten    --     50.8045                73.6720                49.9110

                     61                     62                     63
                      A                      A                      A
 Frequencies --   3057.3572              3101.7783              3124.5857
 Red. masses --      1.0387                 1.0927                 1.0997
 Frc consts  --      5.7203                 6.1940                 6.3259
 IR Inten    --     34.1250                 8.5298                45.9456

                     64                     65                     66
                      A                      A                      A
 Frequencies --   3128.1038              3147.6702              3173.5064
 Red. masses --      1.0983                 1.1002                 1.0864
 Frc consts  --      6.3316                 6.4225                 6.4465
 IR Inten    --     42.1007                 7.8937                17.3865

                     67                     68                     69
                      A                      A                      A
 Frequencies --   3174.4760              3191.1135              3196.9925
 Red. masses --      1.0878                 1.0895                 1.0936
 Frc consts  --      6.4588                 6.5366                 6.5857
 IR Inten    --      6.2301                 2.8435                37.4846

                     70                     71                     72
                      A                      A                      A
 Frequencies --   3214.2553              3550.0464              3648.5508
 Red. masses --      1.0972                 1.0479                 1.0980
 Frc consts  --      6.6787                 7.7811                 8.6119
 IR Inten    --     14.8968                10.5757                 7.8429

 - Thermochemistry -
 -------------------
 Temperature   298.150 Kelvin.  Pressure   1.00000 Atm.
 Atom     1 has atomic number  6 and mass  12.00000

 Molecular mass:   153.11536 amu.
 Principal axes and moments of inertia in atomic units:
                           1         2         3
     Eigenvalues --  1134.234103529.292483894.85635
           X            0.99991  -0.01237  -0.00472
           Y            0.01238   0.99992   0.00046
           Z            0.00471  -0.00052   0.99999
 This molecule is an asymmetric top.
 Rotational symmetry number  1.
 Warning -- assumption of classical behavior for rotation
           may cause significant error
 Rotational temperatures (Kelvin)      0.07636     0.02454     0.02224
 Rotational constants (GHZ):           1.59115     0.51136     0.46337
 Zero-point vibrational energy     597085.0 (Joules/Mol)
                                  142.70673 (Kcal/Mol)
 Warning -- explicit consideration of  17 degrees of freedom as
           vibrations may cause significant error
 Vibrational temperatures:     14.42    36.96    63.37    71.81    93.16
          (Kelvin)            114.84   159.36   300.24   326.81   379.95
                              425.04   550.17   553.33   601.90   679.05
                              730.84   774.12   902.89   916.64  1014.94
                             1098.97  1174.28  1192.59  1206.97  1242.54
                             1263.66  1366.52  1404.34  1452.19  1460.62
                             1523.42  1554.54  1588.06  1651.24  1657.73
                             1714.27  1715.09  1741.84  1745.19  1801.60
                             1902.99  1936.82  1974.55  1983.17  2035.15
                             2072.72  2159.22  2177.63  2184.77  2187.75
                             2197.80  2214.63  2224.71  2234.79  2370.71
                             2401.78  2440.65  4290.70  4313.17  4363.66
                             4398.86  4462.77  4495.58  4500.64  4528.80
                             4565.97  4567.36  4591.30  4599.76  4624.60
                             5107.73  5249.45

 Zero-point correction=                           0.227418 (Hartree/Particle)
 Thermal correction to Energy=                    0.240866
 Thermal correction to Enthalpy=                  0.241810
 Thermal correction to Gibbs Free Energy=         0.183441
 Sum of electronic and zero-point Energies=           -481.757581
 Sum of electronic and thermal Energies=              -481.744132
 Sum of electronic and thermal Enthalpies=            -481.743188
 Sum of electronic and thermal Free Energies=         -481.801557

                     E (Thermal)             CV                S
                      KCal/Mol        Cal/Mol-Kelvin    Cal/Mol-Kelvin
 Total                  151.146             46.607            122.847
 Electronic               0.000              0.000              0.000
 Translational            0.889              2.981             40.988
 Rotational               0.889              2.981             31.123
 Vibrational            149.368             40.645             50.737
 Vibration     1          0.593              1.987              8.007
 Vibration     2          0.593              1.985              6.137
 Vibration     3          0.595              1.980              5.068
 Vibration     4          0.595              1.978              4.821
 Vibration     5          0.597              1.971              4.307
 Vibration     6          0.600              1.963              3.895
 Vibration     7          0.607              1.941              3.256
 Vibration     8          0.642              1.827              2.055
 Vibration     9          0.651              1.800              1.901
 Vibration    10          0.671              1.739              1.635
 Vibration    11          0.690              1.682              1.443
 Vibration    12          0.752              1.508              1.030
 Vibration    13          0.754              1.503              1.021
 Vibration    14          0.781              1.430              0.898
 Vibration    15          0.829              1.312              0.732
 Vibration    16          0.863              1.232              0.639
 Vibration    17          0.893              1.166              0.570

 Optimization completed on the basis of negligible forces.
    -- Stationary point found.
 Normal termination of Gaussian 16 at Mon Jan  4 09:09:09 2021.

 ----------------------------------------------------------------------
 # B3LYP/6-311++G(d,p) empiricaldispersion=gd3bj scf=xqc pop=npa geom=c
 heck
 ----------------------------------------------------------------------

 ---------------------------------------
 CID_123552417_JID_1842_Energie_neutraal
 ---------------------------------------
 Structure from the checkpoint file:  "JID_1842.chk"
 Charge =  0 Multiplicity = 1

 SCF Done:  E(RB3LYP) =  -482.131925432     A.U. after   13 cycles
 Normal termination of Gaussian 16 at Mon Jan  4 09:10:51 2021.

 ----------------------------------------------------------------------
 # B3LYP/6-311++G(d,p) empiricaldispersion=gd3bj scf=xqc pop=npa geom=c
 heck
 ----------------------------------------------------------------------

 -------------------------------------
 CID_123552417_JID_1842_Energie_kation
 -------------------------------------
 Structure from the checkpoint file:  "JID_1842.chk"
 Charge =  1 Multiplicity = 2

 SCF Done:  E(UB3LYP) =  -481.843024380     A.U. after   23 cycles
 Normal termination of Gaussian 16 at Mon Jan  4 09:14:42 2021.
 Gaussian 16:  ES64L-G16RevA.03 25-Dec-2016

 ----------------------------------------------------------------------
 # B3LYP/6-311++G(d,p) empiricaldispersion=gd3bj scf=xqc pop=npa geom=c
 heck
 ----------------------------------------------------------------------

 ------------------------------------
 CID_123552417_JID_1842_Energie_anion
 ------------------------------------
 Structure from the checkpoint file:  "JID_1842.chk"
 Charge = -1 Multiplicity = 2

                         Standard orientation:
 ---------------------------------------------------------------------
 Center     Atomic      Atomic             Coordinates (Angstroms)
 Number     Number       Type             X           Y           Z
 ---------------------------------------------------------------------
      1          6           0       -1.475162    0.103888   -1.265671
      2          6           0       -2.038346   -0.426543    0.049722
      3          8           0       -3.458552   -0.474382    0.092627
      4          6           0       -4.066111    0.792557    0.199652
      5          6           0        1.505587   -1.880737    0.250085
      6          6           0        2.127592   -1.328775   -0.871509
      7          6           0        2.398794    0.035835   -0.936920
      8          6           0        2.049112    0.883064    0.128060
      9          6           0        1.425788    0.324110    1.255994
     10          6           0        1.161478   -1.042046    1.311900
     11          7           0        2.367558    2.243384    0.090461
     12          1           0       -1.880086   -0.468658   -2.107218
     13          1           0       -0.385585    0.007996   -1.268873
     14          1           0       -1.722430    1.160087   -1.421069
     15          1           0       -1.707447   -1.457854    0.203684
     16          1           0       -1.655238    0.169829    0.894048
     17          1           0       -3.678665    1.356297    1.065372
     18          1           0       -3.926885    1.409975   -0.700858
     19          1           0       -5.137308    0.623505    0.340970
     20          1           0        1.293844   -2.944289    0.296322
     21          1           0        2.402150   -1.964328   -1.709083
     22          1           0        2.886205    0.454608   -1.814323
     23          1           0        1.154793    0.967251    2.090115
     24          1           0        0.674953   -1.451751    2.192847
     25          1           0        1.786409    2.829854    0.676550
     26          1           0        2.458413    2.630725   -0.840617
 ---------------------------------------------------------------------

 SCF Done:  E(UB3LYP) =  -482.119834549     A.U. after   30 cycles

 The electronic state is 2-A.
 Alpha  occ. eigenvalues --  -19.01990 -14.20613 -10.11169 -10.10825 -10.10599
 Alpha  occ. eigenvalues --  -10.07594 -10.07556 -10.06692 -10.06655 -10.06581
 Alpha  occ. eigenvalues --  -10.04770  -0.93154  -0.81220  -0.73804  -0.65055
 Alpha  occ. eigenvalues --   -0.64630  -0.62565  -0.58270  -0.51245  -0.49796
 Alpha  occ. eigenvalues --   -0.49386  -0.42462  -0.40011  -0.38340  -0.37932
 Alpha  occ. eigenvalues --   -0.37743  -0.34877  -0.33441  -0.32711  -0.31943
 Alpha  occ. eigenvalues --   -0.30523  -0.29748  -0.27844  -0.26781  -0.26156
 Alpha  occ. eigenvalues --   -0.24824  -0.24367  -0.21177  -0.20996  -0.15832
 Alpha  occ. eigenvalues --   -0.15414  -0.10773   0.04590
 Alpha virt. eigenvalues --    0.07061   0.07262   0.07843   0.08453   0.09315
 Alpha virt. eigenvalues --    0.09547   0.09891   0.10144   0.10645   0.11350
 Alpha virt. eigenvalues --    0.12558   0.12908   0.13509   0.13617   0.14271

  Beta  occ. eigenvalues --  -19.01984 -14.20534 -10.11163 -10.10796 -10.10590
  Beta  occ. eigenvalues --  -10.07587 -10.07552 -10.06687 -10.06634 -10.06555
  Beta  occ. eigenvalues --  -10.04751  -0.93142  -0.81133  -0.73761  -0.65029
  Beta  occ. eigenvalues --   -0.64600  -0.62500  -0.58221  -0.51200  -0.49733
  Beta  occ. eigenvalues --   -0.49331  -0.42388  -0.39945  -0.38311  -0.37910
  Beta  occ. eigenvalues --   -0.37659  -0.34848  -0.33397  -0.32671  -0.31894
  Beta  occ. eigenvalues --   -0.30489  -0.29724  -0.27808  -0.26750  -0.26118
  Beta  occ. eigenvalues --   -0.24801  -0.24336  -0.21137  -0.20966  -0.15811
  Beta  occ. eigenvalues --   -0.15394  -0.10717
  Beta virt. eigenvalues --    0.06917   0.07596   0.08182   0.08457   0.08591
  Beta virt. eigenvalues --    0.09656   0.09955   0.10338   0.10470   0.10842
  Beta virt. eigenvalues --    0.11677   0.13087   0.13225   0.14002   0.14233

 Mulliken charges and spin densities:
               1          2
     1  C    0.023983  -0.367777
     2  C   -0.587359   0.278844
     3  O   -0.171308   0.030703
     4  C    0.616723  -0.887815
     5  C    0.180062  -0.497324
     6  C   -0.066826  -0.185676
     7  C    0.076607  -0.098220
     8  C    0.539415  -0.675590
     9  C    0.309055  -0.346138
    10  C   -0.058922  -0.129692
    11  N   -0.261728  -0.051012
    12  H    0.037363   0.095417
    13  H    0.019798   0.122717
    14  H   -0.099833   0.229737
    15  H    0.105061   0.044821
    16  H    0.391042  -0.276108
    17  H   -0.425544   0.552076
    18  H   -0.190073   0.319859
    19  H   -0.012240   0.139468
    20  H    0.140685  -0.009551
    21  H   -0.044172   0.197881
    22  H   -0.422734   0.581836
    23  H   -0.370641   0.538064
    24  H   -0.015009   0.174980
    25  H   -0.362595   0.617304
    26  H   -0.350810   0.601197
 Sum of Mulliken charges =  -1.00000   1.00000

 Dipole moment (field-independent basis, Debye):
    X=             -0.7422    Y=             -7.2557    Z=              0.3011  Tot=              7.2998
 Quadrupole moment (field-independent basis, Debye-Ang):
   XX=           -128.2390   YY=           -116.2813   ZZ=            -99.7929
   XY=             -7.6012   XZ=              3.6379   YZ=             -0.4538

 Summary of Natural Population Analysis:

                                       Natural Population
                Natural  -----------------------------------------------
    Atom  No    Charge         Core      Valence    Rydberg      Total
 -----------------------------------------------------------------------
      C    1   -0.30313      0.99966     2.29795    0.00553     3.30313
      C    2   -0.01061      0.99960     1.99838    0.01263     3.01061
      O    3   -0.30140      0.99989     3.29178    0.00973     4.30140
      C    4   -0.10004      0.99962     2.09049    0.00993     3.10004
      C    5   -0.13200      0.99956     2.12253    0.00991     3.13200
      C    6   -0.09640      0.99957     2.08652    0.01031     3.09640
      C    7   -0.12712      0.99952     2.11683    0.01077     3.12712
      C    8    0.08697      0.99949     1.90055    0.01299     2.91303
      C    9   -0.12533      0.99952     2.11423    0.01159     3.12533
      C   10   -0.09521      0.99956     2.08618    0.00947     3.09521
      N   11   -0.39311      0.99971     2.88291    0.01049     3.89311
      H   12    0.09414      0.00000     0.40487    0.00099     0.40586
      H   13    0.10976      0.00000     0.38819    0.00205     0.39024
      H   14    0.09811      0.00000     0.40044    0.00145     0.40189
      H   15    0.08657      0.00000     0.41182    0.00161     0.41343
      H   16    0.07997      0.00000     0.41817    0.00186     0.42003
      H   17    0.07997      0.00000     0.41834    0.00169     0.42003
      H   18    0.07928      0.00000     0.41930    0.00142     0.42072
      H   19    0.08546      0.00000     0.41354    0.00100     0.41454
      H   20    0.09806      0.00000     0.40108    0.00086     0.40194
      H   21    0.09856      0.00000     0.40064    0.00080     0.40144
      H   22    0.10288      0.00000     0.39585    0.00126     0.39712
      H   23    0.10368      0.00000     0.39491    0.00141     0.39632
      H   24    0.09904      0.00000     0.40004    0.00091     0.40096
      H   25    0.19173      0.00000     0.29874    0.00952     0.30827
      H   26    0.19018      0.00000     0.30171    0.00811     0.30982
 =======================================================================
   * Total *    0.00000     10.99569    30.85601    0.14830    42.00000

 Normal termination of Gaussian 16 at Mon Jan  4 09:19:35 2021.
