 Gaussian 16, Revision A.03,

 -----------------------------------------------------------
 # opt freq B3LYP/6-31G(d) empiricaldispersion=gd3bj scf=xqc
 -----------------------------------------------------------

 -------------------------------
 CID_136271736_JID_7413_neutraal
 -------------------------------
 Symbolic Z-matrix:
 Charge =  0 Multiplicity = 1

 SCF Done:  E(RB3LYP) =  -1089.19107729     A.U. after   15 cycles
 SCF Done:  E(RB3LYP) =  -1089.19843034     A.U. after   13 cycles
 SCF Done:  E(RB3LYP) =  -1089.19156335     A.U. after   14 cycles
 SCF Done:  E(RB3LYP) =  -1089.19629621     A.U. after   13 cycles
 SCF Done:  E(RB3LYP) =  -1089.19947717     A.U. after   10 cycles
 SCF Done:  E(RB3LYP) =  -1089.19943813     A.U. after   13 cycles
 SCF Done:  E(RB3LYP) =  -1089.20067515     A.U. after   13 cycles
 SCF Done:  E(RB3LYP) =  -1089.20069139     A.U. after   12 cycles
 SCF Done:  E(RB3LYP) =  -1089.20125603     A.U. after   12 cycles
 SCF Done:  E(RB3LYP) =  -1089.20161805     A.U. after   12 cycles
 SCF Done:  E(RB3LYP) =  -1089.20418801     A.U. after    9 cycles
 SCF Done:  E(RB3LYP) =  -1089.20419963     A.U. after   10 cycles
 SCF Done:  E(RB3LYP) =  -1089.20420208     A.U. after    9 cycles
 SCF Done:  E(RB3LYP) =  -1089.20420165     A.U. after    8 cycles
 SCF Done:  E(RB3LYP) =  -1089.20420243     A.U. after    9 cycles
 SCF Done:  E(RB3LYP) =  -1089.20420245     A.U. after    6 cycles
 Optimization completed.
    -- Stationary point found.
 Normal termination of Gaussian 16 at Fri Dec 11 12:22:08 2020.

 --------------------------------------------------------------------
 #N Geom=AllCheck Guess=TCheck SCRF=Check GenChk RB3LYP/6-31G(d) Freq
 --------------------------------------------------------------------

 Structure from the checkpoint file:  "JID_7413.chk"
 -------------------------------
 CID_136271736_JID_7413_neutraal
 -------------------------------
 Charge =  0 Multiplicity = 1

 SCF Done:  E(RB3LYP) =  -1089.20420245     A.U. after    1 cycles

  Exact polarizability: 180.642 -11.850 172.349  -7.367  -9.030 130.657
 Approx polarizability: 250.345 -15.100 266.309 -15.516 -32.761 221.813

                      1                      2                      3
                      A                      A                      A
 Frequencies --     29.1623                38.0884                52.7915
 Red. masses --      4.6355                 4.1720                 3.2026
 Frc consts  --      0.0023                 0.0036                 0.0053
 IR Inten    --      0.0998                 0.3020                 0.7302

                      4                      5                      6
                      A                      A                      A
 Frequencies --     71.9394                81.8664               119.1738
 Red. masses --      3.2544                 3.0269                 4.4444
 Frc consts  --      0.0099                 0.0120                 0.0372
 IR Inten    --      0.1643                 0.3154                 0.4320

                      7                      8                      9
                      A                      A                      A
 Frequencies --    131.0647               164.6897               177.8300
 Red. masses --      3.5213                 3.9398                 4.2163
 Frc consts  --      0.0356                 0.0630                 0.0786
 IR Inten    --      0.0811                 0.9654                 1.1874

                     10                     11                     12
                      A                      A                      A
 Frequencies --    194.6041               234.6181               262.6124
 Red. masses --      5.1034                 2.3945                 3.3983
 Frc consts  --      0.1139                 0.0777                 0.1381
 IR Inten    --      7.4871                 2.8232                 0.5615

                     13                     14                     15
                      A                      A                      A
 Frequencies --    282.7894               305.7702               329.6303
 Red. masses --      3.8797                 2.7220                 3.0616
 Frc consts  --      0.1828                 0.1499                 0.1960
 IR Inten    --      1.3819                 2.0577                 2.1683

                     16                     17                     18
                      A                      A                      A
 Frequencies --    380.6057               411.9995               486.9945
 Red. masses --      4.7892                 7.5555                 2.1255
 Frc consts  --      0.4088                 0.7556                 0.2970
 IR Inten    --      0.6065                 1.9920                 3.1209

                     19                     20                     21
                      A                      A                      A
 Frequencies --    503.9296               544.0719               549.1886
 Red. masses --      4.2066                 4.9091                 5.3205
 Frc consts  --      0.6294                 0.8562                 0.9455
 IR Inten    --      7.6251                 7.4230                 4.2716

                     22                     23                     24
                      A                      A                      A
 Frequencies --    586.0293               596.8117               656.5601
 Red. masses --      2.2592                 4.0091                 1.7314
 Frc consts  --      0.4571                 0.8413                 0.4397
 IR Inten    --      0.4316                 5.4268                40.5360

                     25                     26                     27
                      A                      A                      A
 Frequencies --    671.0532               717.1783               736.1072
 Red. masses --      4.1756                 2.6345                 2.5435
 Frc consts  --      1.1079                 0.7984                 0.8120
 IR Inten    --      0.4855                10.5056                 7.0790

                     28                     29                     30
                      A                      A                      A
 Frequencies --    744.7119               780.7120               799.5432
 Red. masses --      2.7448                 4.2921                 1.0930
 Frc consts  --      0.8969                 1.5414                 0.4117
 IR Inten    --     38.5212                 0.7374                 1.1034

                     31                     32                     33
                      A                      A                      A
 Frequencies --    819.1972               832.0652               863.2403
 Red. masses --      1.6237                 1.9692                 1.4921
 Frc consts  --      0.6420                 0.8032                 0.6551
 IR Inten    --      4.2487                15.2489                18.1984

                     34                     35                     36
                      A                      A                      A
 Frequencies --    868.1673               881.3044               904.6919
 Red. masses --      2.0191                 2.5623                 2.1912
 Frc consts  --      0.8967                 1.1726                 1.0567
 IR Inten    --      1.1680                 7.9267                 3.6859

                     37                     38                     39
                      A                      A                      A
 Frequencies --    907.5142               913.5331               921.6560
 Red. masses --      2.3736                 2.7431                 2.4063
 Frc consts  --      1.1518                 1.3488                 1.2043
 IR Inten    --      1.2771                 1.9479                 1.6666

                     40                     41                     42
                      A                      A                      A
 Frequencies --    953.9146               963.8786               975.3238
 Red. masses --      2.1320                 3.9372                 1.5832
 Frc consts  --      1.1430                 2.1552                 0.8873
 IR Inten    --      1.8977                35.4353                 1.9474

                     43                     44                     45
                      A                      A                      A
 Frequencies --    996.8519              1024.4984              1035.4837
 Red. masses --      2.8305                 4.6065                 1.3364
 Frc consts  --      1.6572                 2.8487                 0.8443
 IR Inten    --     35.7871                13.8045                 1.0461

                     46                     47                     48
                      A                      A                      A
 Frequencies --   1047.6365              1063.7471              1086.3109
 Red. masses --      2.0322                 1.2914                 1.3262
 Frc consts  --      1.3141                 0.8610                 0.9221
 IR Inten    --      1.7612                17.9974                 3.8650

                     49                     50                     51
                      A                      A                      A
 Frequencies --   1096.3088              1097.1765              1143.1998
 Red. masses --      1.4721                 3.5078                 1.0956
 Frc consts  --      1.0425                 2.4879                 0.8436
 IR Inten    --      5.1430                 0.8660                 1.3926

                     52                     53                     54
                      A                      A                      A
 Frequencies --   1163.3710              1189.8776              1207.1848
 Red. masses --      1.1762                 1.2582                 1.4907
 Frc consts  --      0.9379                 1.0495                 1.2799
 IR Inten    --      5.3750                 8.9227                 1.9510

                     55                     56                     57
                      A                      A                      A
 Frequencies --   1217.1112              1220.3205              1236.7540
 Red. masses --      1.3996                 4.1775                 2.2803
 Frc consts  --      1.2215                 3.6654                 2.0549
 IR Inten    --      0.7217                 5.3622                 2.3337

                     58                     59                     60
                      A                      A                      A
 Frequencies --   1247.4209              1255.6079              1274.7291
 Red. masses --      1.4114                 1.6496                 1.2927
 Frc consts  --      1.2940                 1.5322                 1.2377
 IR Inten    --      0.4236                35.8230                 5.1105

                     61                     62                     63
                      A                      A                      A
 Frequencies --   1279.4583              1283.6120              1310.9170
 Red. masses --      1.5406                 1.5585                 1.2857
 Frc consts  --      1.4859                 1.5130                 1.3018
 IR Inten    --      2.2044                 5.1408                 2.9723

                     64                     65                     66
                      A                      A                      A
 Frequencies --   1317.5514              1344.9358              1356.3159
 Red. masses --      1.2122                 1.1990                 1.8002
 Frc consts  --      1.2398                 1.2779                 1.9511
 IR Inten    --      3.2547                 1.0632                18.5069

                     67                     68                     69
                      A                      A                      A
 Frequencies --   1357.8080              1368.5121              1381.6106
 Red. masses --      1.6638                 1.3073                 1.3081
 Frc consts  --      1.8073                 1.4425                 1.4712
 IR Inten    --     14.4599                 0.3363                 1.8271

                     70                     71                     72
                      A                      A                      A
 Frequencies --   1464.1137              1491.2129              1496.3239
 Red. masses --      2.3395                 1.2410                 1.0935
 Frc consts  --      2.9547                 1.6259                 1.4425
 IR Inten    --     94.3479                10.1317                 3.5209

                     73                     74                     75
                      A                      A                      A
 Frequencies --   1503.3684              1517.9029              1521.6156
 Red. masses --      2.4935                 1.0879                 1.0880
 Frc consts  --      3.3204                 1.4768                 1.4842
 IR Inten    --     12.6651                 1.0990                 4.1687

                     76                     77                     78
                      A                      A                      A
 Frequencies --   1528.2056              1532.0232              1547.0407
 Red. masses --      1.0932                 1.3578                 1.1038
 Frc consts  --      1.5042                 1.8777                 1.5565
 IR Inten    --      2.4706                13.5639                 2.0662

                     79                     80                     81
                      A                      A                      A
 Frequencies --   1605.9662              1654.3214              1808.8077
 Red. masses --      5.4509                 7.8456                 8.8638
 Frc consts  --      8.2830                12.6508                17.0865
 IR Inten    --    122.1179               215.9192               644.8530

                     82                     83                     84
                      A                      A                      A
 Frequencies --   3044.3002              3057.6292              3074.1217
 Red. masses --      1.0671                 1.0850                 1.0608
 Frc consts  --      5.8270                 5.9767                 5.9062
 IR Inten    --     37.2134                 7.2762                21.3614

                     85                     86                     87
                      A                      A                      A
 Frequencies --   3078.7895              3085.6530              3085.8252
 Red. masses --      1.0602                 1.0735                 1.0662
 Frc consts  --      5.9212                 6.0219                 5.9818
 IR Inten    --     12.9644                21.7842                16.9076

                     88                     89                     90
                      A                      A                      A
 Frequencies --   3102.0245              3117.2195              3130.2691
 Red. masses --      1.0941                 1.1035                 1.1066
 Frc consts  --      6.2027                 6.3177                 6.3885
 IR Inten    --     24.2191                31.9386                27.2652

                     91                     92                     93
                      A                      A                      A
 Frequencies --   3151.0911              3152.0139              3155.0800
 Red. masses --      1.0963                 1.0509                 1.0578
 Frc consts  --      6.4137                 6.1518                 6.2043
 IR Inten    --     23.5994                13.9461                 8.7078

                     94                     95                     96
                      A                      A                      A
 Frequencies --   3165.1500              3200.2412              3229.0020
 Red. masses --      1.0998                 1.0904                 1.1196
 Frc consts  --      6.4916                 6.5797                 6.8778
 IR Inten    --      2.0355                 2.7777                 0.3724

                     97                     98                     99
                      A                      A                      A
 Frequencies --   3233.2396              3243.9292              3575.0521
 Red. masses --      1.0923                 1.1153                 1.0776
 Frc consts  --      6.7279                 6.9148                 8.1150
 IR Inten    --      3.7831                14.7462                50.6902

 - Thermochemistry -
 -------------------
 Temperature   298.150 Kelvin.  Pressure   1.00000 Atm.
 Atom     1 has atomic number  6 and mass  12.00000

 Molecular mass:   250.11399 amu.
 Principal axes and moments of inertia in atomic units:
                           1         2         3
     Eigenvalues --  3271.473595075.572506844.44754
           X            0.99995  -0.00904   0.00408
           Y            0.00897   0.99981   0.01727
           Z           -0.00423  -0.01723   0.99984
 This molecule is an asymmetric top.
 Rotational symmetry number  1.
 Warning -- assumption of classical behavior for rotation
           may cause significant error
 Rotational temperatures (Kelvin)      0.02648     0.01706     0.01265
 Rotational constants (GHZ):           0.55166     0.35557     0.26368
 Zero-point vibrational energy     781176.2 (Joules/Mol)
                                  186.70559 (Kcal/Mol)
 Warning -- explicit consideration of  23 degrees of freedom as
           vibrations may cause significant error
 Vibrational temperatures:     41.96    54.80    75.96   103.50   117.79
          (Kelvin)            171.46   188.57   236.95   255.86   279.99
                              337.56   377.84   406.87   439.94   474.26
                              547.61   592.78   700.68   725.04   782.80
                              790.16   843.17   858.68   944.64   965.50
                             1031.86  1059.09  1071.47  1123.27  1150.36
                             1178.64  1197.16  1242.01  1249.10  1268.00
                             1301.65  1305.71  1314.37  1326.06  1372.47
                             1386.81  1403.27  1434.25  1474.02  1489.83
                             1507.32  1530.49  1562.96  1577.34  1578.59
                             1644.81  1673.83  1711.97  1736.87  1751.15
                             1755.77  1779.41  1794.76  1806.54  1834.05
                             1840.86  1846.83  1886.12  1895.66  1935.06
                             1951.44  1953.58  1968.98  1987.83  2106.53
                             2145.52  2152.88  2163.01  2183.92  2189.27
                             2198.75  2204.24  2225.85  2310.63  2380.20
                             2602.47  4380.07  4399.25  4422.98  4429.69
                             4439.57  4439.81  4463.12  4484.98  4503.76
                             4533.72  4535.04  4539.46  4553.94  4604.43
                             4645.81  4651.91  4667.29  5143.70

 Zero-point correction=                           0.297534 (Hartree/Particle)
 Thermal correction to Energy=                    0.313579
 Thermal correction to Enthalpy=                  0.314524
 Thermal correction to Gibbs Free Energy=         0.252531
 Sum of electronic and zero-point Energies=          -1088.906668
 Sum of electronic and thermal Energies=             -1088.890623
 Sum of electronic and thermal Enthalpies=           -1088.889679
 Sum of electronic and thermal Free Energies=        -1088.951672

                     E (Thermal)             CV                S
                      KCal/Mol        Cal/Mol-Kelvin    Cal/Mol-Kelvin
 Total                  196.774             61.651            130.474
 Electronic               0.000              0.000              0.000
 Translational            0.889              2.981             42.451
 Rotational               0.889              2.981             33.096
 Vibrational            194.997             55.689             54.927
 Vibration     1          0.593              1.984              5.886
 Vibration     2          0.594              1.982              5.356
 Vibration     3          0.596              1.976              4.710
 Vibration     4          0.598              1.967              4.100
 Vibration     5          0.600              1.962              3.846
 Vibration     6          0.609              1.933              3.114
 Vibration     7          0.612              1.922              2.930
 Vibration     8          0.623              1.886              2.495
 Vibration     9          0.628              1.870              2.351
 Vibration    10          0.635              1.847              2.184
 Vibration    11          0.654              1.788              1.843
 Vibration    12          0.670              1.741              1.644
 Vibration    13          0.682              1.706              1.517
 Vibration    14          0.696              1.663              1.385
 Vibration    15          0.712              1.616              1.262
 Vibration    16          0.750              1.512              1.037
 Vibration    17          0.776              1.444              0.920
 Vibration    18          0.843              1.279              0.691
 Vibration    19          0.859              1.241              0.648
 Vibration    20          0.899              1.153              0.557
 Vibration    21          0.904              1.141              0.546
 Vibration    22          0.943              1.062              0.474
 Vibration    23          0.955              1.039              0.455

                           ! Non-Optimized Parameters !
 Normal termination of Gaussian 16 at Fri Dec 11 12:36:22 2020.

 ----------------------------------------------------------------------
 # B3LYP/6-311++G(d,p) empiricaldispersion=gd3bj scf=xqc pop=npa geom=c
 heck
 ----------------------------------------------------------------------

 ---------------------------------------
 CID_136271736_JID_7413_Energie_neutraal
 ---------------------------------------
 Structure from the checkpoint file:  "JID_7413.chk"
 Charge =  0 Multiplicity = 1

 SCF Done:  E(RB3LYP) =  -1089.41966776     A.U. after   16 cycles
 Normal termination of Gaussian 16 at Fri Dec 11 12:45:04 2020.

 ----------------------------------------------------------------------
 # B3LYP/6-311++G(d,p) empiricaldispersion=gd3bj scf=xqc pop=npa geom=c
 heck
 ----------------------------------------------------------------------

 -------------------------------------
 CID_136271736_JID_7413_Energie_kation
 -------------------------------------
 Structure from the checkpoint file:  "JID_7413.chk"
 Charge =  1 Multiplicity = 2

 SCF Done:  E(UB3LYP) =  -1089.11719229     A.U. after   28 cycles
 Normal termination of Gaussian 16 at Fri Dec 11 13:02:46 2020.
 Gaussian 16:  ES64L-G16RevA.03 25-Dec-2016

 ----------------------------------------------------------------------
 # B3LYP/6-311++G(d,p) empiricaldispersion=gd3bj scf=xqc pop=npa geom=c
 heck
 ----------------------------------------------------------------------

 ------------------------------------
 CID_136271736_JID_7413_Energie_anion
 ------------------------------------
 Structure from the checkpoint file:  "JID_7413.chk"
 Charge = -1 Multiplicity = 2

                         Standard orientation:
 ---------------------------------------------------------------------
 Center     Atomic      Atomic             Coordinates (Angstroms)
 Number     Number       Type             X           Y           Z
 ---------------------------------------------------------------------
      1          6           0        1.812277    2.817132    0.323419
      2          6           0        0.861385    2.076152    1.284884
      3          6           0        1.505811    0.682440    1.504807
      4          6           0        2.615691    0.562898    0.419069
      5          6           0        2.340914    1.696885   -0.583561
      6         16           0        2.905170   -1.110829   -0.297700
      7          6           0        1.527274   -1.298095   -1.502649
      8          6           0        0.167327   -1.186104   -0.877102
      9          7           0       -0.576104   -0.151242   -1.157100
     10          6           0       -1.784672   -0.039073   -0.493313
     11          6           0       -2.220042   -0.971376    0.411647
     12          6           0       -1.427697   -2.136546    0.725410
     13          8           0       -1.686822   -3.037801    1.510202
     14          7           0       -0.210322   -2.154406   -0.002944
     15          6           0       -2.532319    1.197631   -0.824781
     16          6           0       -4.041758    1.271151   -0.705568
     17          6           0       -3.194144    2.009204    0.281713
     18          1           0        2.642229    3.272031    0.880249
     19          1           0        1.313852    3.616257   -0.235031
     20          1           0        0.703957    2.618305    2.222550
     21          1           0       -0.116733    1.959032    0.807460
     22          1           0        0.764048   -0.113042    1.423554
     23          1           0        1.952185    0.589038    2.499708
     24          1           0        3.586830    0.754833    0.889943
     25          1           0        1.549879    1.407604   -1.282443
     26          1           0        3.232216    1.966254   -1.158252
     27          1           0        1.599789   -0.559154   -2.300542
     28          1           0        1.680448   -2.292852   -1.934492
     29          1           0       -3.163017   -0.873398    0.936078
     30          1           0        0.434352   -2.900400    0.238562
     31          1           0       -2.070419    1.758300   -1.630429
     32          1           0       -4.570061    1.839821   -1.465030
     33          1           0       -4.559230    0.374378   -0.377361
     34          1           0       -3.112214    1.613140    1.289851
     35          1           0       -3.131559    3.091263    0.213673
 ---------------------------------------------------------------------

 SCF Done:  E(UB3LYP) =  -1089.42670762     A.U. after   31 cycles

 The electronic state is 2-A.
 Alpha  occ. eigenvalues --  -88.71621 -18.93666 -14.20138 -14.15380 -10.12160
 Alpha  occ. eigenvalues --  -10.08970 -10.08610 -10.07861 -10.06510 -10.06278
 Alpha  occ. eigenvalues --  -10.06177 -10.06044 -10.05813 -10.05625 -10.05547
 Alpha  occ. eigenvalues --  -10.05254 -10.00305  -7.80259  -5.76660  -5.76287
 Alpha  occ. eigenvalues --   -5.75635  -0.89223  -0.83258  -0.75772  -0.73649
 Alpha  occ. eigenvalues --   -0.73311  -0.67395  -0.62998  -0.60306  -0.59425
 Alpha  occ. eigenvalues --   -0.54331  -0.52561  -0.49410  -0.48091  -0.46486
 Alpha  occ. eigenvalues --   -0.45047  -0.43960  -0.40868  -0.39063  -0.38043
 Alpha  occ. eigenvalues --   -0.36567  -0.35769  -0.34924  -0.32554  -0.31600
 Alpha  occ. eigenvalues --   -0.30896  -0.29947  -0.28584  -0.27723  -0.26593
 Alpha  occ. eigenvalues --   -0.26203  -0.26021  -0.24419  -0.24130  -0.23810
 Alpha  occ. eigenvalues --   -0.23359  -0.23228  -0.21855  -0.21503  -0.19687
 Alpha  occ. eigenvalues --   -0.18955  -0.18248  -0.14598  -0.13153  -0.11657
 Alpha  occ. eigenvalues --   -0.10702  -0.09062   0.04701
 Alpha virt. eigenvalues --    0.07057   0.07957   0.08895   0.09166   0.09452
 Alpha virt. eigenvalues --    0.10424   0.10561   0.11128   0.11758   0.12458
 Alpha virt. eigenvalues --    0.12830   0.13138   0.13522   0.14098   0.14328

  Beta  occ. eigenvalues --  -88.71573 -18.93645 -14.19866 -14.15507 -10.12164
  Beta  occ. eigenvalues --  -10.08962 -10.08083 -10.07880 -10.06510 -10.06235
  Beta  occ. eigenvalues --  -10.06120 -10.06080 -10.05812 -10.05545 -10.05294
  Beta  occ. eigenvalues --  -10.05254 -10.00060  -7.80208  -5.76574  -5.76221
  Beta  occ. eigenvalues --   -5.75600  -0.89063  -0.82807  -0.75502  -0.73598
  Beta  occ. eigenvalues --   -0.73116  -0.67103  -0.62578  -0.60298  -0.59236
  Beta  occ. eigenvalues --   -0.53787  -0.52356  -0.49288  -0.47865  -0.46449
  Beta  occ. eigenvalues --   -0.44853  -0.43831  -0.40626  -0.38864  -0.38006
  Beta  occ. eigenvalues --   -0.36448  -0.35640  -0.34792  -0.32108  -0.31492
  Beta  occ. eigenvalues --   -0.30710  -0.29188  -0.28438  -0.27605  -0.26431
  Beta  occ. eigenvalues --   -0.26066  -0.25789  -0.24377  -0.24020  -0.23754
  Beta  occ. eigenvalues --   -0.23290  -0.22931  -0.21451  -0.21227  -0.19504
  Beta  occ. eigenvalues --   -0.18634  -0.17855  -0.13574  -0.13131  -0.11534
  Beta  occ. eigenvalues --   -0.10515  -0.07724
  Beta virt. eigenvalues --    0.06979   0.07910   0.08766   0.09020   0.09487
  Beta virt. eigenvalues --    0.10395   0.10486   0.10893   0.11257   0.11697
  Beta virt. eigenvalues --    0.12437   0.12974   0.13091   0.13650   0.14150

 Mulliken charges and spin densities:
               1          2
     1  C   -0.446868   0.008729
     2  C   -0.421485  -0.053664
     3  C   -0.390091   0.116012
     4  C    0.319696  -0.150851
     5  C   -0.309039  -0.083985
     6  S    0.101038  -0.148585
     7  C   -0.719763   0.004048
     8  C   -0.137689   0.345091
     9  N    0.049688  -0.086206
    10  C    0.321015   0.140101
    11  C   -0.377846   0.239430
    12  C   -0.227934   0.005123
    13  O   -0.409684   0.009653
    14  N   -0.172346   0.131221
    15  C    0.004043   0.034175
    16  C   -0.400385   0.013561
    17  C   -0.349970   0.019342
    18  H    0.087638   0.021329
    19  H    0.144648   0.002411
    20  H    0.133695   0.005313
    21  H    0.142603  -0.013581
    22  H    0.250604   0.009955
    23  H    0.103078   0.032308
    24  H    0.053345   0.189264
    25  H    0.131562  -0.007882
    26  H    0.097851   0.051425
    27  H    0.187776   0.004882
    28  H    0.070941   0.159832
    29  H    0.174209  -0.017182
    30  H    0.254420   0.008443
    31  H    0.226951   0.003068
    32  H    0.110767   0.008374
    33  H    0.139131  -0.002895
    34  H    0.145152  -0.000902
    35  H    0.113250   0.002643
 Sum of Mulliken charges =  -1.00000   1.00000

 Dipole moment (field-independent basis, Debye):
    X=              1.4889    Y=              6.1347    Z=             -1.4984  Tot=              6.4882
 Quadrupole moment (field-independent basis, Debye-Ang):
   XX=           -152.6251   YY=           -141.6000   ZZ=           -127.4947
   XY=             -6.0437   XZ=              5.5484   YZ=              8.7339

 Summary of Natural Population Analysis:

                                       Natural Population
                Natural  -----------------------------------------------
    Atom  No    Charge         Core      Valence    Rydberg      Total
 -----------------------------------------------------------------------
      C    1   -0.18760      0.99964     2.18120    0.00676     3.18760
      C    2   -0.19448      0.99964     2.18872    0.00612     3.19448
      C    3   -0.20043      0.99961     2.18979    0.01103     3.20043
      C    4   -0.16940      0.99954     2.15477    0.01508     3.16940
      C    5   -0.20376      0.99960     2.19453    0.00962     3.20376
      S    6    0.10003      4.99961     2.88261    0.01776     7.89997
      C    7   -0.26890      0.99955     2.25801    0.01134     3.26890
      C    8    0.30523      0.99959     1.67863    0.01655     2.69477
      N    9   -0.30819      0.99966     2.79863    0.00991     3.80819
      C   10    0.16117      0.99949     1.82622    0.01312     2.83883
      C   11   -0.15113      0.99946     2.14416    0.00751     3.15113
      C   12    0.31981      0.99963     1.65907    0.02148     2.68019
      O   13   -0.34613      0.99988     3.33968    0.00658     4.34613
      N   14   -0.26879      0.99962     2.75970    0.00947     3.76879
      C   15   -0.12262      0.99957     2.11321    0.00984     3.12262
      C   16   -0.19055      0.99963     2.18464    0.00627     3.19055
      C   17   -0.18726      0.99963     2.18131    0.00631     3.18726
      H   18    0.08728      0.00000     0.41147    0.00125     0.41272
      H   19    0.09603      0.00000     0.40306    0.00091     0.40397
      H   20    0.09189      0.00000     0.40723    0.00088     0.40811
      H   21    0.10915      0.00000     0.38958    0.00127     0.39085
      H   22    0.11401      0.00000     0.38470    0.00129     0.38599
      H   23    0.09454      0.00000     0.40454    0.00092     0.40546
      H   24    0.10034      0.00000     0.39840    0.00126     0.39966
      H   25    0.11168      0.00000     0.38674    0.00158     0.38832
      H   26    0.09687      0.00000     0.40226    0.00087     0.40313
      H   27    0.10948      0.00000     0.38926    0.00126     0.39052
      H   28    0.11060      0.00000     0.38779    0.00161     0.38940
      H   29    0.09605      0.00000     0.40278    0.00117     0.40395
      H   30    0.19454      0.00000     0.30300    0.00245     0.30546
      H   31    0.10664      0.00000     0.39196    0.00140     0.39336
      H   32    0.09422      0.00000     0.40474    0.00104     0.40578
      H   33    0.10267      0.00000     0.39616    0.00117     0.39733
      H   34    0.10334      0.00000     0.39551    0.00115     0.39666
      H   35    0.09365      0.00000     0.40524    0.00111     0.40635
 =======================================================================
   * Total *   -0.00000     20.99336    45.79931    0.20733    67.00000

 Normal termination of Gaussian 16 at Fri Dec 11 13:19:06 2020.
