 Gaussian 16, Revision A.03,

 -----------------------------------------------------------
 # opt freq B3LYP/6-31G(d) empiricaldispersion=gd3bj scf=xqc
 -----------------------------------------------------------

 ------------------------------
 CID_5905206_JID_10663_neutraal
 ------------------------------
 Symbolic Z-matrix:
 Charge =  0 Multiplicity = 1

 SCF Done:  E(RB3LYP) =  -824.986300992     A.U. after   16 cycles
 SCF Done:  E(RB3LYP) =  -824.992319906     A.U. after   13 cycles
 SCF Done:  E(RB3LYP) =  -824.993329079     A.U. after   13 cycles
 SCF Done:  E(RB3LYP) =  -824.993935896     A.U. after   12 cycles
 SCF Done:  E(RB3LYP) =  -824.994399479     A.U. after   13 cycles
 SCF Done:  E(RB3LYP) =  -824.994614177     A.U. after   13 cycles
 SCF Done:  E(RB3LYP) =  -824.994750784     A.U. after   12 cycles
 SCF Done:  E(RB3LYP) =  -824.994849708     A.U. after   10 cycles
 SCF Done:  E(RB3LYP) =  -824.994903450     A.U. after   11 cycles
 SCF Done:  E(RB3LYP) =  -824.994923632     A.U. after   11 cycles
 SCF Done:  E(RB3LYP) =  -824.994931014     A.U. after   11 cycles
 SCF Done:  E(RB3LYP) =  -824.994931542     A.U. after    9 cycles
 SCF Done:  E(RB3LYP) =  -824.994932090     A.U. after    9 cycles
 SCF Done:  E(RB3LYP) =  -824.994932133     A.U. after    7 cycles
 Optimization completed.
    -- Stationary point found.
 Normal termination of Gaussian 16 at Sun Dec 13 16:48:35 2020.

 --------------------------------------------------------------------
 #N Geom=AllCheck Guess=TCheck SCRF=Check GenChk RB3LYP/6-31G(d) Freq
 --------------------------------------------------------------------

 Structure from the checkpoint file:  "JID_10663.chk"
 ------------------------------
 CID_5905206_JID_10663_neutraal
 ------------------------------
 Charge =  0 Multiplicity = 1

 SCF Done:  E(RB3LYP) =  -824.994932133     A.U. after    1 cycles

  Exact polarizability: 325.396  -0.926 212.762 -16.970   4.791 100.303
 Approx polarizability: 440.494 -28.463 407.629 -34.341  14.127 167.678

                      1                      2                      3
                      A                      A                      A
 Frequencies --     17.6658                40.7903                43.8804
 Red. masses --      5.4999                 4.6288                 4.2175
 Frc consts  --      0.0010                 0.0045                 0.0048
 IR Inten    --      0.3522                 0.2692                 0.1830

                      4                      5                      6
                      A                      A                      A
 Frequencies --     82.9281                93.1122               102.4759
 Red. masses --      3.8082                 1.4646                 4.2644
 Frc consts  --      0.0154                 0.0075                 0.0264
 IR Inten    --      0.4656                 0.7322                 0.4602

                      7                      8                      9
                      A                      A                      A
 Frequencies --    136.1171               150.0898               177.9850
 Red. masses --      2.3221                 4.9904                 3.3808
 Frc consts  --      0.0253                 0.0662                 0.0631
 IR Inten    --      1.7657                 6.2556                 0.4056

                     10                     11                     12
                      A                      A                      A
 Frequencies --    209.4510               229.2679               257.2796
 Red. masses --      3.8681                 4.8112                 3.1509
 Frc consts  --      0.1000                 0.1490                 0.1229
 IR Inten    --      2.6896                 1.0768                 2.9830

                     13                     14                     15
                      A                      A                      A
 Frequencies --    275.1636               298.0826               363.6331
 Red. masses --      3.7384                 6.0318                 4.6673
 Frc consts  --      0.1668                 0.3158                 0.3636
 IR Inten    --      0.3410                 0.4479                 3.2369

                     16                     17                     18
                      A                      A                      A
 Frequencies --    386.1077               421.8833               429.5100
 Red. masses --      4.7320                 3.3301                 4.0598
 Frc consts  --      0.4156                 0.3492                 0.4413
 IR Inten    --      0.0487                 0.2850                 3.6553

                     19                     20                     21
                      A                      A                      A
 Frequencies --    433.6379               516.9546               549.2686
 Red. masses --      2.9846                 5.0341                 5.2645
 Frc consts  --      0.3307                 0.7926                 0.9358
 IR Inten    --      3.5476                 3.7232                 0.3945

                     22                     23                     24
                      A                      A                      A
 Frequencies --    568.3715               580.7391               587.8095
 Red. masses --      4.6572                 3.9524                 5.5819
 Frc consts  --      0.8864                 0.7854                 1.1363
 IR Inten    --     17.9277                 0.0332                 8.2778

                     25                     26                     27
                      A                      A                      A
 Frequencies --    617.6248               632.7683               634.7024
 Red. masses --      3.6766                 4.1087                 6.3212
 Frc consts  --      0.8263                 0.9693                 1.5003
 IR Inten    --     31.0527                23.9093                 1.6175

                     28                     29                     30
                      A                      A                      A
 Frequencies --    696.6423               714.0979               723.9230
 Red. masses --      4.4417                 2.3350                 2.5793
 Frc consts  --      1.2701                 0.7015                 0.7964
 IR Inten    --      4.7827                26.3138                18.8077

                     31                     32                     33
                      A                      A                      A
 Frequencies --    754.2647               766.4334               776.3938
 Red. masses --      1.3073                 3.9712                 3.3329
 Frc consts  --      0.4382                 1.3744                 1.1837
 IR Inten    --     54.4736                 6.3991                 0.9865

                     34                     35                     36
                      A                      A                      A
 Frequencies --    787.8846               793.9369               810.1134
 Red. masses --      3.8354                 2.0250                 2.3822
 Frc consts  --      1.4028                 0.7521                 0.9211
 IR Inten    --      0.9062                18.3570                17.1957

                     37                     38                     39
                      A                      A                      A
 Frequencies --    825.0344               858.0542               869.1694
 Red. masses --      3.0486                 1.5497                 1.2679
 Frc consts  --      1.2226                 0.6722                 0.5643
 IR Inten    --     14.3778                 1.0765                 1.4995

                     40                     41                     42
                      A                      A                      A
 Frequencies --    890.4419               922.1215               949.1036
 Red. masses --      2.0969                 1.3604                 1.4229
 Frc consts  --      0.9796                 0.6816                 0.7552
 IR Inten    --     23.4224                 0.8912                 2.1198

                     43                     44                     45
                      A                      A                      A
 Frequencies --    970.9024               980.0926              1000.8674
 Red. masses --      1.2453                 1.3381                 1.2537
 Frc consts  --      0.6916                 0.7573                 0.7399
 IR Inten    --      0.0883                 5.9878                 1.2098

                     46                     47                     48
                      A                      A                      A
 Frequencies --   1021.0360              1024.4345              1052.5742
 Red. masses --      2.3649                 1.6224                 2.2324
 Frc consts  --      1.4526                 1.0032                 1.4572
 IR Inten    --     11.8308                42.5241                 2.1486

                     49                     50                     51
                      A                      A                      A
 Frequencies --   1056.1365              1060.7028              1098.3574
 Red. masses --      2.5696                 3.3973                 2.1629
 Frc consts  --      1.6887                 2.2520                 1.5374
 IR Inten    --     22.2254                 1.0475                65.1972

                     52                     53                     54
                      A                      A                      A
 Frequencies --   1107.7878              1119.3601              1160.5881
 Red. masses --      2.0504                 2.0833                 1.2958
 Frc consts  --      1.4825                 1.5379                 1.0283
 IR Inten    --    103.1304                31.4835                 0.0829

                     55                     56                     57
                      A                      A                      A
 Frequencies --   1167.0937              1169.7804              1194.0954
 Red. masses --      1.7434                 1.6780                 1.1003
 Frc consts  --      1.3991                 1.3528                 0.9244
 IR Inten    --     12.5755                22.8539                 0.5552

                     58                     59                     60
                      A                      A                      A
 Frequencies --   1196.6528              1211.4590              1221.2619
 Red. masses --      1.3220                 1.1501                 1.4339
 Frc consts  --      1.1154                 0.9945                 1.2600
 IR Inten    --     35.6526                28.0677                23.2435

                     61                     62                     63
                      A                      A                      A
 Frequencies --   1288.9650              1295.0256              1321.6990
 Red. masses --      1.4329                 2.7930                 2.2675
 Frc consts  --      1.4026                 2.7598                 2.3338
 IR Inten    --     12.7311               250.8162               251.4551

                     64                     65                     66
                      A                      A                      A
 Frequencies --   1349.8826              1354.0237              1367.3389
 Red. masses --      2.1017                 1.6089                 2.6919
 Frc consts  --      2.2564                 1.7380                 2.9653
 IR Inten    --     46.0333                 0.0737                 2.0768

                     67                     68                     69
                      A                      A                      A
 Frequencies --   1383.5276              1398.0558              1413.9494
 Red. masses --      3.7328                 2.5947                 3.5867
 Frc consts  --      4.2098                 2.9880                 4.2248
 IR Inten    --     36.6812                 2.1032                34.1160

                     70                     71                     72
                      A                      A                      A
 Frequencies --   1429.1224              1477.8505              1493.6092
 Red. masses --      4.8737                 1.3042                 2.2396
 Frc consts  --      5.8647                 1.6782                 2.9437
 IR Inten    --    114.8944                37.6294                13.7911

                     73                     74                     75
                      A                      A                      A
 Frequencies --   1508.3180              1517.0204              1529.7320
 Red. masses --      1.0409                 2.3398                 2.3424
 Frc consts  --      1.3952                 3.1726                 3.2295
 IR Inten    --      7.6365                44.5204                 2.4743

                     76                     77                     78
                      A                      A                      A
 Frequencies --   1540.1997              1550.1624              1582.0749
 Red. masses --      2.2120                 1.2805                 4.5289
 Frc consts  --      3.0917                 1.8129                 6.6788
 IR Inten    --      2.1216                 7.7456               154.0588

                     79                     80                     81
                      A                      A                      A
 Frequencies --   1631.1904              1638.2730              1661.2520
 Red. masses --      5.9212                 5.5029                 5.5798
 Frc consts  --      9.2826                 8.7019                 9.0728
 IR Inten    --     20.8008                 8.4003                13.5775

                     82                     83                     84
                      A                      A                      A
 Frequencies --   1673.3444              1686.8246              1721.3589
 Red. masses --      6.5545                 5.3208                11.4285
 Frc consts  --     10.8134                 8.9200                19.9518
 IR Inten    --     36.9136               385.4830               224.7325

                     85                     86                     87
                      A                      A                      A
 Frequencies --   3052.5419              3109.2649              3160.7583
 Red. masses --      1.0348                 1.1059                 1.1016
 Frc consts  --      5.6813                 6.2990                 6.4842
 IR Inten    --     70.8828                19.5702                 7.6330

                     88                     89                     90
                      A                      A                      A
 Frequencies --   3170.3088              3182.8158              3189.6103
 Red. masses --      1.0878                 1.0852                 1.0856
 Frc consts  --      6.4418                 6.4771                 6.5074
 IR Inten    --     10.9166                 0.1217                 0.1818

                     91                     92                     93
                      A                      A                      A
 Frequencies --   3193.4865              3200.3599              3205.3736
 Red. masses --      1.0892                 1.0899                 1.0936
 Frc consts  --      6.5449                 6.5770                 6.6204
 IR Inten    --     15.1592                16.7748                35.8160

                     94                     95                     96
                      A                      A                      A
 Frequencies --   3212.0672              3217.0114              3219.5762
 Red. masses --      1.0950                 1.0934                 1.0913
 Frc consts  --      6.6564                 6.6673                 6.6648
 IR Inten    --     37.1582                10.8480                 3.7581

                     97                     98                     99
                      A                      A                      A
 Frequencies --   3222.4864              3238.0465              3258.9390
 Red. masses --      1.0936                 1.0899                 1.0962
 Frc consts  --      6.6911                 6.7329                 6.8594
 IR Inten    --      7.7937                10.4148                 0.2872

 - Thermochemistry -
 -------------------
 Temperature   298.150 Kelvin.  Pressure   1.00000 Atm.
 Atom     1 has atomic number  6 and mass  12.00000

 Molecular mass:   261.11536 amu.
 Principal axes and moments of inertia in atomic units:
                           1         2         3
     Eigenvalues --  2388.35170********************
           X            1.00000   0.00129   0.00037
           Y           -0.00128   0.99998  -0.00653
           Z           -0.00037   0.00653   0.99998
 This molecule is an asymmetric top.
 Rotational symmetry number  1.
 Warning -- assumption of classical behavior for rotation
           may cause significant error
 Rotational temperatures (Kelvin)      0.03627     0.00740     0.00640
 Rotational constants (GHZ):           0.75564     0.15411     0.13341
 Zero-point vibrational energy     744277.9 (Joules/Mol)
                                  177.88668 (Kcal/Mol)
 Warning -- explicit consideration of  25 degrees of freedom as
           vibrations may cause significant error
 Vibrational temperatures:     25.42    58.69    63.13   119.31   133.97
          (Kelvin)            147.44   195.84   215.95   256.08   301.35
                              329.87   370.17   395.90   428.87   523.19
                              555.52   607.00   617.97   623.91   743.78
                              790.27   817.76   835.55   845.73   888.62
                              910.41   913.20  1002.31  1027.43  1041.56
                             1085.22  1102.73  1117.06  1133.59  1142.30
                             1165.57  1187.04  1234.55  1250.54  1281.15
                             1326.73  1365.55  1396.91  1410.13  1440.02
                             1469.04  1473.93  1514.42  1519.54  1526.11
                             1580.29  1593.86  1610.51  1669.83  1679.19
                             1683.05  1718.04  1721.72  1743.02  1757.12
                             1854.53  1863.25  1901.63  1942.18  1948.14
                             1967.30  1990.59  2011.49  2034.36  2056.19
                             2126.30  2148.97  2170.13  2182.65  2200.94
                             2216.00  2230.34  2276.25  2346.92  2357.11
                             2390.17  2407.57  2426.96  2476.65  4391.93
                             4473.54  4547.63  4561.37  4579.36  4589.14
                             4594.71  4604.60  4611.82  4621.45  4628.56
                             4632.25  4636.44  4658.83  4688.89

 Zero-point correction=                           0.283480 (Hartree/Particle)
 Thermal correction to Energy=                    0.300140
 Thermal correction to Enthalpy=                  0.301085
 Thermal correction to Gibbs Free Energy=         0.237163
 Sum of electronic and zero-point Energies=           -824.711452
 Sum of electronic and thermal Energies=              -824.694792
 Sum of electronic and thermal Enthalpies=            -824.693848
 Sum of electronic and thermal Free Energies=         -824.757769

                     E (Thermal)             CV                S
                      KCal/Mol        Cal/Mol-Kelvin    Cal/Mol-Kelvin
 Total                  188.341             64.836            134.534
 Electronic               0.000              0.000              0.000
 Translational            0.889              2.981             42.579
 Rotational               0.889              2.981             34.291
 Vibrational            186.563             58.874             57.663
 Vibration     1          0.593              1.986              6.881
 Vibration     2          0.594              1.981              5.220
 Vibration     3          0.595              1.980              5.076
 Vibration     4          0.600              1.961              3.820
 Vibration     5          0.602              1.954              3.594
 Vibration     6          0.605              1.947              3.407
 Vibration     7          0.614              1.917              2.858
 Vibration     8          0.618              1.903              2.671
 Vibration     9          0.628              1.869              2.349
 Vibration    10          0.642              1.826              2.048
 Vibration    11          0.652              1.796              1.885
 Vibration    12          0.667              1.750              1.680
 Vibration    13          0.677              1.719              1.564
 Vibration    14          0.691              1.677              1.428
 Vibration    15          0.737              1.547              1.107
 Vibration    16          0.755              1.500              1.015
 Vibration    17          0.784              1.423              0.886
 Vibration    18          0.791              1.406              0.860
 Vibration    19          0.794              1.397              0.847
 Vibration    20          0.872              1.212              0.617
 Vibration    21          0.905              1.141              0.546
 Vibration    22          0.924              1.100              0.507
 Vibration    23          0.937              1.073              0.484
 Vibration    24          0.945              1.058              0.471
 Vibration    25          0.977              0.995              0.420

                           ! Non-Optimized Parameters !
 Normal termination of Gaussian 16 at Sun Dec 13 17:03:16 2020.

 ----------------------------------------------------------------------
 # B3LYP/6-311++G(d,p) empiricaldispersion=gd3bj scf=xqc pop=npa geom=c
 heck
 ----------------------------------------------------------------------

 --------------------------------------
 CID_5905206_JID_10663_Energie_neutraal
 --------------------------------------
 Structure from the checkpoint file:  "JID_10663.chk"
 Charge =  0 Multiplicity = 1

 SCF Done:  E(RB3LYP) =  -825.206823023     A.U. after   17 cycles
 Normal termination of Gaussian 16 at Sun Dec 13 17:09:34 2020.

 ----------------------------------------------------------------------
 # B3LYP/6-311++G(d,p) empiricaldispersion=gd3bj scf=xqc pop=npa geom=c
 heck
 ----------------------------------------------------------------------

 ------------------------------------
 CID_5905206_JID_10663_Energie_kation
 ------------------------------------
 Structure from the checkpoint file:  "JID_10663.chk"
 Charge =  1 Multiplicity = 2

 SCF Done:  E(UB3LYP) =  -824.937501732     A.U. after   26 cycles
 Normal termination of Gaussian 16 at Sun Dec 13 17:22:30 2020.
 Gaussian 16:  ES64L-G16RevA.03 25-Dec-2016

 ----------------------------------------------------------------------
 # B3LYP/6-311++G(d,p) empiricaldispersion=gd3bj scf=xqc pop=npa geom=c
 heck
 ----------------------------------------------------------------------

 -----------------------------------
 CID_5905206_JID_10663_Energie_anion
 -----------------------------------
 Structure from the checkpoint file:  "JID_10663.chk"
 Charge = -1 Multiplicity = 2

                         Standard orientation:
 ---------------------------------------------------------------------
 Center     Atomic      Atomic             Coordinates (Angstroms)
 Number     Number       Type             X           Y           Z
 ---------------------------------------------------------------------
      1          6           0       -3.776211    2.905931   -0.516181
      2          7           0       -2.949085    1.731888   -0.333383
      3          6           0       -1.582559    1.680247   -0.405640
      4          6           0       -1.124307    0.390771   -0.183783
      5          6           0       -2.309196   -0.415670    0.055287
      6          6           0       -2.547985   -1.764386    0.361525
      7          6           0       -3.857629   -2.198304    0.537160
      8          6           0       -4.944576   -1.313332    0.417494
      9          6           0       -4.742871    0.031182    0.124594
     10          6           0       -3.425413    0.458439   -0.049876
     11          6           0        0.272547    0.043358   -0.213750
     12          6           0        0.819253   -1.193386   -0.144635
     13          6           0        2.252771   -1.494241   -0.279560
     14          8           0        2.612344   -2.617774   -0.630657
     15          6           0        3.286550   -0.437193   -0.010755
     16          6           0        4.476799   -0.482424   -0.750288
     17          6           0        5.485606    0.448447   -0.522741
     18          6           0        5.329131    1.421425    0.468560
     19          6           0        4.161010    1.455594    1.230467
     20          6           0        3.141530    0.534086    0.989659
     21          1           0       -4.467568    2.765507   -1.354513
     22          1           0       -4.357772    3.114969    0.388701
     23          1           0       -3.135253    3.763476   -0.728733
     24          1           0       -1.012521    2.574107   -0.621763
     25          1           0       -1.729240   -2.465339    0.472593
     26          1           0       -4.045440   -3.241512    0.773237
     27          1           0       -5.955532   -1.683674    0.559245
     28          1           0       -5.578126    0.719502    0.038176
     29          1           0        0.946280    0.889419   -0.335173
     30          1           0        0.197129   -2.081341   -0.117184
     31          1           0        4.589228   -1.260627   -1.497966
     32          1           0        6.398422    0.413457   -1.110938
     33          1           0        6.119820    2.143804    0.651938
     34          1           0        4.044930    2.195708    2.017429
     35          1           0        2.243801    0.548256    1.598661
 ---------------------------------------------------------------------

 SCF Done:  E(UB3LYP) =  -825.225859306     A.U. after   33 cycles
 SCF Done:  E(UB3LYP) =  -825.225859306     a.u. after    1 cycles

 The electronic state is 2-A.
 Alpha  occ. eigenvalues --  -18.92021 -14.25236 -10.12932 -10.09767 -10.07478
 Alpha  occ. eigenvalues --  -10.07383 -10.07232 -10.07171 -10.06419 -10.06371
 Alpha  occ. eigenvalues --  -10.06314 -10.05671 -10.05644 -10.05427 -10.04936
 Alpha  occ. eigenvalues --  -10.04742 -10.04482 -10.04427 -10.02596 -10.01312
 Alpha  occ. eigenvalues --   -0.88410  -0.86019  -0.74489  -0.73335  -0.70292
 Alpha  occ. eigenvalues --   -0.65364  -0.64283  -0.62626  -0.62518  -0.61899
 Alpha  occ. eigenvalues --   -0.58166  -0.51831  -0.51205  -0.49000  -0.48334
 Alpha  occ. eigenvalues --   -0.47037  -0.44753  -0.41901  -0.40140  -0.38847
 Alpha  occ. eigenvalues --   -0.37744  -0.37301  -0.36685  -0.34807  -0.34091
 Alpha  occ. eigenvalues --   -0.32950  -0.32489  -0.31838  -0.30563  -0.30262
 Alpha  occ. eigenvalues --   -0.29590  -0.29555  -0.28379  -0.26422  -0.25872
 Alpha  occ. eigenvalues --   -0.25156  -0.24719  -0.23415  -0.23298  -0.22525
 Alpha  occ. eigenvalues --   -0.22088  -0.20418  -0.18813  -0.14359  -0.13743
 Alpha  occ. eigenvalues --   -0.13141  -0.12660  -0.08823  -0.08020   0.03172
 Alpha virt. eigenvalues --    0.05809   0.07495   0.07533   0.07857   0.08809
 Alpha virt. eigenvalues --    0.09545   0.09704   0.10048   0.10165   0.10496
 Alpha virt. eigenvalues --    0.10759   0.11407   0.11502   0.12336   0.12828

  Beta  occ. eigenvalues --  -18.91475 -14.25162 -10.12935 -10.09780 -10.07324
  Beta  occ. eigenvalues --  -10.07203 -10.07111 -10.07006 -10.06409 -10.06359
  Beta  occ. eigenvalues --  -10.06271 -10.05706 -10.05655 -10.05304 -10.04889
  Beta  occ. eigenvalues --  -10.04822 -10.04440 -10.04366 -10.02273 -10.01316
  Beta  occ. eigenvalues --   -0.88198  -0.85070  -0.74448  -0.73199  -0.70131
  Beta  occ. eigenvalues --   -0.65170  -0.64025  -0.62472  -0.62325  -0.61684
  Beta  occ. eigenvalues --   -0.58012  -0.51505  -0.50811  -0.48841  -0.48269
  Beta  occ. eigenvalues --   -0.46844  -0.44549  -0.41740  -0.39970  -0.38710
  Beta  occ. eigenvalues --   -0.37545  -0.37137  -0.36547  -0.34738  -0.33998
  Beta  occ. eigenvalues --   -0.32848  -0.32398  -0.31785  -0.30455  -0.30152
  Beta  occ. eigenvalues --   -0.29333  -0.29293  -0.28269  -0.26280  -0.25429
  Beta  occ. eigenvalues --   -0.25004  -0.24368  -0.23074  -0.22922  -0.21947
  Beta  occ. eigenvalues --   -0.21229  -0.20019  -0.18101  -0.13631  -0.13399
  Beta  occ. eigenvalues --   -0.12248  -0.12106  -0.08314  -0.06821
  Beta virt. eigenvalues --    0.05745   0.07447   0.07751   0.07864   0.08759
  Beta virt. eigenvalues --    0.08892   0.09530   0.09898   0.10086   0.10391
  Beta virt. eigenvalues --    0.10660   0.10951   0.11412   0.12264   0.12294

 Mulliken charges and spin densities:
               1          2
     1  C   -0.325243  -0.004046
     2  N    0.186877   0.001619
     3  C    0.258130   0.318401
     4  C    0.164024  -0.053878
     5  C    1.166830   0.007511
     6  C   -1.189689   0.001473
     7  C   -0.708922   0.036991
     8  C   -0.332278  -0.027007
     9  C   -0.420653   0.062651
    10  C    0.326068  -0.052132
    11  C   -0.315278   0.244316
    12  C    0.058736  -0.066968
    13  C   -1.539706   0.182382
    14  O   -0.365411   0.191945
    15  C    1.335334   0.037573
    16  C    0.141672   0.082017
    17  C   -0.376203  -0.020212
    18  C   -0.247366   0.095131
    19  C   -0.398353  -0.003827
    20  C   -0.438087   0.002221
    21  H    0.149369   0.007075
    22  H    0.145488   0.013742
    23  H    0.126225   0.000087
    24  H    0.161044  -0.019428
    25  H    0.055848  -0.002210
    26  H    0.145039  -0.002530
    27  H    0.129513   0.002039
    28  H    0.112547  -0.003714
    29  H    0.078565  -0.018458
    30  H    0.169788   0.001826
    31  H    0.192969  -0.005549
    32  H    0.122910   0.002299
    33  H    0.113583  -0.007866
    34  H    0.130705   0.000580
    35  H    0.185923  -0.004053
 Sum of Mulliken charges =  -1.00000   1.00000

 Dipole moment (field-independent basis, Debye):
    X=             -6.4738    Y=              6.6859    Z=              0.6737  Tot=              9.3309
 Quadrupole moment (field-independent basis, Debye-Ang):
   XX=           -172.3154   YY=           -136.8400   ZZ=           -129.2624
   XY=              5.3266   XZ=              1.8443   YZ=             -4.4435

 Summary of Natural Population Analysis:

                                       Natural Population
                Natural  -----------------------------------------------
    Atom  No    Charge         Core      Valence    Rydberg      Total
 -----------------------------------------------------------------------
      C    1   -0.16862      0.99963     2.16264    0.00635     3.16862
      N    2   -0.20364      0.99961     2.69572    0.00831     3.70364
      C    3    0.09866      0.99948     1.88948    0.01239     2.90134
      C    4   -0.09028      0.99952     2.08169    0.00908     3.09028
      C    5   -0.03156      0.99947     2.02368    0.00840     3.03156
      C    6   -0.08824      0.99945     2.07979    0.00900     3.08824
      C    7   -0.11293      0.99960     2.10358    0.00975     3.11293
      C    8   -0.12698      0.99961     2.11697    0.01041     3.12698
      C    9   -0.10818      0.99944     2.10098    0.00776     3.10818
      C   10    0.07555      0.99949     1.91327    0.01169     2.92445
      C   11   -0.01850      0.99946     2.01164    0.00741     3.01850
      C   12   -0.14571      0.99953     2.13649    0.00969     3.14571
      C   13    0.26729      0.99959     1.71255    0.02056     2.73271
      O   14   -0.25116      0.99989     3.24473    0.00654     4.25116
      C   15   -0.04420      0.99948     2.03428    0.01044     3.04420
      C   16   -0.06987      0.99953     2.06092    0.00942     3.06987
      C   17   -0.11972      0.99957     2.11086    0.00929     3.11972
      C   18   -0.08846      0.99957     2.07934    0.00955     3.08846
      C   19   -0.11605      0.99957     2.10712    0.00936     3.11605
      C   20   -0.08751      0.99954     2.07982    0.00815     3.08751
      H   21    0.09214      0.00000     0.40632    0.00154     0.40786
      H   22    0.09208      0.00000     0.40635    0.00157     0.40792
      H   23    0.09887      0.00000     0.40029    0.00084     0.40113
      H   24    0.08987      0.00000     0.40931    0.00082     0.41013
      H   25    0.10415      0.00000     0.39423    0.00162     0.39585
      H   26    0.09445      0.00000     0.40453    0.00102     0.40555
      H   27    0.09357      0.00000     0.40538    0.00105     0.40643
      H   28    0.09616      0.00000     0.40278    0.00106     0.40384
      H   29    0.09051      0.00000     0.40756    0.00192     0.40949
      H   30    0.09231      0.00000     0.40555    0.00214     0.40769
      H   31    0.10637      0.00000     0.39232    0.00131     0.39363
      H   32    0.09244      0.00000     0.40653    0.00103     0.40756
      H   33    0.09017      0.00000     0.40881    0.00102     0.40983
      H   34    0.09271      0.00000     0.40623    0.00106     0.40729
      H   35    0.10435      0.00000     0.39423    0.00143     0.39565
 =======================================================================
   * Total *    0.00003     19.99102    48.79597    0.21298    68.99997

 Normal termination of Gaussian 16 at Sun Dec 13 17:38:52 2020.
