 Gaussian 16, Revision A.03,

 -----------------------------------------------------------
 # opt freq B3LYP/6-31G(d) empiricaldispersion=gd3bj scf=xqc
 -----------------------------------------------------------

 ------------------------------
 CID_81257543_JID_9640_neutraal
 ------------------------------
 Symbolic Z-matrix:
 Charge =  0 Multiplicity = 1

 SCF Done:  E(RB3LYP) =  -894.375499451     A.U. after   15 cycles
 SCF Done:  E(RB3LYP) =  -894.379938862     A.U. after   13 cycles
 SCF Done:  E(RB3LYP) =  -894.379901723     A.U. after   13 cycles
 SCF Done:  E(RB3LYP) =  -894.382900572     A.U. after   11 cycles
 SCF Done:  E(RB3LYP) =  -894.384544217     A.U. after   12 cycles
 SCF Done:  E(RB3LYP) =  -894.387943170     A.U. after   14 cycles
 SCF Done:  E(RB3LYP) =  -894.389877084     A.U. after   14 cycles
 SCF Done:  E(RB3LYP) =  -894.391499779     A.U. after   12 cycles
 SCF Done:  E(RB3LYP) =  -894.392297625     A.U. after   12 cycles
 SCF Done:  E(RB3LYP) =  -894.392844999     A.U. after   12 cycles
 SCF Done:  E(RB3LYP) =  -894.393384708     A.U. after    7 cycles
 SCF Done:  E(RB3LYP) =  -894.393384839     A.U. after    8 cycles
 SCF Done:  E(RB3LYP) =  -894.393384891     A.U. after    8 cycles
 SCF Done:  E(RB3LYP) =  -894.393384946     A.U. after    8 cycles
 SCF Done:  E(RB3LYP) =  -894.393384959     A.U. after    7 cycles
 Optimization completed.
    -- Stationary point found.
 Normal termination of Gaussian 16 at Sun Dec 13 20:43:30 2020.

 --------------------------------------------------------------------
 #N Geom=AllCheck Guess=TCheck SCRF=Check GenChk RB3LYP/6-31G(d) Freq
 --------------------------------------------------------------------

 Structure from the checkpoint file:  "JID_9640.chk"
 ------------------------------
 CID_81257543_JID_9640_neutraal
 ------------------------------
 Charge =  0 Multiplicity = 1

 SCF Done:  E(RB3LYP) =  -894.393384959     A.U. after    1 cycles

  Exact polarizability: 211.621  -0.228 159.433 -22.834   1.603 109.905
 Approx polarizability: 292.812  -7.731 270.468 -50.554  -1.598 178.939

                      1                      2                      3
                      A                      A                      A
 Frequencies --     23.0069                25.1467                42.5234
 Red. masses --      6.7603                 4.9394                 4.9787
 Frc consts  --      0.0021                 0.0018                 0.0053
 IR Inten    --      1.5270                 0.3742                 0.2163

                      4                      5                      6
                      A                      A                      A
 Frequencies --     60.6557                81.8786                86.5822
 Red. masses --      4.7732                 3.9921                 4.6067
 Frc consts  --      0.0103                 0.0158                 0.0203
 IR Inten    --      1.7540                 1.6611                 0.1506

                      7                      8                      9
                      A                      A                      A
 Frequencies --    118.8691               142.8320               165.9172
 Red. masses --      2.8881                 5.2958                 3.3783
 Frc consts  --      0.0240                 0.0637                 0.0548
 IR Inten    --      3.4016                 0.9932                 0.7703

                     10                     11                     12
                      A                      A                      A
 Frequencies --    183.6234               206.8661               221.4584
 Red. masses --      2.5737                 1.7410                 4.5293
 Frc consts  --      0.0511                 0.0439                 0.1309
 IR Inten    --      0.3236                 2.3918                 2.2028

                     13                     14                     15
                      A                      A                      A
 Frequencies --    239.3303               252.2090               324.5529
 Red. masses --      4.1580                 2.2776                 4.4629
 Frc consts  --      0.1403                 0.0854                 0.2770
 IR Inten    --      4.5446                 0.3527                 1.7905

                     16                     17                     18
                      A                      A                      A
 Frequencies --    350.2119               376.3770               399.7940
 Red. masses --      7.3635                 4.4815                 4.9222
 Frc consts  --      0.5321                 0.3740                 0.4635
 IR Inten    --      3.0408                 1.6188                 5.2812

                     19                     20                     21
                      A                      A                      A
 Frequencies --    436.2986               452.2331               461.4688
 Red. masses --      1.3501                 2.3823                 3.3592
 Frc consts  --      0.1514                 0.2871                 0.4215
 IR Inten    --    130.7010                26.5669                 2.1530

                     22                     23                     24
                      A                      A                      A
 Frequencies --    482.5120               547.9779               557.3891
 Red. masses --      5.3770                 1.5691                 3.9836
 Frc consts  --      0.7376                 0.2776                 0.7292
 IR Inten    --      1.0137                65.1122                27.7480

                     25                     26                     27
                      A                      A                      A
 Frequencies --    589.1733               607.7629               622.0485
 Red. masses --      3.4564                 3.6664                 4.0250
 Frc consts  --      0.7069                 0.7979                 0.9176
 IR Inten    --      2.2905                 3.0514                10.2211

                     28                     29                     30
                      A                      A                      A
 Frequencies --    637.6184               667.1200               681.4455
 Red. masses --      6.2984                 3.9114                 3.7008
 Frc consts  --      1.5087                 1.0256                 1.0125
 IR Inten    --     20.3489                15.5367                16.2799

                     31                     32                     33
                      A                      A                      A
 Frequencies --    724.4296               746.3075               761.3187
 Red. masses --      4.7064                 1.3054                 5.4533
 Frc consts  --      1.4552                 0.4284                 1.8623
 IR Inten    --      7.0343                17.4097                60.2294

                     34                     35                     36
                      A                      A                      A
 Frequencies --    788.5955               802.4658               829.4352
 Red. masses --      3.3740                 2.8897                 1.3972
 Frc consts  --      1.2362                 1.0964                 0.5664
 IR Inten    --      3.7502                 3.7478                10.7170

                     37                     38                     39
                      A                      A                      A
 Frequencies --    832.2894               833.7895               863.9473
 Red. masses --      1.4740                 1.4339                 1.3329
 Frc consts  --      0.6016                 0.5873                 0.5862
 IR Inten    --      9.1980                30.1773                 0.2592

                     40                     41                     42
                      A                      A                      A
 Frequencies --    918.9305               922.5382               926.5375
 Red. masses --      6.2377                 2.0920                 1.4204
 Frc consts  --      3.1034                 1.0490                 0.7184
 IR Inten    --      7.5537                 4.5746                 1.6480

                     43                     44                     45
                      A                      A                      A
 Frequencies --    939.7537               994.9667              1011.8231
 Red. masses --      1.3103                 2.0229                 2.4948
 Frc consts  --      0.6818                 1.1799                 1.5048
 IR Inten    --     14.2251                27.4235                 3.2117

                     46                     47                     48
                      A                      A                      A
 Frequencies --   1031.8367              1069.4846              1080.8287
 Red. masses --      3.6215                 4.7399                 5.0120
 Frc consts  --      2.2718                 3.1943                 3.4496
 IR Inten    --     38.6806                 7.2059               117.9131

                     49                     50                     51
                      A                      A                      A
 Frequencies --   1095.1407              1127.3230              1138.2197
 Red. masses --      1.5902                 2.0536                 1.7183
 Frc consts  --      1.1237                 1.5376                 1.3116
 IR Inten    --     42.8042                36.6133                10.6526

                     52                     53                     54
                      A                      A                      A
 Frequencies --   1155.1718              1188.9583              1205.9620
 Red. masses --      2.2131                 1.7157                 1.7169
 Frc consts  --      1.7399                 1.4290                 1.4712
 IR Inten    --     25.2759                 5.8025                10.0567

                     55                     56                     57
                      A                      A                      A
 Frequencies --   1213.5688              1220.1787              1260.2031
 Red. masses --      2.2518                 1.1181                 2.0442
 Frc consts  --      1.9539                 0.9808                 1.9127
 IR Inten    --     13.6270                16.4100               121.2846

                     58                     59                     60
                      A                      A                      A
 Frequencies --   1284.4738              1296.7983              1304.0364
 Red. masses --      1.7174                 2.4199                 1.6035
 Frc consts  --      1.6694                 2.3977                 1.6066
 IR Inten    --    158.9036               123.8988                26.7934

                     61                     62                     63
                      A                      A                      A
 Frequencies --   1320.9253              1330.8369              1355.8267
 Red. masses --      3.9549                 1.5966                 2.5271
 Frc consts  --      4.0658                 1.6661                 2.7370
 IR Inten    --      7.7875                30.5298               155.7328

                     64                     65                     66
                      A                      A                      A
 Frequencies --   1362.8404              1396.1042              1419.1644
 Red. masses --      3.0297                 1.5235                 1.3706
 Frc consts  --      3.3154                 1.7495                 1.6264
 IR Inten    --    144.2373                54.9598                19.8164

                     67                     68                     69
                      A                      A                      A
 Frequencies --   1423.2871              1436.5379              1444.2369
 Red. masses --      1.6308                 2.7233                 1.2986
 Frc consts  --      1.9464                 3.3111                 1.5959
 IR Inten    --     43.8057               228.4088                37.7783

                     70                     71                     72
                      A                      A                      A
 Frequencies --   1463.2159              1491.4200              1516.6066
 Red. masses --      2.1597                 2.4517                 1.0450
 Frc consts  --      2.7244                 3.2130                 1.4161
 IR Inten    --      4.4310                23.3372                 3.8125

                     73                     74                     75
                      A                      A                      A
 Frequencies --   1521.3298              1523.7521              1531.6830
 Red. masses --      1.3282                 2.4741                 1.0554
 Frc consts  --      1.8112                 3.3846                 1.4589
 IR Inten    --     20.5319                40.8447                 3.9129

                     76                     77                     78
                      A                      A                      A
 Frequencies --   1545.5787              1552.5358              1572.1820
 Red. masses --      1.3801                 1.8380                 4.7390
 Frc consts  --      1.9424                 2.6103                 6.9014
 IR Inten    --     72.3658               170.5994                 6.1954

                     79                     80                     81
                      A                      A                      A
 Frequencies --   1645.6051              1673.7850              1818.5856
 Red. masses --      6.9530                 6.1947                 9.4711
 Frc consts  --     11.0936                10.2252                18.4552
 IR Inten    --      8.3191                 8.1619               585.2569

                     82                     83                     84
                      A                      A                      A
 Frequencies --   3024.3994              3051.1942              3063.6499
 Red. masses --      1.0687                 1.0674                 1.0361
 Frc consts  --      5.7593                 5.8551                 5.7296
 IR Inten    --     35.4324                39.4742                14.6303

                     85                     86                     87
                      A                      A                      A
 Frequencies --   3086.6084              3116.7331              3133.4513
 Red. masses --      1.0945                 1.0988                 1.1012
 Frc consts  --      6.1439                 6.2887                 6.3704
 IR Inten    --     21.4802                11.3417                29.5606

                     88                     89                     90
                      A                      A                      A
 Frequencies --   3147.4358              3197.8123              3231.3304
 Red. masses --      1.1035                 1.0900                 1.0902
 Frc consts  --      6.4408                 6.5673                 6.7066
 IR Inten    --     37.9538                 9.5484                 3.9926

                     91                     92                     93
                      A                      A                      A
 Frequencies --   3234.2675              3263.3992              3295.3058
 Red. masses --      1.0915                 1.0946                 1.0975
 Frc consts  --      6.7268                 6.8681                 7.0215
 IR Inten    --     10.4947                 5.3338                 0.8702

                     94                     95                     96
                      A                      A                      A
 Frequencies --   3321.4424              3590.1316              3715.0756
 Red. masses --      1.1017                 1.0755                 1.0663
 Frc consts  --      7.1609                 8.1674                 8.6711
 IR Inten    --      1.1102                44.4515                22.0298

 - Thermochemistry -
 -------------------
 Temperature   298.150 Kelvin.  Pressure   1.00000 Atm.
 Atom     1 has atomic number  6 and mass  12.00000

 Molecular mass:   261.11134 amu.
 Principal axes and moments of inertia in atomic units:
                           1         2         3
     Eigenvalues --  2587.857877949.409729311.28377
           X            0.99995   0.00973  -0.00274
           Y           -0.00976   0.99992  -0.00803
           Z            0.00266   0.00806   0.99996
 This molecule is an asymmetric top.
 Rotational symmetry number  1.
 Warning -- assumption of classical behavior for rotation
           may cause significant error
 Rotational temperatures (Kelvin)      0.03347     0.01090     0.00930
 Rotational constants (GHZ):           0.69739     0.22703     0.19382
 Zero-point vibrational energy     720346.2 (Joules/Mol)
                                  172.16686 (Kcal/Mol)
 Warning -- explicit consideration of  26 degrees of freedom as
           vibrations may cause significant error
 Vibrational temperatures:     33.10    36.18    61.18    87.27   117.80
          (Kelvin)            124.57   171.03   205.50   238.72   264.19
                              297.63   318.63   344.34   362.87   466.96
                              503.88   541.52   575.21   627.74   650.66
                              663.95   694.23   788.42   801.96   847.69
                              874.44   894.99   917.39   959.84   980.45
                             1042.29  1073.77  1095.37  1134.61  1154.57
                             1193.37  1197.48  1199.64  1243.03  1322.14
                             1327.33  1333.08  1352.10  1431.54  1455.79
                             1484.58  1538.75  1555.07  1575.66  1621.97
                             1637.64  1662.03  1710.65  1735.11  1746.05
                             1755.56  1813.15  1848.07  1865.80  1876.22
                             1900.52  1914.78  1950.73  1960.82  2008.68
                             2041.86  2047.79  2066.86  2077.93  2105.24
                             2145.82  2182.06  2188.85  2192.34  2203.75
                             2223.74  2233.75  2262.02  2367.66  2408.20
                             2616.54  4351.44  4389.99  4407.91  4440.94
                             4484.28  4508.34  4528.46  4600.94  4649.16
                             4653.39  4695.30  4741.21  4778.81  5165.40
                             5345.17

 Zero-point correction=                           0.274365 (Hartree/Particle)
 Thermal correction to Energy=                    0.291845
 Thermal correction to Enthalpy=                  0.292789
 Thermal correction to Gibbs Free Energy=         0.226886
 Sum of electronic and zero-point Energies=           -894.119020
 Sum of electronic and thermal Energies=              -894.101540
 Sum of electronic and thermal Enthalpies=            -894.100596
 Sum of electronic and thermal Free Energies=         -894.166499

                     E (Thermal)             CV                S
                      KCal/Mol        Cal/Mol-Kelvin    Cal/Mol-Kelvin
 Total                  183.135             65.818            138.704
 Electronic               0.000              0.000              0.000
 Translational            0.889              2.981             42.579
 Rotational               0.889              2.981             33.615
 Vibrational            181.358             59.856             62.510
 Vibration     1          0.593              1.985              6.356
 Vibration     2          0.593              1.985              6.180
 Vibration     3          0.595              1.980              5.138
 Vibration     4          0.597              1.973              4.436
 Vibration     5          0.600              1.962              3.845
 Vibration     6          0.601              1.959              3.736
 Vibration     7          0.609              1.934              3.119
 Vibration     8          0.616              1.910              2.766
 Vibration     9          0.624              1.884              2.481
 Vibration    10          0.631              1.862              2.291
 Vibration    11          0.641              1.830              2.071
 Vibration    12          0.648              1.808              1.947
 Vibration    13          0.657              1.780              1.808
 Vibration    14          0.664              1.759              1.715
 Vibration    15          0.709              1.626              1.287
 Vibration    16          0.727              1.575              1.165
 Vibration    17          0.747              1.520              1.054
 Vibration    18          0.766              1.471              0.963
 Vibration    19          0.797              1.391              0.838
 Vibration    20          0.811              1.356              0.789
 Vibration    21          0.819              1.336              0.762
 Vibration    22          0.839              1.289              0.703
 Vibration    23          0.903              1.144              0.548
 Vibration    24          0.913              1.124              0.529
 Vibration    25          0.946              1.055              0.469
 Vibration    26          0.967              1.015              0.436

 Optimization completed.
    -- Stationary point found.
 Normal termination of Gaussian 16 at Sun Dec 13 20:59:42 2020.

 ----------------------------------------------------------------------
 # B3LYP/6-311++G(d,p) empiricaldispersion=gd3bj scf=xqc pop=npa geom=c
 heck
 ----------------------------------------------------------------------

 --------------------------------------
 CID_81257543_JID_9640_Energie_neutraal
 --------------------------------------
 Structure from the checkpoint file:  "JID_9640.chk"
 Charge =  0 Multiplicity = 1

 SCF Done:  E(RB3LYP) =  -894.651139242     A.U. after   15 cycles
 Normal termination of Gaussian 16 at Sun Dec 13 21:06:32 2020.

 ----------------------------------------------------------------------
 # B3LYP/6-311++G(d,p) empiricaldispersion=gd3bj scf=xqc pop=npa geom=c
 heck
 ----------------------------------------------------------------------

 ------------------------------------
 CID_81257543_JID_9640_Energie_kation
 ------------------------------------
 Structure from the checkpoint file:  "JID_9640.chk"
 Charge =  1 Multiplicity = 2

 SCF Done:  E(UB3LYP) =  -894.357832314     A.U. after   25 cycles
 Normal termination of Gaussian 16 at Sun Dec 13 21:22:47 2020.
 Gaussian 16:  ES64L-G16RevA.03 25-Dec-2016

 ----------------------------------------------------------------------
 # B3LYP/6-311++G(d,p) empiricaldispersion=gd3bj scf=xqc pop=npa geom=c
 heck
 ----------------------------------------------------------------------

 -----------------------------------
 CID_81257543_JID_9640_Energie_anion
 -----------------------------------
 Structure from the checkpoint file:  "JID_9640.chk"
 Charge = -1 Multiplicity = 2

                         Standard orientation:
 ---------------------------------------------------------------------
 Center     Atomic      Atomic             Coordinates (Angstroms)
 Number     Number       Type             X           Y           Z
 ---------------------------------------------------------------------
      1          6           0       -5.299259   -0.716538   -0.150003
      2          6           0       -4.533743    0.165541    0.828250
      3          8           0       -3.366448    0.743187    0.237436
      4          6           0       -2.236828   -0.009826    0.093687
      5          6           0       -1.164139    0.646174   -0.542937
      6          6           0        0.022389   -0.041238   -0.748302
      7          6           0        0.198389   -1.341151   -0.260901
      8          6           0       -0.858122   -1.978544    0.382902
      9          6           0       -2.083565   -1.325369    0.540229
     10          7           0        1.447123   -2.015062   -0.404636
     11          6           0        2.703829   -1.464903   -0.415607
     12          8           0        3.656005   -1.976056   -0.973892
     13          7           0        2.849934   -0.238359    0.293273
     14          6           0        2.151968    0.265597    1.388666
     15          6           0        2.690613    1.499689    1.621513
     16          7           0        3.693647    1.785058    0.704745
     17          6           0        3.773495    0.728343   -0.061793
     18          6           0       -1.295407    2.093445   -0.975139
     19          8           0       -0.055803    2.684833   -1.328309
     20          1           0       -5.574279   -0.140588   -1.038851
     21          1           0       -6.216370   -1.089566    0.319367
     22          1           0       -4.703892   -1.575921   -0.471628
     23          1           0       -5.139978    1.026040    1.122862
     24          1           0       -4.262636   -0.376891    1.742866
     25          1           0        0.825193    0.466277   -1.269460
     26          1           0       -0.728084   -2.984447    0.771457
     27          1           0       -2.895882   -1.846584    1.031287
     28          1           0        1.438692   -2.925037   -0.850089
     29          1           0        1.376610   -0.297852    1.879502
     30          1           0        2.433072    2.199496    2.404920
     31          1           0        4.446807    0.574114   -0.891905
     32          1           0       -1.927864    2.169991   -1.866720
     33          1           0       -1.806174    2.659715   -0.182829
     34          1           0        0.512093    2.676758   -0.539719
 ---------------------------------------------------------------------

 SCF Done:  E(UB3LYP) =  -894.651507031     A.U. after   33 cycles
 SCF Done:  E(UB3LYP) =  -894.651507031     a.u. after    1 cycles

 The electronic state is 2-A.
 Alpha  occ. eigenvalues --  -19.06039 -19.03653 -18.99185 -14.27630 -14.25022
 Alpha  occ. eigenvalues --  -14.20049 -10.19869 -10.13860 -10.13573 -10.13164
 Alpha  occ. eigenvalues --  -10.12306 -10.11269 -10.10290 -10.09089 -10.08565
 Alpha  occ. eigenvalues --  -10.08183 -10.07950 -10.07517 -10.07482  -0.97647
 Alpha  occ. eigenvalues --   -0.96687  -0.93856  -0.90998  -0.84495  -0.78147
 Alpha  occ. eigenvalues --   -0.75755  -0.68929  -0.66891  -0.65402  -0.64139
 Alpha  occ. eigenvalues --   -0.59428  -0.57324  -0.55530  -0.51281  -0.50901
 Alpha  occ. eigenvalues --   -0.49988  -0.47431  -0.45578  -0.44040  -0.42971
 Alpha  occ. eigenvalues --   -0.40732  -0.40006  -0.37134  -0.36799  -0.36590
 Alpha  occ. eigenvalues --   -0.36039  -0.34905  -0.34633  -0.34214  -0.33059
 Alpha  occ. eigenvalues --   -0.32905  -0.31837  -0.31194  -0.30893  -0.29908
 Alpha  occ. eigenvalues --   -0.29299  -0.28307  -0.26852  -0.25196  -0.24166
 Alpha  occ. eigenvalues --   -0.23504  -0.19721  -0.19466  -0.19148  -0.18215
 Alpha  occ. eigenvalues --   -0.17558  -0.16202  -0.14198  -0.11935   0.03632
 Alpha virt. eigenvalues --    0.05447   0.06874   0.07245   0.07456   0.07909
 Alpha virt. eigenvalues --    0.08630   0.09034   0.09240   0.09837   0.10354
 Alpha virt. eigenvalues --    0.10668   0.11443   0.11552   0.11980   0.12319

  Beta  occ. eigenvalues --  -19.06032 -19.03653 -18.99010 -14.27663 -14.25053
  Beta  occ. eigenvalues --  -14.20039 -10.19631 -10.13843 -10.13477 -10.13160
  Beta  occ. eigenvalues --  -10.12182 -10.11181 -10.10215 -10.09070 -10.08591
  Beta  occ. eigenvalues --  -10.08173 -10.07929 -10.07475 -10.07426  -0.97600
  Beta  occ. eigenvalues --   -0.96385  -0.93855  -0.90871  -0.84364  -0.78061
  Beta  occ. eigenvalues --   -0.75676  -0.68861  -0.66831  -0.65233  -0.64003
  Beta  occ. eigenvalues --   -0.59358  -0.57097  -0.55376  -0.51231  -0.50784
  Beta  occ. eigenvalues --   -0.49885  -0.47284  -0.45500  -0.43969  -0.42921
  Beta  occ. eigenvalues --   -0.40679  -0.39946  -0.36968  -0.36688  -0.36443
  Beta  occ. eigenvalues --   -0.35716  -0.34855  -0.34562  -0.34122  -0.32935
  Beta  occ. eigenvalues --   -0.32785  -0.31786  -0.31110  -0.30525  -0.29827
  Beta  occ. eigenvalues --   -0.29139  -0.28051  -0.26774  -0.25130  -0.23912
  Beta  occ. eigenvalues --   -0.23441  -0.19652  -0.19240  -0.19035  -0.18105
  Beta  occ. eigenvalues --   -0.17333  -0.15976  -0.13757  -0.11611
  Beta virt. eigenvalues --    0.06136   0.07100   0.07314   0.07500   0.07802
  Beta virt. eigenvalues --    0.08195   0.08910   0.09440   0.09559   0.09974
  Beta virt. eigenvalues --    0.10443   0.10944   0.11529   0.11801   0.12046

 Mulliken charges and spin densities:
               1          2
     1  C    0.886305  -1.282243
     2  C   -0.339853   0.156308
     3  O   -0.094769   0.002102
     4  C   -1.209969   0.787271
     5  C    0.029088   0.306741
     6  C    0.202740  -0.249292
     7  C    0.310738  -1.039541
     8  C    0.035169  -0.040414
     9  C    0.726633  -0.536793
    10  N   -0.188991   0.027241
    11  C    0.252067  -0.000928
    12  O   -0.361790   0.073472
    13  N   -0.097091  -0.010943
    14  C    0.099771   0.013400
    15  C   -0.545393   0.060501
    16  N   -0.159643  -0.000002
    17  C   -0.066109   0.077974
    18  C   -0.295261  -0.063882
    19  O   -0.270658  -0.000789
    20  H    0.028581   0.115583
    21  H   -0.423555   0.564656
    22  H   -0.199972   0.341934
    23  H   -0.268523   0.447455
    24  H   -0.031778   0.159772
    25  H    0.258355   0.000843
    26  H   -0.450694   0.632263
    27  H   -0.118605   0.320445
    28  H    0.203055   0.133391
    29  H    0.196390  -0.020352
    30  H    0.119576   0.009430
    31  H    0.171986  -0.009215
    32  H    0.183111   0.024018
    33  H    0.172923   0.000954
    34  H    0.246167  -0.001358
 Sum of Mulliken charges =  -1.00000   1.00000

 Dipole moment (field-independent basis, Debye):
    X=              0.8728    Y=              2.4310    Z=              0.4149  Tot=              2.6161
 Quadrupole moment (field-independent basis, Debye-Ang):
   XX=           -219.1651   YY=           -154.7997   ZZ=           -131.2449
   XY=            -10.8809   XZ=              6.9667   YZ=              3.1316

 Summary of Natural Population Analysis:

                                       Natural Population
                Natural  -----------------------------------------------
    Atom  No    Charge         Core      Valence    Rydberg      Total
 -----------------------------------------------------------------------
      C    1   -0.30082      0.99966     2.29627    0.00489     3.30082
      C    2   -0.01127      0.99959     1.99946    0.01223     3.01127
      O    3   -0.28047      0.99986     3.27132    0.00929     4.28047
      C    4    0.17327      0.99934     1.81452    0.01287     2.82673
      C    5   -0.05373      0.99947     2.04372    0.01054     3.05373
      C    6   -0.09699      0.99947     2.08746    0.01005     3.09699
      C    7    0.06739      0.99945     1.92205    0.01111     2.93261
      C    8   -0.10228      0.99952     2.09250    0.01026     3.10228
      C    9   -0.13739      0.99953     2.12915    0.00871     3.13739
      N   10   -0.32167      0.99965     2.81315    0.00888     3.82167
      C   11    0.44424      0.99969     1.53254    0.02353     2.55576
      O   12   -0.30102      0.99987     3.29627    0.00488     4.30102
      N   13   -0.24104      0.99962     2.73022    0.01120     3.74104
      C   14   -0.02016      0.99956     2.01029    0.01030     3.02016
      C   15   -0.04193      0.99958     2.02863    0.01373     3.04193
      N   16   -0.25659      0.99973     2.74589    0.01098     3.75659
      C   17    0.13854      0.99966     1.84633    0.01546     2.86146
      C   18   -0.01248      0.99956     2.00114    0.01178     3.01248
      O   19   -0.36701      0.99990     3.36126    0.00586     4.36701
      H   20    0.09986      0.00000     0.39917    0.00097     0.40014
      H   21    0.10450      0.00000     0.39344    0.00206     0.39550
      H   22    0.10381      0.00000     0.39477    0.00142     0.39619
      H   23    0.09072      0.00000     0.40810    0.00118     0.40928
      H   24    0.08447      0.00000     0.41395    0.00158     0.41553
      H   25    0.11190      0.00000     0.38679    0.00131     0.38810
      H   26    0.10408      0.00000     0.39444    0.00148     0.39592
      H   27    0.10648      0.00000     0.39212    0.00140     0.39352
      H   28    0.20118      0.00000     0.29661    0.00220     0.29882
      H   29    0.11139      0.00000     0.38753    0.00108     0.38861
      H   30    0.09447      0.00000     0.40458    0.00094     0.40553
      H   31    0.09911      0.00000     0.39985    0.00103     0.40089
      H   32    0.09201      0.00000     0.40660    0.00139     0.40799
      H   33    0.08578      0.00000     0.41264    0.00158     0.41422
      H   34    0.23166      0.00000     0.26597    0.00237     0.26834
 =======================================================================
   * Total *    0.00000     18.99272    49.77875    0.22854    69.00000

 Normal termination of Gaussian 16 at Sun Dec 13 21:44:02 2020.
