 Gaussian 16, Revision A.03,

 -----------------------------------------------------------
 # opt freq B3LYP/6-31G(d) empiricaldispersion=gd3bj scf=xqc
 -----------------------------------------------------------

 ------------------------------
 CID_54493317_JID_2753_neutraal
 ------------------------------
 Symbolic Z-matrix:
 Charge =  0 Multiplicity = 1

 SCF Done:  E(RB3LYP) =  -610.572423377     A.U. after   15 cycles
 SCF Done:  E(RB3LYP) =  -610.575170812     A.U. after   13 cycles
 SCF Done:  E(RB3LYP) =  -610.573186238     A.U. after   13 cycles
 SCF Done:  E(RB3LYP) =  -610.575407556     A.U. after   13 cycles
 SCF Done:  E(RB3LYP) =  -610.575741497     A.U. after   12 cycles
 SCF Done:  E(RB3LYP) =  -610.575788930     A.U. after   10 cycles
 SCF Done:  E(RB3LYP) =  -610.575804476     A.U. after   10 cycles
 SCF Done:  E(RB3LYP) =  -610.575841977     A.U. after   12 cycles
 SCF Done:  E(RB3LYP) =  -610.575869174     A.U. after   12 cycles
 SCF Done:  E(RB3LYP) =  -610.575878161     A.U. after   11 cycles
 SCF Done:  E(RB3LYP) =  -610.575881005     A.U. after    9 cycles
 SCF Done:  E(RB3LYP) =  -610.575881235     A.U. after    8 cycles
 SCF Done:  E(RB3LYP) =  -610.575881315     A.U. after    8 cycles
 SCF Done:  E(RB3LYP) =  -610.575881387     A.U. after    8 cycles
 SCF Done:  E(RB3LYP) =  -610.575881408     A.U. after    7 cycles
 Optimization completed.
    -- Stationary point found.
 Normal termination of Gaussian 16 at Wed Dec  9 17:30:42 2020.

 --------------------------------------------------------------------
 #N Geom=AllCheck Guess=TCheck SCRF=Check GenChk RB3LYP/6-31G(d) Freq
 --------------------------------------------------------------------

 Structure from the checkpoint file:  "JID_2753.chk"
 ------------------------------
 CID_54493317_JID_2753_neutraal
 ------------------------------
 Charge =  0 Multiplicity = 1

 SCF Done:  E(RB3LYP) =  -610.575881408     A.U. after    1 cycles

  Exact polarizability: 133.694  -5.240 116.668   0.058   1.415  41.253
 Approx polarizability: 234.698 -17.151 188.982  -0.999   2.593  63.684

                      1                      2                      3
                      A                      A                      A
 Frequencies --     77.0327               130.4498               136.4647
 Red. masses --      5.6051                 1.4223                 3.1816
 Frc consts  --      0.0196                 0.0143                 0.0349
 IR Inten    --      3.7760                 5.1057                 2.6853

                      4                      5                      6
                      A                      A                      A
 Frequencies --    169.4413               180.6445               202.4947
 Red. masses --      2.0741                 1.3085                 4.4580
 Frc consts  --      0.0351                 0.0252                 0.1077
 IR Inten    --      4.1083                84.0879                 7.5001

                      7                      8                      9
                      A                      A                      A
 Frequencies --    241.2104               275.3373               331.2534
 Red. masses --      6.8118                 3.4695                 5.1303
 Frc consts  --      0.2335                 0.1550                 0.3317
 IR Inten    --      7.6396                18.8262                 5.2874

                     10                     11                     12
                      A                      A                      A
 Frequencies --    346.3996               350.1943               387.6622
 Red. masses --      3.3804                 1.3893                 3.2086
 Frc consts  --      0.2390                 0.1004                 0.2841
 IR Inten    --     23.5453                75.6646                 4.9987

                     13                     14                     15
                      A                      A                      A
 Frequencies --    391.8131               410.3228               474.7772
 Red. masses --      4.4343                 5.3576                 8.0251
 Frc consts  --      0.4011                 0.5315                 1.0658
 IR Inten    --      7.4778                 7.3773                 0.5431

                     16                     17                     18
                      A                      A                      A
 Frequencies --    545.6700               577.3178               584.3930
 Red. masses --      2.1545                 1.6356                 3.5481
 Frc consts  --      0.3780                 0.3212                 0.7139
 IR Inten    --     38.2989                74.9012                28.6336

                     19                     20                     21
                      A                      A                      A
 Frequencies --    593.2668               650.9805               671.6077
 Red. masses --      4.5652                 5.2593                 9.2088
 Frc consts  --      0.9467                 1.3131                 2.4473
 IR Inten    --     15.7556                13.0972                 2.7462

                     22                     23                     24
                      A                      A                      A
 Frequencies --    693.6314               747.1537               809.9094
 Red. masses --      4.7949                 5.2355                 1.4563
 Frc consts  --      1.3592                 1.7220                 0.5628
 IR Inten    --      1.5934                66.8106                31.1564

                     25                     26                     27
                      A                      A                      A
 Frequencies --    911.8385              1024.0747              1027.6350
 Red. masses --      2.4400                 2.7754                 2.3432
 Frc consts  --      1.1953                 1.7149                 1.4579
 IR Inten    --      1.5416                23.0308                17.7416

                     28                     29                     30
                      A                      A                      A
 Frequencies --   1066.8419              1098.7551              1147.0299
 Red. masses --      1.5202                 2.0309                 3.8607
 Frc consts  --      1.0194                 1.4445                 2.9927
 IR Inten    --      0.9934                12.2517                26.5844

                     31                     32                     33
                      A                      A                      A
 Frequencies --   1207.2440              1229.5585              1237.9640
 Red. masses --      1.3852                 2.2207                 1.7641
 Frc consts  --      1.1894                 1.9781                 1.5929
 IR Inten    --     44.0954               446.7748                30.0362

                     34                     35                     36
                      A                      A                      A
 Frequencies --   1266.3273              1355.3647              1373.9323
 Red. masses --      2.0062                 2.8914                 2.8864
 Frc consts  --      1.8954                 3.1295                 3.2102
 IR Inten    --     63.1553                18.8522               267.4222

                     37                     38                     39
                      A                      A                      A
 Frequencies --   1439.1538              1450.4014              1466.6120
 Red. masses --      1.6708                 1.7339                 1.3460
 Frc consts  --      2.0388                 2.1491                 1.7057
 IR Inten    --     22.9668                18.1092                36.9677

                     40                     41                     42
                      A                      A                      A
 Frequencies --   1497.8137              1510.4719              1527.6434
 Red. masses --      1.3941                 1.6405                 1.4563
 Frc consts  --      1.8427                 2.2053                 2.0023
 IR Inten    --     28.0103                77.3760               135.2590

                     43                     44                     45
                      A                      A                      A
 Frequencies --   1548.6113              1668.4368              1670.0365
 Red. masses --      3.5403                 6.5737                 5.9103
 Frc consts  --      5.0023                10.7815                 9.7120
 IR Inten    --     64.6277               296.2648                35.0539

                     46                     47                     48
                      A                      A                      A
 Frequencies --   1766.0409              2997.8338              3064.1365
 Red. masses --      8.4250                 1.0846                 1.0394
 Frc consts  --     15.4817                 5.7431                 5.7496
 IR Inten    --    239.8648                82.9206                22.3158

                     49                     50                     51
                      A                      A                      A
 Frequencies --   3122.5424              3161.5867              3199.4809
 Red. masses --      1.1021                 1.0965                 1.0915
 Frc consts  --      6.3311                 6.4579                 6.5833
 IR Inten    --     19.9949                 3.4865                 5.8241

                     52                     53                     54
                      A                      A                      A
 Frequencies --   3664.0475              3756.6236              3771.0772
 Red. masses --      1.0643                 1.0661                 1.0663
 Frc consts  --      8.4186                 8.8645                 8.9344
 IR Inten    --    111.9798                56.1217                52.0163

 - Thermochemistry -
 -------------------
 Temperature   298.150 Kelvin.  Pressure   1.00000 Atm.
 Atom     1 has atomic number  6 and mass  12.00000

 Molecular mass:   168.04226 amu.
 Principal axes and moments of inertia in atomic units:
                           1         2         3
     Eigenvalues --  1338.610712161.246633485.46921
           X            0.99999   0.00472   0.00233
           Y           -0.00473   0.99999   0.00188
           Z           -0.00232  -0.00189   1.00000
 This molecule is an asymmetric top.
 Rotational symmetry number  1.
 Warning -- assumption of classical behavior for rotation
           may cause significant error
 Rotational temperatures (Kelvin)      0.06470     0.04008     0.02485
 Rotational constants (GHZ):           1.34822     0.83505     0.51779
 Zero-point vibrational energy     396015.0 (Joules/Mol)
                                   94.64987 (Kcal/Mol)
 Warning -- explicit consideration of  19 degrees of freedom as
           vibrations may cause significant error
 Vibrational temperatures:    110.83   187.69   196.34   243.79   259.91
          (Kelvin)            291.34   347.05   396.15   476.60   498.39
                              503.85   557.76   563.73   590.36   683.10
                              785.10   830.63   840.81   853.58   936.62
                              966.29   997.98  1074.99  1165.28  1311.93
                             1473.42  1478.54  1534.95  1580.86  1650.32
                             1736.95  1769.06  1781.15  1821.96  1950.07
                             1976.78  2070.62  2086.80  2110.13  2155.02
                             2173.23  2197.94  2228.11  2400.51  2402.81
                             2540.94  4313.21  4408.61  4492.64  4548.82
                             4603.34  5271.75  5404.94  5425.74

 Zero-point correction=                           0.150834 (Hartree/Particle)
 Thermal correction to Energy=                    0.162345
 Thermal correction to Enthalpy=                  0.163289
 Thermal correction to Gibbs Free Energy=         0.114145
 Sum of electronic and zero-point Energies=           -610.425047
 Sum of electronic and thermal Energies=              -610.413537
 Sum of electronic and thermal Enthalpies=            -610.412593
 Sum of electronic and thermal Free Energies=         -610.461737

                     E (Thermal)             CV                S
                      KCal/Mol        Cal/Mol-Kelvin    Cal/Mol-Kelvin
 Total                  101.873             43.366            103.432
 Electronic               0.000              0.000              0.000
 Translational            0.889              2.981             41.265
 Rotational               0.889              2.981             30.690
 Vibrational            100.095             37.405             31.477
 Vibration     1          0.599              1.964              3.965
 Vibration     2          0.612              1.923              2.939
 Vibration     3          0.614              1.917              2.853
 Vibration     4          0.625              1.880              2.442
 Vibration     5          0.630              1.866              2.322
 Vibration     6          0.639              1.836              2.110
 Vibration     7          0.658              1.777              1.794
 Vibration     8          0.677              1.719              1.562
 Vibration     9          0.714              1.613              1.254
 Vibration    10          0.724              1.583              1.183
 Vibration    11          0.727              1.575              1.165
 Vibration    12          0.756              1.497              1.009
 Vibration    13          0.759              1.488              0.993
 Vibration    14          0.774              1.448              0.925
 Vibration    15          0.831              1.306              0.724
 Vibration    16          0.901              1.149              0.553
 Vibration    17          0.934              1.080              0.490
 Vibration    18          0.941              1.065              0.477
 Vibration    19          0.951              1.046              0.461

 Optimization completed.
    -- Stationary point found.
 Normal termination of Gaussian 16 at Wed Dec  9 17:35:50 2020.

 ----------------------------------------------------------------------
 # B3LYP/6-311++G(d,p) empiricaldispersion=gd3bj scf=xqc pop=npa geom=c
 heck
 ----------------------------------------------------------------------

 --------------------------------------
 CID_54493317_JID_2753_Energie_neutraal
 --------------------------------------
 Structure from the checkpoint file:  "JID_2753.chk"
 Charge =  0 Multiplicity = 1

 SCF Done:  E(RB3LYP) =  -610.772879194     A.U. after   15 cycles
 Normal termination of Gaussian 16 at Wed Dec  9 17:38:17 2020.

 ----------------------------------------------------------------------
 # B3LYP/6-311++G(d,p) empiricaldispersion=gd3bj scf=xqc pop=npa geom=c
 heck
 ----------------------------------------------------------------------

 ------------------------------------
 CID_54493317_JID_2753_Energie_kation
 ------------------------------------
 Structure from the checkpoint file:  "JID_2753.chk"
 Charge =  1 Multiplicity = 2

 SCF Done:  E(UB3LYP) =  -610.470825341     A.U. after   27 cycles
 Normal termination of Gaussian 16 at Wed Dec  9 17:44:22 2020.
 Gaussian 16:  ES64L-G16RevA.03 25-Dec-2016

 ----------------------------------------------------------------------
 # B3LYP/6-311++G(d,p) empiricaldispersion=gd3bj scf=xqc pop=npa geom=c
 heck
 ----------------------------------------------------------------------

 -----------------------------------
 CID_54493317_JID_2753_Energie_anion
 -----------------------------------
 Structure from the checkpoint file:  "JID_2753.chk"
 Charge = -1 Multiplicity = 2

                         Standard orientation:
 ---------------------------------------------------------------------
 Center     Atomic      Atomic             Coordinates (Angstroms)
 Number     Number       Type             X           Y           Z
 ---------------------------------------------------------------------
      1          6           0        0.689596   -2.366051    0.073230
      2          6           0        0.169408   -0.950899    0.027913
      3          6           0        1.043011    0.173391    0.009270
      4          6           0        0.488359    1.473692    0.012910
      5          6           0       -0.889830    1.678711    0.011468
      6          6           0       -1.734876    0.576282   -0.002165
      7          6           0       -1.201033   -0.726210    0.004023
      8          8           0       -2.169167   -1.723589    0.027029
      9          8           0       -3.074869    0.751241   -0.024518
     10          8           0        1.348074    2.535353    0.010712
     11          6           0        2.505635    0.039187   -0.011850
     12          8           0        3.126618   -1.014098   -0.073709
     13          1           0        1.473741   -2.469573    0.824317
     14          1           0        1.149829   -2.656089   -0.877343
     15          1           0       -0.111944   -3.071754    0.312741
     16          1           0       -1.318599    2.676664    0.004978
     17          1           0       -1.875852   -2.471309   -0.513869
     18          1           0       -3.467352   -0.141713   -0.055006
     19          1           0        0.831143    3.355378    0.011856
     20          1           0        3.052165    0.998524    0.027421
 ---------------------------------------------------------------------

 SCF Done:  E(UB3LYP) =  -610.775599363     A.U. after   33 cycles
 SCF Done:  E(UB3LYP) =  -610.775599363     a.u. after    1 cycles

 The electronic state is 2-A.
 Alpha  occ. eigenvalues --  -19.03608 -19.02693 -19.02468 -18.92749 -10.10390
 Alpha  occ. eigenvalues --  -10.09125 -10.08622 -10.06832 -10.04093 -10.03742
 Alpha  occ. eigenvalues --  -10.02868 -10.02442  -0.95099  -0.94697  -0.92003
 Alpha  occ. eigenvalues --   -0.86302  -0.71530  -0.63838  -0.60974  -0.56616
 Alpha  occ. eigenvalues --   -0.50400  -0.49306  -0.45033  -0.42578  -0.40792
 Alpha  occ. eigenvalues --   -0.37169  -0.35737  -0.32126  -0.30633  -0.30319
 Alpha  occ. eigenvalues --   -0.28429  -0.28114  -0.27674  -0.26683  -0.26318
 Alpha  occ. eigenvalues --   -0.24646  -0.23642  -0.23091  -0.22429  -0.21328
 Alpha  occ. eigenvalues --   -0.16950  -0.10629  -0.08432  -0.08047   0.05021
 Alpha virt. eigenvalues --    0.07417   0.07965   0.10201   0.11596   0.11825
 Alpha virt. eigenvalues --    0.12581   0.12994   0.13767   0.15233   0.15916
 Alpha virt. eigenvalues --    0.16862   0.17168   0.17894   0.18508   0.19376

  Beta  occ. eigenvalues --  -19.03598 -19.02656 -19.02377 -18.92300 -10.10304
  Beta  occ. eigenvalues --  -10.08822 -10.08724 -10.06599 -10.03805 -10.03782
  Beta  occ. eigenvalues --  -10.02870 -10.02440  -0.94928  -0.94645  -0.91877
  Beta  occ. eigenvalues --   -0.85494  -0.71263  -0.63513  -0.60681  -0.56519
  Beta  occ. eigenvalues --   -0.49972  -0.49096  -0.44785  -0.42304  -0.40545
  Beta  occ. eigenvalues --   -0.37076  -0.35574  -0.31830  -0.30321  -0.30125
  Beta  occ. eigenvalues --   -0.28247  -0.27959  -0.27210  -0.26325  -0.25978
  Beta  occ. eigenvalues --   -0.24494  -0.23475  -0.22981  -0.21188  -0.20557
  Beta  occ. eigenvalues --   -0.16298  -0.09751  -0.08054  -0.07234
  Beta virt. eigenvalues --    0.07885   0.08320   0.10390   0.10750   0.11611
  Beta virt. eigenvalues --    0.12134   0.12692   0.13517   0.13931   0.15281
  Beta virt. eigenvalues --    0.16078   0.16951   0.17253   0.17880   0.18847

 Mulliken charges and spin densities:
               1          2
     1  C    0.587553  -1.122154
     2  C   -0.506222   1.853278
     3  C   -0.453679   1.009470
     4  C   -1.193461   0.282402
     5  C    0.853329  -0.301112
     6  C    0.987545  -1.117857
     7  C   -0.164454  -0.943983
     8  O   -0.359927  -0.008210
     9  O   -0.290132   0.025741
    10  O   -0.226896   0.005796
    11  C   -0.205464   0.064907
    12  O   -0.370148   0.140507
    13  H    0.177283   0.006829
    14  H    0.125799   0.058115
    15  H   -0.189629   0.259797
    16  H    0.107222   0.002741
    17  H   -0.374827   0.665758
    18  H    0.156014   0.126809
    19  H    0.241494   0.001837
    20  H    0.098600  -0.010671
 Sum of Mulliken charges =  -1.00000   1.00000

 Dipole moment (field-independent basis, Debye):
    X=             -2.0242    Y=              4.5662    Z=              0.3568  Tot=              5.0075
 Quadrupole moment (field-independent basis, Debye-Ang):
   XX=           -117.7596   YY=            -87.6431   ZZ=            -80.1156
   XY=              0.6359   XZ=             -0.5166   YZ=             -1.1081

 Summary of Natural Population Analysis:

                                       Natural Population
                Natural  -----------------------------------------------
    Atom  No    Charge         Core      Valence    Rydberg      Total
 -----------------------------------------------------------------------
      C    1   -0.30220      0.99964     2.29531    0.00724     3.30220
      C    2    0.04656      0.99947     1.94542    0.00856     2.95344
      C    3   -0.11219      0.99944     2.10253    0.01022     3.11219
      C    4    0.19228      0.99938     1.79648    0.01185     2.80772
      C    5   -0.19297      0.99950     2.18383    0.00964     3.19297
      C    6    0.20647      0.99938     1.77914    0.01501     2.79353
      C    7    0.08308      0.99928     1.90534    0.01230     2.91692
      O    8   -0.37276      0.99987     3.36485    0.00804     4.37276
      O    9   -0.34043      0.99988     3.33440    0.00615     4.34043
      O   10   -0.34247      0.99987     3.33653    0.00607     4.34247
      C   11    0.22545      0.99968     1.75472    0.02015     2.77455
      O   12   -0.26424      0.99989     3.25738    0.00698     4.26424
      H   13    0.11937      0.00000     0.37955    0.00108     0.38063
      H   14    0.11058      0.00000     0.38846    0.00096     0.38942
      H   15    0.08922      0.00000     0.40961    0.00117     0.41078
      H   16    0.09403      0.00000     0.40446    0.00150     0.40597
      H   17    0.24338      0.00000     0.24547    0.01116     0.25662
      H   18    0.24259      0.00000     0.25424    0.00317     0.25741
      H   19    0.22713      0.00000     0.27046    0.00240     0.27287
      H   20    0.04712      0.00000     0.45064    0.00224     0.45288
 =======================================================================
   * Total *    0.00000     11.99528    31.85882    0.14590    44.00000

 Normal termination of Gaussian 16 at Wed Dec  9 17:50:40 2020.
