 Gaussian 16, Revision A.03,

 -----------------------------------------------------------
 # opt freq B3LYP/6-31G(d) empiricaldispersion=gd3bj scf=xqc
 -----------------------------------------------------------

 -------------------------------
 CID_147918794_JID_8697_neutraal
 -------------------------------
 Symbolic Z-matrix:
 Charge =  0 Multiplicity = 1

 SCF Done:  E(RB3LYP) =  -811.748331569     A.U. after   14 cycles
 SCF Done:  E(RB3LYP) =  -811.752360808     A.U. after   13 cycles
 SCF Done:  E(RB3LYP) =  -811.752279005     A.U. after   13 cycles
 SCF Done:  E(RB3LYP) =  -811.752957387     A.U. after   12 cycles
 SCF Done:  E(RB3LYP) =  -811.753997519     A.U. after   12 cycles
 SCF Done:  E(RB3LYP) =  -811.754614552     A.U. after   13 cycles
 SCF Done:  E(RB3LYP) =  -811.755035394     A.U. after   12 cycles
 SCF Done:  E(RB3LYP) =  -811.755030960     A.U. after   12 cycles
 SCF Done:  E(RB3LYP) =  -811.755233659     A.U. after   12 cycles
 SCF Done:  E(RB3LYP) =  -811.755365818     A.U. after   11 cycles
 SCF Done:  E(RB3LYP) =  -811.755402147     A.U. after    9 cycles
 SCF Done:  E(RB3LYP) =  -811.755402893     A.U. after    9 cycles
 SCF Done:  E(RB3LYP) =  -811.755403260     A.U. after    8 cycles
 SCF Done:  E(RB3LYP) =  -811.755403417     A.U. after    8 cycles
 SCF Done:  E(RB3LYP) =  -811.755403462     A.U. after    7 cycles
 Optimization completed.
    -- Stationary point found.
 Normal termination of Gaussian 16 at Fri Dec 11 21:48:35 2020.

 --------------------------------------------------------------------
 #N Geom=AllCheck Guess=TCheck SCRF=Check GenChk RB3LYP/6-31G(d) Freq
 --------------------------------------------------------------------

 Structure from the checkpoint file:  "JID_8697.chk"
 -------------------------------
 CID_147918794_JID_8697_neutraal
 -------------------------------
 Charge =  0 Multiplicity = 1

 SCF Done:  E(RB3LYP) =  -811.755403462     A.U. after    1 cycles

  Exact polarizability: 199.967   4.413 155.387   5.873  -6.411 129.059
 Approx polarizability: 270.685   7.397 210.081  18.071  -7.480 202.644

                      1                      2                      3
                      A                      A                      A
 Frequencies --     10.3896                26.5674                36.8956
 Red. masses --      3.9137                 3.6960                 3.6341
 Frc consts  --      0.0002                 0.0015                 0.0029
 IR Inten    --      0.0211                 0.2111                 0.0149

                      4                      5                      6
                      A                      A                      A
 Frequencies --     48.2789                59.7933                69.4582
 Red. masses --      5.1991                 4.0745                 3.3498
 Frc consts  --      0.0071                 0.0086                 0.0095
 IR Inten    --      2.7496                 0.6015                 0.2972

                      7                      8                      9
                      A                      A                      A
 Frequencies --     88.0837               131.2790               147.6982
 Red. masses --      3.7465                 3.8687                 1.6016
 Frc consts  --      0.0171                 0.0393                 0.0206
 IR Inten    --      0.3114                 0.9828                 0.4559

                     10                     11                     12
                      A                      A                      A
 Frequencies --    151.6433               170.4900               171.2266
 Red. masses --      1.6926                 2.1749                 2.2675
 Frc consts  --      0.0229                 0.0372                 0.0392
 IR Inten    --      0.2607                 2.0587                 0.7892

                     13                     14                     15
                      A                      A                      A
 Frequencies --    194.4804               220.3679               248.9486
 Red. masses --      2.9010                 2.8975                 1.8191
 Frc consts  --      0.0646                 0.0829                 0.0664
 IR Inten    --      2.1809                 2.8762                 1.8008

                     16                     17                     18
                      A                      A                      A
 Frequencies --    255.2396               283.9759               290.5057
 Red. masses --      1.2199                 2.5818                 2.0313
 Frc consts  --      0.0468                 0.1227                 0.1010
 IR Inten    --      0.1876                 0.2484                 1.4511

                     19                     20                     21
                      A                      A                      A
 Frequencies --    309.9986               331.7917               354.2953
 Red. masses --      2.1492                 3.1502                 2.8785
 Frc consts  --      0.1217                 0.2043                 0.2129
 IR Inten    --      0.0423                10.3490                 6.3688

                     22                     23                     24
                      A                      A                      A
 Frequencies --    380.1133               439.3489               456.8200
 Red. masses --      2.3095                 3.5752                 3.0428
 Frc consts  --      0.1966                 0.4066                 0.3741
 IR Inten    --      1.6989                 0.8288                 5.8902

                     25                     26                     27
                      A                      A                      A
 Frequencies --    473.9120               519.9435               523.8755
 Red. masses --      3.1620                 3.0930                 2.4296
 Frc consts  --      0.4184                 0.4927                 0.3929
 IR Inten    --      2.5111                 7.2443                14.5817

                     28                     29                     30
                      A                      A                      A
 Frequencies --    563.8271               584.2948               607.1183
 Red. masses --      4.1535                 6.2356                 3.0141
 Frc consts  --      0.7780                 1.2543                 0.6546
 IR Inten    --      1.7833                 0.0728                 0.0970

                     31                     32                     33
                      A                      A                      A
 Frequencies --    644.3450               740.7126               743.9262
 Red. masses --      3.3650                 2.8903                 1.8157
 Frc consts  --      0.8231                 0.9343                 0.5921
 IR Inten    --      3.0074                10.5707                39.7156

                     34                     35                     36
                      A                      A                      A
 Frequencies --    762.2650               806.5374               810.1139
 Red. masses --      1.3774                 1.5376                 2.2586
 Frc consts  --      0.4715                 0.5893                 0.8733
 IR Inten    --      6.0010                17.2755                12.1339

                     37                     38                     39
                      A                      A                      A
 Frequencies --    815.6165               831.5770               848.7013
 Red. masses --      1.8778                 2.4801                 2.4740
 Frc consts  --      0.7360                 1.0105                 1.0499
 IR Inten    --      3.6277                 1.1540                 3.6440

                     40                     41                     42
                      A                      A                      A
 Frequencies --    906.3490               916.2802               930.8739
 Red. masses --      2.9162                 2.4358                 2.6369
 Frc consts  --      1.4114                 1.2049                 1.3462
 IR Inten    --     18.1054                 4.7310                 7.0400

                     43                     44                     45
                      A                      A                      A
 Frequencies --    949.0358               971.0898              1001.1640
 Red. masses --      1.9542                 2.3966                 1.2734
 Frc consts  --      1.0370                 1.3316                 0.7520
 IR Inten    --      3.3035                 4.5279                 0.4725

                     46                     47                     48
                      A                      A                      A
 Frequencies --   1003.5903              1013.2628              1015.6196
 Red. masses --      2.0801                 1.2857                 2.1286
 Frc consts  --      1.2344                 0.7777                 1.2936
 IR Inten    --      9.9121                 2.3992                14.1664

                     49                     50                     51
                      A                      A                      A
 Frequencies --   1039.9836              1046.6503              1053.3434
 Red. masses --      3.9452                 3.0813                 2.7517
 Frc consts  --      2.5140                 1.9888                 1.7989
 IR Inten    --     13.5963                 1.5546                 0.7263

                     52                     53                     54
                      A                      A                      A
 Frequencies --   1079.2058              1097.9099              1099.4161
 Red. masses --      1.9954                 2.3721                 2.2708
 Frc consts  --      1.3692                 1.6847                 1.6172
 IR Inten    --     12.3280                30.1389                32.2562

                     55                     56                     57
                      A                      A                      A
 Frequencies --   1107.3230              1140.0414              1150.3275
 Red. masses --      2.4756                 2.0602                 1.5489
 Frc consts  --      1.7885                 1.5776                 1.2076
 IR Inten    --     12.9220                19.5387                 3.0568

                     58                     59                     60
                      A                      A                      A
 Frequencies --   1171.5232              1187.6205              1204.2645
 Red. masses --      3.0829                 1.2825                 1.1212
 Frc consts  --      2.4929                 1.0658                 0.9580
 IR Inten    --    119.5772                 1.6450                 1.8086

                     61                     62                     63
                      A                      A                      A
 Frequencies --   1209.7608              1217.0100              1220.6473
 Red. masses --      1.2342                 1.5533                 1.5161
 Frc consts  --      1.0643                 1.3555                 1.3309
 IR Inten    --      5.5738                24.2740                16.7409

                     64                     65                     66
                      A                      A                      A
 Frequencies --   1240.0937              1248.4075              1288.5511
 Red. masses --      1.0779                 1.6800                 2.2074
 Frc consts  --      0.9766                 1.5427                 2.1594
 IR Inten    --      4.1027               117.6496               169.0997

                     67                     68                     69
                      A                      A                      A
 Frequencies --   1306.4984              1312.1165              1329.3161
 Red. masses --      1.3927                 1.2912                 1.2856
 Frc consts  --      1.4006                 1.3097                 1.3385
 IR Inten    --      8.0772                19.4117                 3.1437

                     70                     71                     72
                      A                      A                      A
 Frequencies --   1341.4184              1347.6408              1364.6262
 Red. masses --      1.1962                 1.2738                 1.1292
 Frc consts  --      1.2681                 1.3630                 1.2389
 IR Inten    --     18.3034                 6.1618                 4.3195

                     73                     74                     75
                      A                      A                      A
 Frequencies --   1375.9856              1382.1574              1405.4399
 Red. masses --      1.3199                 1.3964                 1.5265
 Frc consts  --      1.4723                 1.5717                 1.7766
 IR Inten    --      0.4039                 1.9214                 6.3832

                     76                     77                     78
                      A                      A                      A
 Frequencies --   1412.2787              1418.3053              1419.8370
 Red. masses --      1.3070                 1.5588                 1.7411
 Frc consts  --      1.5359                 1.8475                 2.0680
 IR Inten    --      4.9157                 1.4439                 1.0393

                     79                     80                     81
                      A                      A                      A
 Frequencies --   1427.2010              1436.4359              1445.0853
 Red. masses --      1.2698                 1.2568                 1.3218
 Frc consts  --      1.5239                 1.5278                 1.6262
 IR Inten    --      0.6184                21.3545                11.2313

                     82                     83                     84
                      A                      A                      A
 Frequencies --   1462.1299              1489.8490              1510.8682
 Red. masses --      1.4687                 1.2027                 1.0853
 Frc consts  --      1.8499                 1.5729                 1.4597
 IR Inten    --      1.2189                 7.3595                11.2289

                     85                     86                     87
                      A                      A                      A
 Frequencies --   1512.1401              1514.9351              1517.3700
 Red. masses --      1.0483                 1.0585                 1.0742
 Frc consts  --      1.4122                 1.4313                 1.4573
 IR Inten    --      5.1452                 3.6437                 5.6835

                     88                     89                     90
                      A                      A                      A
 Frequencies --   1524.2200              1524.7076              1526.7184
 Red. masses --      1.0469                 1.0481                 1.0506
 Frc consts  --      1.4331                 1.4356                 1.4428
 IR Inten    --      5.4587                 3.1858                 0.4871

                     91                     92                     93
                      A                      A                      A
 Frequencies --   1528.8697              1540.0044              1548.6481
 Red. masses --      1.0640                 1.0784                 1.0860
 Frc consts  --      1.4653                 1.5068                 1.5345
 IR Inten    --      2.7087                 5.9760                 1.3503

                     94                     95                     96
                      A                      A                      A
 Frequencies --   1721.3013              1766.3559              1815.4792
 Red. masses --      6.8248                 6.8623                11.3990
 Frc consts  --     11.9139                12.6147                22.1360
 IR Inten    --      3.8842                 0.8286               158.8340

                     97                     98                     99
                      A                      A                      A
 Frequencies --   2986.1178              2992.2730              3011.4290
 Red. masses --      1.0818                 1.0814                 1.0705
 Frc consts  --      5.6835                 5.7046                 5.7198
 IR Inten    --     45.6305                38.6032                61.3361

                    100                    101                    102
                      A                      A                      A
 Frequencies --   3026.8555              3045.3280              3054.7166
 Red. masses --      1.0689                 1.0345                 1.0703
 Frc consts  --      5.7700                 5.6526                 5.8844
 IR Inten    --     28.9192                39.7014                21.7791

                    103                    104                    105
                      A                      A                      A
 Frequencies --   3056.8817              3065.4999              3074.0083
 Red. masses --      1.0378                 1.0730                 1.0632
 Frc consts  --      5.7139                 5.9408                 5.9195
 IR Inten    --     17.7475                26.6150                26.6214

                    106                    107                    108
                      A                      A                      A
 Frequencies --   3076.1588              3091.5254              3102.5928
 Red. masses --      1.0315                 1.0934                 1.0939
 Frc consts  --      5.7510                 6.1572                 6.2040
 IR Inten    --     21.0566                26.1397                41.3415

                    109                    110                    111
                      A                      A                      A
 Frequencies --   3111.2519              3114.2723              3119.5831
 Red. masses --      1.1027                 1.1007                 1.0976
 Frc consts  --      6.2892                 6.2899                 6.2935
 IR Inten    --     29.8012                34.7041                20.2526

                    112                    113                    114
                      A                      A                      A
 Frequencies --   3124.0607              3130.6382              3132.6799
 Red. masses --      1.1007                 1.1030                 1.1035
 Frc consts  --      6.3292                 6.3690                 6.3803
 IR Inten    --     38.6882                26.2306                45.4034

                    115                    116                    117
                      A                      A                      A
 Frequencies --   3147.9945              3151.7792              3153.6516
 Red. masses --      1.0838                 1.1068                 1.0868
 Frc consts  --      6.3281                 6.4777                 6.3684
 IR Inten    --     12.2091                19.3806                23.5347

                    118                    119                    120
                      A                      A                      A
 Frequencies --   3171.1854              3183.1323              3189.3209
 Red. masses --      1.0967                 1.1074                 1.0937
 Frc consts  --      6.4981                 6.6112                 6.5545
 IR Inten    --     46.2073                16.8441                17.5882

 - Thermochemistry -
 -------------------
 Temperature   298.150 Kelvin.  Pressure   1.00000 Atm.
 Atom     1 has atomic number  6 and mass  12.00000

 Molecular mass:   252.17254 amu.
 Principal axes and moments of inertia in atomic units:
                           1         2         3
     Eigenvalues --  3161.188747080.699908740.71369
           X            0.99993   0.01183  -0.00312
           Y           -0.01191   0.99955  -0.02767
           Z            0.00279   0.02771   0.99961
 This molecule is an asymmetric top.
 Rotational symmetry number  1.
 Warning -- assumption of classical behavior for rotation
           may cause significant error
 Rotational temperatures (Kelvin)      0.02740     0.01223     0.00991
 Rotational constants (GHZ):           0.57091     0.25488     0.20648
 Zero-point vibrational energy     976180.8 (Joules/Mol)
                                  233.31280 (Kcal/Mol)
 Warning -- explicit consideration of  30 degrees of freedom as
           vibrations may cause significant error
 Vibrational temperatures:     14.95    38.22    53.08    69.46    86.03
          (Kelvin)             99.93   126.73   188.88   212.50   218.18
                              245.30   246.36   279.81   317.06   358.18
                              367.23   408.58   417.97   446.02   477.37
                              509.75   546.90   632.13   657.26   681.85
                              748.08   753.74   811.22   840.67   873.51
                              927.07  1065.72  1070.34  1096.73  1160.43
                             1165.57  1173.49  1196.45  1221.09  1304.03
                             1318.32  1339.32  1365.45  1397.18  1440.45
                             1443.94  1457.86  1461.25  1496.30  1505.90
                             1515.53  1552.74  1579.65  1581.81  1593.19
                             1640.27  1655.06  1685.56  1708.72  1732.67
                             1740.58  1751.01  1756.24  1784.22  1796.18
                             1853.94  1879.76  1887.84  1912.59  1930.00
                             1938.95  1963.39  1979.74  1988.62  2022.11
                             2031.95  2040.62  2042.83  2053.42  2066.71
                             2079.16  2103.68  2143.56  2173.80  2175.63
                             2179.65  2183.16  2193.01  2193.71  2196.61
                             2199.70  2215.72  2228.16  2476.57  2541.39
                             2612.07  4296.36  4305.21  4332.77  4354.97
                             4381.55  4395.06  4398.17  4410.57  4422.81
                             4425.91  4448.02  4463.94  4476.40  4480.74
                             4488.38  4494.83  4504.29  4507.23  4529.26
                             4534.71  4537.40  4562.63  4579.82  4588.72

 Zero-point correction=                           0.371808 (Hartree/Particle)
 Thermal correction to Energy=                    0.391526
 Thermal correction to Enthalpy=                  0.392470
 Thermal correction to Gibbs Free Energy=         0.320890
 Sum of electronic and zero-point Energies=           -811.383596
 Sum of electronic and thermal Energies=              -811.363878
 Sum of electronic and thermal Enthalpies=            -811.362933
 Sum of electronic and thermal Free Energies=         -811.434513

                     E (Thermal)             CV                S
                      KCal/Mol        Cal/Mol-Kelvin    Cal/Mol-Kelvin
 Total                  245.686             72.792            150.652
 Electronic               0.000              0.000              0.000
 Translational            0.889              2.981             42.475
 Rotational               0.889              2.981             33.636
 Vibrational            243.909             66.830             74.541
 Vibration     1          0.593              1.987              7.935
 Vibration     2          0.593              1.984              6.071
 Vibration     3          0.594              1.982              5.419
 Vibration     4          0.595              1.978              4.887
 Vibration     5          0.597              1.973              4.464
 Vibration     6          0.598              1.969              4.169
 Vibration     7          0.601              1.958              3.702
 Vibration     8          0.612              1.922              2.927
 Vibration     9          0.617              1.905              2.702
 Vibration    10          0.619              1.901              2.652
 Vibration    11          0.626              1.879              2.430
 Vibration    12          0.626              1.878              2.422
 Vibration    13          0.635              1.848              2.185
 Vibration    14          0.647              1.810              1.956
 Vibration    15          0.662              1.765              1.738
 Vibration    16          0.666              1.754              1.694
 Vibration    17          0.682              1.703              1.510
 Vibration    18          0.686              1.691              1.471
 Vibration    19          0.699              1.655              1.362
 Vibration    20          0.714              1.612              1.251
 Vibration    21          0.730              1.566              1.147
 Vibration    22          0.750              1.513              1.039
 Vibration    23          0.799              1.384              0.829
 Vibration    24          0.815              1.346              0.775
 Vibration    25          0.831              1.308              0.727
 Vibration    26          0.875              1.206              0.610
 Vibration    27          0.879              1.197              0.601
 Vibration    28          0.920              1.110              0.516
 Vibration    29          0.941              1.065              0.477
 Vibration    30          0.966              1.017              0.438

                           ! Non-Optimized Parameters !
 Normal termination of Gaussian 16 at Fri Dec 11 22:11:22 2020.

 ----------------------------------------------------------------------
 # B3LYP/6-311++G(d,p) empiricaldispersion=gd3bj scf=xqc pop=npa geom=c
 heck
 ----------------------------------------------------------------------

 ---------------------------------------
 CID_147918794_JID_8697_Energie_neutraal
 ---------------------------------------
 Structure from the checkpoint file:  "JID_8697.chk"
 Charge =  0 Multiplicity = 1

 SCF Done:  E(RB3LYP) =  -811.987893796     A.U. after   15 cycles
 Normal termination of Gaussian 16 at Fri Dec 11 22:22:20 2020.

 ----------------------------------------------------------------------
 # B3LYP/6-311++G(d,p) empiricaldispersion=gd3bj scf=xqc pop=npa geom=c
 heck
 ----------------------------------------------------------------------

 -------------------------------------
 CID_147918794_JID_8697_Energie_kation
 -------------------------------------
 Structure from the checkpoint file:  "JID_8697.chk"
 Charge =  1 Multiplicity = 2

 SCF Done:  E(UB3LYP) =  -811.685456344     A.U. after   25 cycles
 Normal termination of Gaussian 16 at Fri Dec 11 22:48:04 2020.
 Gaussian 16:  ES64L-G16RevA.03 25-Dec-2016

 ----------------------------------------------------------------------
 # B3LYP/6-311++G(d,p) empiricaldispersion=gd3bj scf=xqc pop=npa geom=c
 heck
 ----------------------------------------------------------------------

 ------------------------------------
 CID_147918794_JID_8697_Energie_anion
 ------------------------------------
 Structure from the checkpoint file:  "JID_8697.chk"
 Charge = -1 Multiplicity = 2

                         Standard orientation:
 ---------------------------------------------------------------------
 Center     Atomic      Atomic             Coordinates (Angstroms)
 Number     Number       Type             X           Y           Z
 ---------------------------------------------------------------------
      1          6           0       -3.940837   -1.670653    1.422107
      2          6           0       -4.302645   -0.455388    0.570719
      3          8           0       -4.063102   -0.620290   -0.819028
      4          6           0       -2.716076   -0.819500   -1.228633
      5          6           0       -1.783297    0.383921   -1.000990
      6          6           0       -0.987557    0.377482    0.317031
      7          6           0       -0.037113   -0.831731    0.494687
      8          6           0        0.926289   -1.137533   -0.685001
      9          6           0        1.752220    0.058589   -1.088210
     10          6           0        3.062776    0.158860   -0.860464
     11          6           0        3.877176   -0.906024   -0.174047
     12          6           0        3.107108   -2.196507   -0.053692
     13          6           0        1.799727   -2.303595   -0.293961
     14          6           0        4.357165   -0.416792    1.211927
     15          6           0       -0.205863    1.660564    0.587420
     16          8           0        0.428608    1.859164    1.601305
     17          8           0       -0.297911    2.567566   -0.410980
     18          6           0        0.467936    3.765446   -0.209702
     19          1           0       -4.284325   -1.520132    2.451798
     20          1           0       -2.860938   -1.847883    1.459233
     21          1           0       -4.421904   -2.570109    1.023818
     22          1           0       -5.378763   -0.266087    0.640278
     23          1           0       -3.796468    0.444498    0.952357
     24          1           0       -2.300930   -1.732735   -0.778784
     25          1           0       -2.798244   -1.005584   -2.303448
     26          1           0       -1.078845    0.437797   -1.837691
     27          1           0       -2.389315    1.293086   -1.067504
     28          1           0       -1.686171    0.326228    1.160962
     29          1           0        0.558884   -0.655435    1.394474
     30          1           0       -0.636953   -1.730019    0.683481
     31          1           0        0.304736   -1.436894   -1.543872
     32          1           0        1.230589    0.874291   -1.582297
     33          1           0        3.597296    1.058691   -1.162639
     34          1           0        4.780689   -1.095535   -0.776680
     35          1           0        3.673231   -3.070453    0.265901
     36          1           0        1.299545   -3.262921   -0.167338
     37          1           0        4.964336   -1.182140    1.709338
     38          1           0        4.964757    0.490665    1.116803
     39          1           0        3.496829   -0.186736    1.848366
     40          1           0        0.141874    4.282134    0.696224
     41          1           0        1.529509    3.521077   -0.116277
     42          1           0        0.287753    4.379841   -1.092027
 ---------------------------------------------------------------------

 SCF Done:  E(UB3LYP) =  -811.975479436     A.U. after   33 cycles
 SCF Done:  E(UB3LYP) =  -811.975479436     a.u. after    1 cycles

 The electronic state is 2-A.
 Alpha  occ. eigenvalues --  -19.08321 -19.03639 -19.02172 -10.21204 -10.13445
 Alpha  occ. eigenvalues --  -10.13240 -10.12942 -10.10570 -10.09359 -10.09113
 Alpha  occ. eigenvalues --  -10.08672 -10.08435 -10.07928 -10.07778 -10.07681
 Alpha  occ. eigenvalues --  -10.07596 -10.07445 -10.07183  -1.02207  -0.94720
 Alpha  occ. eigenvalues --   -0.93259  -0.76245  -0.73228  -0.68838  -0.67699
 Alpha  occ. eigenvalues --   -0.65512  -0.64440  -0.63140  -0.59785  -0.56599
 Alpha  occ. eigenvalues --   -0.53788  -0.50704  -0.49488  -0.49041  -0.47077
 Alpha  occ. eigenvalues --   -0.43128  -0.42598  -0.41406  -0.40060  -0.39404
 Alpha  occ. eigenvalues --   -0.38842  -0.38193  -0.37049  -0.35526  -0.35202
 Alpha  occ. eigenvalues --   -0.34411  -0.34145  -0.33859  -0.32693  -0.32355
 Alpha  occ. eigenvalues --   -0.31052  -0.30384  -0.30135  -0.29285  -0.28804
 Alpha  occ. eigenvalues --   -0.28414  -0.27556  -0.27318  -0.26341  -0.25548
 Alpha  occ. eigenvalues --   -0.24866  -0.24371  -0.22457  -0.22071  -0.21536
 Alpha  occ. eigenvalues --   -0.19241  -0.17238  -0.17046  -0.15009   0.03920
 Alpha virt. eigenvalues --    0.05431   0.05889   0.06679   0.07300   0.07620
 Alpha virt. eigenvalues --    0.08002   0.08564   0.08702   0.08826   0.09394
 Alpha virt. eigenvalues --    0.09588   0.09976   0.10558   0.11053   0.11236

  Beta  occ. eigenvalues --  -19.08316 -19.03639 -19.02166 -10.21201 -10.13409
  Beta  occ. eigenvalues --  -10.13225 -10.12927 -10.10567 -10.09352 -10.09105
  Beta  occ. eigenvalues --  -10.08662 -10.08428 -10.07900 -10.07766 -10.07670
  Beta  occ. eigenvalues --  -10.07582 -10.07437 -10.07166  -1.02197  -0.94713
  Beta  occ. eigenvalues --   -0.93249  -0.76223  -0.73209  -0.68814  -0.67671
  Beta  occ. eigenvalues --   -0.65484  -0.64401  -0.63109  -0.59751  -0.56559
  Beta  occ. eigenvalues --   -0.53749  -0.50662  -0.49452  -0.48995  -0.47049
  Beta  occ. eigenvalues --   -0.43110  -0.42567  -0.41375  -0.40036  -0.39377
  Beta  occ. eigenvalues --   -0.38825  -0.38160  -0.37025  -0.35497  -0.35176
  Beta  occ. eigenvalues --   -0.34382  -0.34113  -0.33825  -0.32663  -0.32330
  Beta  occ. eigenvalues --   -0.31023  -0.30353  -0.30112  -0.29260  -0.28778
  Beta  occ. eigenvalues --   -0.28387  -0.27531  -0.27294  -0.26321  -0.25527
  Beta  occ. eigenvalues --   -0.24848  -0.24347  -0.22440  -0.22056  -0.21511
  Beta  occ. eigenvalues --   -0.19232  -0.17227  -0.17027  -0.14984
  Beta virt. eigenvalues --    0.05775   0.06162   0.06632   0.07149   0.07541
  Beta virt. eigenvalues --    0.08111   0.08170   0.08742   0.08955   0.09161
  Beta virt. eigenvalues --    0.09688   0.09911   0.10215   0.10886   0.11212

 Mulliken charges and spin densities:
               1          2
     1  C    0.571650  -1.029771
     2  C   -0.280888   0.027777
     3  O   -0.104693   0.021099
     4  C    0.227582  -0.840370
     5  C   -0.629509   0.188442
     6  C    1.050253  -0.044213
     7  C   -0.059923  -0.674920
     8  C    1.037137  -0.630862
     9  C    0.202173  -0.325026
    10  C   -0.875348   0.430046
    11  C    0.631083  -0.440538
    12  C   -0.312058  -0.244848
    13  C   -0.319305   0.374201
    14  C    0.179924  -0.850918
    15  C   -1.724541   0.583012
    16  O   -0.126726  -0.007130
    17  O    0.046797   0.017991
    18  C    0.652177  -0.864083
    19  H   -0.094340   0.227242
    20  H   -0.479401   0.652039
    21  H    0.027483   0.128765
    22  H   -0.274178   0.466499
    23  H   -0.007857   0.111454
    24  H    0.040954   0.119177
    25  H   -0.075168   0.264467
    26  H    0.039489   0.121774
    27  H    0.191760   0.059478
    28  H    0.232135   0.019182
    29  H    0.037511   0.174446
    30  H    0.733511  -0.605239
    31  H    0.054171   0.160160
    32  H    0.189124  -0.012460
    33  H   -0.440507   0.626544
    34  H   -0.227693   0.410686
    35  H   -0.093075   0.257499
    36  H   -0.483260   0.664644
    37  H   -0.073495   0.201652
    38  H   -0.051260   0.181916
    39  H    0.148642   0.000952
    40  H   -0.128992   0.289325
    41  H   -0.038422   0.236024
    42  H   -0.392918   0.553883
 Sum of Mulliken charges =  -1.00000   1.00000

 Dipole moment (field-independent basis, Debye):
    X=             -1.5689    Y=             -0.2777    Z=              0.4490  Tot=              1.6553
 Quadrupole moment (field-independent basis, Debye-Ang):
   XX=           -201.8049   YY=           -171.9500   ZZ=           -151.3319
   XY=             -4.5731   XZ=              3.5420   YZ=              2.2054

 Summary of Natural Population Analysis:

                                       Natural Population
                Natural  -----------------------------------------------
    Atom  No    Charge         Core      Valence    Rydberg      Total
 -----------------------------------------------------------------------
      C    1   -0.30428      0.99966     2.30000    0.00462     3.30428
      C    2   -0.01078      0.99959     1.99893    0.01225     3.01078
      O    3   -0.30157      0.99989     3.29203    0.00965     4.30157
      C    4   -0.01037      0.99956     1.99848    0.01232     3.01037
      C    5   -0.21266      0.99961     2.20398    0.00908     3.21266
      C    6   -0.15512      0.99953     2.14555    0.01004     3.15512
      C    7   -0.17821      0.99959     2.16950    0.00912     3.17821
      C    8   -0.14418      0.99956     2.13329    0.01133     3.14418
      C    9   -0.09767      0.99951     2.08737    0.01079     3.09767
      C   10   -0.07864      0.99951     2.06788    0.01125     3.07864
      C   11   -0.14430      0.99958     2.13404    0.01068     3.14430
      C   12   -0.08553      0.99951     2.07539    0.01062     3.08553
      C   13   -0.08514      0.99952     2.07414    0.01147     3.08514
      C   14   -0.27673      0.99964     2.27109    0.00600     3.27673
      C   15    0.41815      0.99965     1.55603    0.02617     2.58185
      O   16   -0.30687      0.99987     3.30165    0.00534     4.30687
      O   17   -0.27997      0.99986     3.27115    0.00896     4.27997
      C   18   -0.10544      0.99959     2.09659    0.00925     3.10544
      H   19    0.10301      0.00000     0.39586    0.00113     0.39699
      H   20    0.09733      0.00000     0.40136    0.00131     0.40267
      H   21    0.10126      0.00000     0.39768    0.00105     0.39874
      H   22    0.08900      0.00000     0.40974    0.00126     0.41100
      H   23    0.07573      0.00000     0.42290    0.00137     0.42427
      H   24    0.08019      0.00000     0.41809    0.00171     0.41981
      H   25    0.09216      0.00000     0.40659    0.00125     0.40784
      H   26    0.10572      0.00000     0.39271    0.00157     0.39428
      H   27    0.11072      0.00000     0.38789    0.00140     0.38928
      H   28    0.11382      0.00000     0.38414    0.00204     0.38618
      H   29    0.11118      0.00000     0.38741    0.00141     0.38882
      H   30    0.09881      0.00000     0.39977    0.00142     0.40119
      H   31    0.10332      0.00000     0.39472    0.00196     0.39668
      H   32    0.10121      0.00000     0.39672    0.00206     0.39879
      H   33    0.09883      0.00000     0.39985    0.00132     0.40117
      H   34    0.10267      0.00000     0.39533    0.00200     0.39733
      H   35    0.09754      0.00000     0.40142    0.00105     0.40246
      H   36    0.09872      0.00000     0.40012    0.00116     0.40128
      H   37    0.09672      0.00000     0.40238    0.00090     0.40328
      H   38    0.09907      0.00000     0.39996    0.00097     0.40093
      H   39    0.10234      0.00000     0.39667    0.00099     0.39766
      H   40    0.09181      0.00000     0.40713    0.00107     0.40819
      H   41    0.09485      0.00000     0.40372    0.00143     0.40515
      H   42    0.09329      0.00000     0.40539    0.00132     0.40671
 =======================================================================
   * Total *    0.00000     17.99324    50.78464    0.22212    69.00000

 Normal termination of Gaussian 16 at Fri Dec 11 23:21:44 2020.
