 Gaussian 16, Revision A.03,

 -----------------------------------------------------------
 # opt freq B3LYP/6-31G(d) empiricaldispersion=gd3bj scf=xqc
 -----------------------------------------------------------

 -------------------------------
 CID_106946858_JID_5995_neutraal
 -------------------------------
 Symbolic Z-matrix:
 Charge =  0 Multiplicity = 1

 SCF Done:  E(RB3LYP) =  -728.544961867     A.U. after   15 cycles
 SCF Done:  E(RB3LYP) =  -728.548305903     A.U. after   12 cycles
 SCF Done:  E(RB3LYP) =  -728.547897844     A.U. after   12 cycles
 SCF Done:  E(RB3LYP) =  -728.548706775     A.U. after   11 cycles
 SCF Done:  E(RB3LYP) =  -728.548817195     A.U. after   10 cycles
 SCF Done:  E(RB3LYP) =  -728.548794819     A.U. after   11 cycles
 SCF Done:  E(RB3LYP) =  -728.548835968     A.U. after   11 cycles
 SCF Done:  E(RB3LYP) =  -728.548854791     A.U. after   11 cycles
 SCF Done:  E(RB3LYP) =  -728.548857998     A.U. after   10 cycles
 SCF Done:  E(RB3LYP) =  -728.548859505     A.U. after    9 cycles
 SCF Done:  E(RB3LYP) =  -728.548859761     A.U. after    8 cycles
 SCF Done:  E(RB3LYP) =  -728.548859816     A.U. after    7 cycles
 Optimization completed.
    -- Stationary point found.
 Normal termination of Gaussian 16 at Thu Dec 10 17:40:50 2020.

 --------------------------------------------------------------------
 #N Geom=AllCheck Guess=TCheck SCRF=Check GenChk RB3LYP/6-31G(d) Freq
 --------------------------------------------------------------------

 Structure from the checkpoint file:  "JID_5995.chk"
 -------------------------------
 CID_106946858_JID_5995_neutraal
 -------------------------------
 Charge =  0 Multiplicity = 1

 SCF Done:  E(RB3LYP) =  -728.548859816     A.U. after    1 cycles

  Exact polarizability: 157.273 -17.414 130.493 -12.601 -13.995  92.928
 Approx polarizability: 222.593 -38.473 210.357 -23.243 -39.198 149.098

                      1                      2                      3
                      A                      A                      A
 Frequencies --     23.7731                39.9300                73.2607
 Red. masses --      4.2427                 5.7628                 3.7447
 Frc consts  --      0.0014                 0.0054                 0.0118
 IR Inten    --      0.1905                 3.1155                 1.7890

                      4                      5                      6
                      A                      A                      A
 Frequencies --     76.3356                94.5055               110.3792
 Red. masses --      6.6229                 4.0304                 4.6156
 Frc consts  --      0.0227                 0.0212                 0.0331
 IR Inten    --      0.1162                 1.8699                 1.7786

                      7                      8                      9
                      A                      A                      A
 Frequencies --    137.8549               188.0446               220.5160
 Red. masses --      5.2222                 3.7998                 2.3269
 Frc consts  --      0.0585                 0.0792                 0.0667
 IR Inten    --      1.4470                 0.7645                 4.8296

                     10                     11                     12
                      A                      A                      A
 Frequencies --    230.8308               243.3801               258.5495
 Red. masses --      1.3115                 2.4216                 2.0453
 Frc consts  --      0.0412                 0.0845                 0.0806
 IR Inten    --      0.3776                 1.0463                 3.0953

                     13                     14                     15
                      A                      A                      A
 Frequencies --    291.7227               344.5973               374.4842
 Red. masses --      1.9301                 7.2642                 2.2377
 Frc consts  --      0.0968                 0.5082                 0.1849
 IR Inten    --      0.2021                 0.6934                 0.5636

                     16                     17                     18
                      A                      A                      A
 Frequencies --    404.5403               425.2867               463.1732
 Red. masses --      2.7856                 2.1893                 2.6683
 Frc consts  --      0.2686                 0.2333                 0.3373
 IR Inten    --      2.3624                 0.3585                 2.0051

                     19                     20                     21
                      A                      A                      A
 Frequencies --    488.2224               554.5149               564.3187
 Red. masses --      8.6943                 1.4992                 5.9698
 Frc consts  --      1.2210                 0.2716                 1.1201
 IR Inten    --     14.4381                50.6293                22.5303

                     22                     23                     24
                      A                      A                      A
 Frequencies --    597.9929               640.8725               651.1664
 Red. masses --      3.6729                 2.6662                 4.4720
 Frc consts  --      0.7738                 0.6452                 1.1172
 IR Inten    --      2.7536                31.0708                34.4025

                     25                     26                     27
                      A                      A                      A
 Frequencies --    706.6521               756.1371               764.5376
 Red. masses --      4.2103                 2.5781                 5.3334
 Frc consts  --      1.2387                 0.8685                 1.8368
 IR Inten    --     49.7289                 1.0546                38.2826

                     28                     29                     30
                      A                      A                      A
 Frequencies --    789.9533               840.1859               877.7398
 Red. masses --      2.9108                 1.3528                 2.1267
 Frc consts  --      1.0702                 0.5626                 0.9654
 IR Inten    --      6.1645                25.8274                22.1561

                     31                     32                     33
                      A                      A                      A
 Frequencies --    913.9083               923.6895               944.3125
 Red. masses --      1.4009                 2.1213                 1.1787
 Frc consts  --      0.6894                 1.0664                 0.6193
 IR Inten    --      0.5460                 0.0974                 1.8843

                     34                     35                     36
                      A                      A                      A
 Frequencies --    956.4915               976.8156               978.7509
 Red. masses --      3.5063                 2.3620                 2.1081
 Frc consts  --      1.8900                 1.3279                 1.1898
 IR Inten    --     26.4676                 0.5168                 1.4971

                     37                     38                     39
                      A                      A                      A
 Frequencies --   1003.2805              1024.5986              1049.9034
 Red. masses --      2.0329                 2.1757                 1.2983
 Frc consts  --      1.2056                 1.3457                 0.8432
 IR Inten    --      2.8213                 4.9139                32.1006

                     40                     41                     42
                      A                      A                      A
 Frequencies --   1079.2031              1148.7174              1151.4799
 Red. masses --      2.5256                 1.7176                 2.0266
 Frc consts  --      1.7331                 1.3354                 1.5832
 IR Inten    --     38.7689                 7.6601                 3.1469

                     43                     44                     45
                      A                      A                      A
 Frequencies --   1156.0029              1204.0102              1212.6734
 Red. masses --      3.9563                 1.6844                 1.6472
 Frc consts  --      3.1150                 1.4386                 1.4272
 IR Inten    --    297.3358                38.5678               172.3839

                     46                     47                     48
                      A                      A                      A
 Frequencies --   1245.9142              1270.4564              1277.0823
 Red. masses --      1.6522                 2.3341                 1.7507
 Frc consts  --      1.5111                 2.2196                 1.6823
 IR Inten    --     48.9916                37.2347                16.0461

                     49                     50                     51
                      A                      A                      A
 Frequencies --   1311.4201              1354.1900              1369.2145
 Red. masses --      2.6719                 1.2456                 1.5697
 Frc consts  --      2.7074                 1.3458                 1.7338
 IR Inten    --     50.9104                 2.8509                23.6302

                     52                     53                     54
                      A                      A                      A
 Frequencies --   1390.6245              1393.1441              1411.6669
 Red. masses --      1.3472                 2.9947                 1.4800
 Frc consts  --      1.5350                 3.4245                 1.7378
 IR Inten    --      8.3893               133.1477                 1.9727

                     55                     56                     57
                      A                      A                      A
 Frequencies --   1421.5141              1431.9596              1452.6060
 Red. masses --      4.3449                 1.2672                 1.2305
 Frc consts  --      5.1729                 1.5309                 1.5297
 IR Inten    --     70.0903                 2.2236                 5.3084

                     58                     59                     60
                      A                      A                      A
 Frequencies --   1507.8078              1515.3765              1523.2151
 Red. masses --      1.0868                 1.1068                 1.0542
 Frc consts  --      1.4558                 1.4974                 1.4411
 IR Inten    --      2.8654                 9.2008                 3.3187

                     61                     62                     63
                      A                      A                      A
 Frequencies --   1527.1484              1536.5938              1547.5874
 Red. masses --      1.0591                 1.0609                 1.0505
 Frc consts  --      1.4553                 1.4759                 1.4824
 IR Inten    --      4.9224                 2.8149                12.8486

                     64                     65                     66
                      A                      A                      A
 Frequencies --   1555.5902              1617.0545              1768.8018
 Red. masses --      7.4393                 6.3587                11.3870
 Frc consts  --     10.6065                 9.7965                20.9903
 IR Inten    --      2.4688                86.6247               173.4068

                     67                     68                     69
                      A                      A                      A
 Frequencies --   1832.5208              3010.4028              3036.4633
 Red. masses --     10.0591                 1.0821                 1.0453
 Frc consts  --     19.9024                 5.7780                 5.6783
 IR Inten    --    293.7421                17.8186                 9.4742

                     70                     71                     72
                      A                      A                      A
 Frequencies --   3039.1876              3046.3148              3077.3879
 Red. masses --      1.0483                 1.0448                 1.0786
 Frc consts  --      5.7049                 5.7123                 6.0183
 IR Inten    --     33.7888                58.4723                 8.6529

                     73                     74                     75
                      A                      A                      A
 Frequencies --   3084.3705              3099.7142              3105.8373
 Red. masses --      1.0856                 1.1006                 1.1006
 Frc consts  --      6.0850                 6.2303                 6.2550
 IR Inten    --     17.0876                 4.4246                67.1516

                     76                     77                     78
                      A                      A                      A
 Frequencies --   3113.4575              3137.1824              3148.9158
 Red. masses --      1.1024                 1.1021                 1.0971
 Frc consts  --      6.2961                 6.3905                 6.4092
 IR Inten    --     38.2210                13.6394                15.7078

                     79                     80                     81
                      A                      A                      A
 Frequencies --   3286.0882              3297.8913              3701.8731
 Red. masses --      1.0936                 1.1015                 1.0642
 Frc consts  --      6.9578                 7.0582                 8.5925
 IR Inten    --      0.0239                 0.6435                99.9140

 - Thermochemistry -
 -------------------
 Temperature   298.150 Kelvin.  Pressure   1.00000 Atm.
 Atom     1 has atomic number  6 and mass  12.00000

 Molecular mass:   210.08921 amu.
 Principal axes and moments of inertia in atomic units:
                           1         2         3
     Eigenvalues --  2177.877294482.610855829.82807
           X            0.99900   0.04478  -0.00013
           Y           -0.04478   0.99896   0.00857
           Z            0.00051  -0.00856   0.99996
 This molecule is an asymmetric top.
 Rotational symmetry number  1.
 Warning -- assumption of classical behavior for rotation
           may cause significant error
 Rotational temperatures (Kelvin)      0.03977     0.01932     0.01486
 Rotational constants (GHZ):           0.82867     0.40261     0.30957
 Zero-point vibrational energy     624473.8 (Joules/Mol)
                                  149.25283 (Kcal/Mol)
 Warning -- explicit consideration of  22 degrees of freedom as
           vibrations may cause significant error
 Vibrational temperatures:     34.20    57.45   105.41   109.83   135.97
          (Kelvin)            158.81   198.34   270.55   317.27   332.11
                              350.17   372.00   419.72   495.80   538.80
                              582.04   611.89   666.40   702.44   797.82
                              811.93   860.38   922.07   936.88  1016.71
                             1087.91  1100.00  1136.57  1208.84  1262.87
                             1314.91  1328.98  1358.66  1376.18  1405.42
                             1408.20  1443.50  1474.17  1510.58  1552.73
                             1652.75  1656.72  1663.23  1732.30  1744.77
                             1792.59  1827.90  1837.44  1886.84  1948.38
                             1969.99  2000.80  2004.42  2031.07  2045.24
                             2060.27  2089.98  2169.40  2180.29  2191.57
                             2197.23  2210.82  2226.63  2238.15  2326.58
                             2544.91  2636.59  4331.30  4368.79  4372.71
                             4382.97  4427.67  4437.72  4459.80  4468.61
                             4479.57  4513.71  4530.59  4727.95  4744.93
                             5326.17

 Zero-point correction=                           0.237850 (Hartree/Particle)
 Thermal correction to Energy=                    0.252861
 Thermal correction to Enthalpy=                  0.253805
 Thermal correction to Gibbs Free Energy=         0.194277
 Sum of electronic and zero-point Energies=           -728.311010
 Sum of electronic and thermal Energies=              -728.295999
 Sum of electronic and thermal Enthalpies=            -728.295055
 Sum of electronic and thermal Free Energies=         -728.354583

                     E (Thermal)             CV                S
                      KCal/Mol        Cal/Mol-Kelvin    Cal/Mol-Kelvin
 Total                  158.672             55.263            125.286
 Electronic               0.000              0.000              0.000
 Translational            0.889              2.981             41.931
 Rotational               0.889              2.981             32.409
 Vibrational            156.895             49.302             50.946
 Vibration     1          0.593              1.985              6.291
 Vibration     2          0.594              1.981              5.263
 Vibration     3          0.599              1.967              4.064
 Vibration     4          0.599              1.965              3.983
 Vibration     5          0.603              1.953              3.565
 Vibration     6          0.606              1.941              3.262
 Vibration     7          0.614              1.916              2.833
 Vibration     8          0.633              1.856              2.247
 Vibration     9          0.647              1.810              1.955
 Vibration    10          0.653              1.794              1.872
 Vibration    11          0.659              1.774              1.778
 Vibration    12          0.667              1.748              1.672
 Vibration    13          0.687              1.689              1.464
 Vibration    14          0.723              1.586              1.191
 Vibration    15          0.746              1.524              1.061
 Vibration    16          0.770              1.460              0.946
 Vibration    17          0.787              1.415              0.874
 Vibration    18          0.821              1.332              0.757
 Vibration    19          0.844              1.276              0.688
 Vibration    20          0.910              1.130              0.535
 Vibration    21          0.920              1.108              0.515
 Vibration    22          0.956              1.036              0.453

                           ! Non-Optimized Parameters !
 Normal termination of Gaussian 16 at Thu Dec 10 17:49:55 2020.

 ----------------------------------------------------------------------
 # B3LYP/6-311++G(d,p) empiricaldispersion=gd3bj scf=xqc pop=npa geom=c
 heck
 ----------------------------------------------------------------------

 ---------------------------------------
 CID_106946858_JID_5995_Energie_neutraal
 ---------------------------------------
 Structure from the checkpoint file:  "JID_5995.chk"
 Charge =  0 Multiplicity = 1

 SCF Done:  E(RB3LYP) =  -728.764082258     A.U. after   15 cycles
 Normal termination of Gaussian 16 at Thu Dec 10 17:54:03 2020.

 ----------------------------------------------------------------------
 # B3LYP/6-311++G(d,p) empiricaldispersion=gd3bj scf=xqc pop=npa geom=c
 heck
 ----------------------------------------------------------------------

 -------------------------------------
 CID_106946858_JID_5995_Energie_kation
 -------------------------------------
 Structure from the checkpoint file:  "JID_5995.chk"
 Charge =  1 Multiplicity = 2

 SCF Done:  E(UB3LYP) =  -728.427231380     A.U. after   30 cycles
 Normal termination of Gaussian 16 at Thu Dec 10 18:04:47 2020.
 Gaussian 16:  ES64L-G16RevA.03 25-Dec-2016

 ----------------------------------------------------------------------
 # B3LYP/6-311++G(d,p) empiricaldispersion=gd3bj scf=xqc pop=npa geom=c
 heck
 ----------------------------------------------------------------------

 ------------------------------------
 CID_106946858_JID_5995_Energie_anion
 ------------------------------------
 Structure from the checkpoint file:  "JID_5995.chk"
 Charge = -1 Multiplicity = 2

                         Standard orientation:
 ---------------------------------------------------------------------
 Center     Atomic      Atomic             Coordinates (Angstroms)
 Number     Number       Type             X           Y           Z
 ---------------------------------------------------------------------
      1          6           0       -1.401568   -2.231784    0.161995
      2          6           0       -2.241516   -1.132258   -0.502112
      3          6           0       -3.337874   -1.748893   -1.380335
      4          6           0       -2.877646   -0.176806    0.523973
      5          6           0       -1.886962    0.682466    1.340124
      6          6           0       -1.185732    1.688335    0.446166
      7          8           0       -1.741488    2.697846    0.035547
      8          6           0        0.196890    1.413862    0.019487
      9          6           0        1.042665    2.103790   -0.819484
     10          6           0        2.239564    1.346870   -0.894596
     11          6           0        2.046302    0.241868   -0.097881
     12          8           0        0.810161    0.279138    0.463770
     13          6           0        2.868621   -0.924762    0.229192
     14          8           0        2.520551   -1.850302    0.930429
     15          8           0        4.085703   -0.842911   -0.364597
     16          1           0       -2.017199   -2.815400    0.859132
     17          1           0       -0.544248   -1.835028    0.711669
     18          1           0       -1.010532   -2.924988   -0.591719
     19          1           0       -1.581168   -0.544683   -1.157943
     20          1           0       -4.032736   -2.343541   -0.773166
     21          1           0       -3.920638   -0.976356   -1.895265
     22          1           0       -2.909245   -2.412958   -2.139452
     23          1           0       -3.563791    0.507140    0.009222
     24          1           0       -3.484079   -0.764290    1.226406
     25          1           0       -2.448728    1.260899    2.080905
     26          1           0       -1.166815    0.052326    1.867569
     27          1           0        0.806351    3.035101   -1.312350
     28          1           0        3.133495    1.568223   -1.458859
     29          1           0        4.563463   -1.652750   -0.106509
 ---------------------------------------------------------------------

 SCF Done:  E(UB3LYP) =  -728.800373578     A.U. after   22 cycles

 The electronic state is 2-A.
 Alpha  occ. eigenvalues --  -19.03575 -19.02990 -18.96099 -18.93227 -10.14980
 Alpha  occ. eigenvalues --  -10.08162 -10.07532 -10.06724 -10.05733 -10.05586
 Alpha  occ. eigenvalues --  -10.04808 -10.03794 -10.03700 -10.03546 -10.02861
 Alpha  occ. eigenvalues --   -0.97642  -0.96345  -0.87766  -0.87290  -0.69783
 Alpha  occ. eigenvalues --   -0.66345  -0.63735  -0.61810  -0.57183  -0.54172
 Alpha  occ. eigenvalues --   -0.51342  -0.46559  -0.45201  -0.43167  -0.40997
 Alpha  occ. eigenvalues --   -0.36675  -0.35544  -0.34775  -0.33883  -0.33147
 Alpha  occ. eigenvalues --   -0.32853  -0.31249  -0.29583  -0.29265  -0.28262
 Alpha  occ. eigenvalues --   -0.28017  -0.27663  -0.26268  -0.25580  -0.24831
 Alpha  occ. eigenvalues --   -0.24167  -0.23078  -0.22346  -0.21007  -0.20411
 Alpha  occ. eigenvalues --   -0.19702  -0.19381  -0.15006  -0.14480  -0.10082
 Alpha  occ. eigenvalues --   -0.09660   0.02641
 Alpha virt. eigenvalues --    0.07983   0.08662   0.09688   0.10325   0.10826
 Alpha virt. eigenvalues --    0.11279   0.11585   0.12592   0.13009   0.13227
 Alpha virt. eigenvalues --    0.13593   0.14732   0.14874   0.15804   0.16680

  Beta  occ. eigenvalues --  -19.03506 -19.02598 -18.95834 -18.92703 -10.14788
  Beta  occ. eigenvalues --  -10.07927 -10.07338 -10.06543 -10.05728 -10.05587
  Beta  occ. eigenvalues --  -10.04781 -10.03790 -10.03699 -10.03571 -10.02829
  Beta  occ. eigenvalues --   -0.97236  -0.95871  -0.87358  -0.86366  -0.69745
  Beta  occ. eigenvalues --   -0.66091  -0.63287  -0.61507  -0.57180  -0.53624
  Beta  occ. eigenvalues --   -0.51141  -0.46463  -0.44933  -0.42818  -0.40785
  Beta  occ. eigenvalues --   -0.36353  -0.35366  -0.34429  -0.33569  -0.32791
  Beta  occ. eigenvalues --   -0.32031  -0.30958  -0.29049  -0.28601  -0.28042
  Beta  occ. eigenvalues --   -0.27729  -0.27616  -0.26095  -0.25246  -0.24554
  Beta  occ. eigenvalues --   -0.23969  -0.22713  -0.21570  -0.20944  -0.20232
  Beta  occ. eigenvalues --   -0.18689  -0.18125  -0.14211  -0.13926  -0.09172
  Beta  occ. eigenvalues --   -0.08170
  Beta virt. eigenvalues --    0.07965   0.08660   0.08933   0.09785   0.10307
  Beta virt. eigenvalues --    0.10810   0.11425   0.12457   0.12933   0.13086
  Beta virt. eigenvalues --    0.13519   0.13571   0.14718   0.14856   0.15848

 Mulliken charges and spin densities:
               1          2
     1  C   -0.715354  -0.014917
     2  C    0.384829   0.025591
     3  C   -0.545823   0.015329
     4  C   -0.435796  -0.027596
     5  C   -0.047206  -0.025197
     6  C   -0.062363   0.188880
     7  O   -0.406442   0.183290
     8  C   -0.130361   0.095647
     9  C   -0.295920   0.058498
    10  C   -0.109540   0.030301
    11  C   -0.318548   0.144350
    12  O    0.001526   0.078742
    13  C    0.242363   0.111050
    14  O   -0.387099   0.094223
    15  O   -0.213783   0.013005
    16  H    0.107719   0.000904
    17  H    0.149953   0.000207
    18  H    0.114237  -0.000367
    19  H    0.155984   0.000414
    20  H    0.113993   0.000440
    21  H    0.135418  -0.000103
    22  H    0.124127   0.001748
    23  H    0.154574  -0.004470
    24  H    0.096574   0.003579
    25  H    0.152610   0.023247
    26  H    0.157289   0.006329
    27  H    0.158597  -0.002229
    28  H    0.156441   0.000349
    29  H    0.262004  -0.001242
 Sum of Mulliken charges =  -1.00000   1.00000

 Dipole moment (field-independent basis, Debye):
    X=             -0.3807    Y=             -3.2863    Z=             -1.1646  Tot=              3.5073
 Quadrupole moment (field-independent basis, Debye-Ang):
   XX=           -115.9198   YY=           -120.0460   ZZ=            -98.4583
   XY=              9.7473   XZ=             -3.4639   YZ=              3.0990

 Summary of Natural Population Analysis:

                                       Natural Population
                Natural  -----------------------------------------------
    Atom  No    Charge         Core      Valence    Rydberg      Total
 -----------------------------------------------------------------------
      C    1   -0.28895      0.99965     2.28371    0.00559     3.28895
      C    2   -0.11949      0.99962     2.11288    0.00699     3.11949
      C    3   -0.28087      0.99966     2.27658    0.00463     3.28087
      C    4   -0.17641      0.99961     2.16933    0.00747     3.17641
      C    5   -0.22961      0.99960     2.22233    0.00768     3.22961
      C    6    0.27631      0.99960     1.70304    0.02104     2.72369
      O    7   -0.25008      0.99988     3.24328    0.00692     4.25008
      C    8    0.14744      0.99943     1.83909    0.01405     2.85256
      C    9   -0.13499      0.99953     2.12660    0.00887     3.13499
      C   10   -0.13464      0.99954     2.12710    0.00799     3.13464
      C   11    0.12254      0.99943     1.86395    0.01408     2.87746
      O   12   -0.19072      0.99985     3.18245    0.00843     4.19072
      C   13    0.39544      0.99966     1.58102    0.02387     2.60456
      O   14   -0.29646      0.99987     3.28838    0.00820     4.29646
      O   15   -0.35036      0.99988     3.34465    0.00584     4.35036
      H   16    0.08637      0.00000     0.41272    0.00091     0.41363
      H   17    0.11874      0.00000     0.38035    0.00091     0.38126
      H   18    0.09393      0.00000     0.40527    0.00079     0.40607
      H   19    0.10041      0.00000     0.39776    0.00183     0.39959
      H   20    0.09032      0.00000     0.40868    0.00100     0.40968
      H   21    0.09601      0.00000     0.40316    0.00083     0.40399
      H   22    0.09403      0.00000     0.40513    0.00084     0.40597
      H   23    0.09814      0.00000     0.40055    0.00130     0.40186
      H   24    0.08669      0.00000     0.41209    0.00122     0.41331
      H   25    0.10045      0.00000     0.39701    0.00254     0.39955
      H   26    0.10509      0.00000     0.39382    0.00109     0.39491
      H   27    0.10691      0.00000     0.39213    0.00096     0.39309
      H   28    0.10346      0.00000     0.39563    0.00091     0.39654
      H   29    0.23030      0.00000     0.26642    0.00328     0.26970
 =======================================================================
   * Total *    0.00000     14.99482    40.83513    0.17005    56.00000

 Normal termination of Gaussian 16 at Thu Dec 10 18:12:34 2020.
