 Gaussian 16, Revision A.03,

 -----------------------------------------------------------
 # opt freq B3LYP/6-31G(d) empiricaldispersion=gd3bj scf=xqc
 -----------------------------------------------------------

 ----------------------------
 CID_239621_JID_3108_neutraal
 ----------------------------
 Symbolic Z-matrix:
 Charge =  0 Multiplicity = 1

 SCF Done:  E(RB3LYP) =  -579.291947694     A.U. after   14 cycles
 SCF Done:  E(RB3LYP) =  -579.294780722     A.U. after   11 cycles
 SCF Done:  E(RB3LYP) =  -579.295065326     A.U. after   11 cycles
 SCF Done:  E(RB3LYP) =  -579.295152153     A.U. after   11 cycles
 SCF Done:  E(RB3LYP) =  -579.295276088     A.U. after   11 cycles
 SCF Done:  E(RB3LYP) =  -579.295389953     A.U. after   10 cycles
 SCF Done:  E(RB3LYP) =  -579.295442783     A.U. after   10 cycles
 SCF Done:  E(RB3LYP) =  -579.295446812     A.U. after    8 cycles
 SCF Done:  E(RB3LYP) =  -579.295450566     A.U. after   10 cycles
 SCF Done:  E(RB3LYP) =  -579.295454042     A.U. after    9 cycles
 SCF Done:  E(RB3LYP) =  -579.295471353     A.U. after   10 cycles
 SCF Done:  E(RB3LYP) =  -579.295472053     A.U. after   10 cycles
 SCF Done:  E(RB3LYP) =  -579.295472367     A.U. after    7 cycles
 SCF Done:  E(RB3LYP) =  -579.295472401     A.U. after    7 cycles
 SCF Done:  E(RB3LYP) =  -579.295472411     A.U. after    7 cycles
 Optimization completed.
    -- Stationary point found.
 Normal termination of Gaussian 16 at Wed Dec  9 23:01:49 2020.

 --------------------------------------------------------------------
 #N Geom=AllCheck Guess=TCheck SCRF=Check GenChk RB3LYP/6-31G(d) Freq
 --------------------------------------------------------------------

 Structure from the checkpoint file:  "JID_3108.chk"
 ----------------------------
 CID_239621_JID_3108_neutraal
 ----------------------------
 Charge =  0 Multiplicity = 1

 SCF Done:  E(RB3LYP) =  -579.295472411     A.U. after    1 cycles

  Exact polarizability: 154.838  -6.476 129.600  -2.356  -6.713  78.624
 Approx polarizability: 214.343  -1.550 199.258  -8.509 -17.141 115.237

                      1                      2                      3
                      A                      A                      A
 Frequencies --     15.9422                31.8107                42.6083
 Red. masses --      2.0223                 2.7043                 2.6845
 Frc consts  --      0.0003                 0.0016                 0.0029
 IR Inten    --      2.4232                 0.1273                 4.1980

                      4                      5                      6
                      A                      A                      A
 Frequencies --     83.6487               100.6626               115.0411
 Red. masses --      2.0805                 1.9716                 2.7932
 Frc consts  --      0.0086                 0.0118                 0.0218
 IR Inten    --      0.1522                 0.7868                 0.4113

                      7                      8                      9
                      A                      A                      A
 Frequencies --    175.5853               202.3607               238.8771
 Red. masses --      3.1210                 2.9603                 1.0794
 Frc consts  --      0.0567                 0.0714                 0.0363
 IR Inten    --      0.4093                 0.4318                 0.0506

                     10                     11                     12
                      A                      A                      A
 Frequencies --    261.5166               273.4485               298.3263
 Red. masses --      1.1576                 2.3840                 2.8125
 Frc consts  --      0.0466                 0.1050                 0.1475
 IR Inten    --      0.5393                 5.0297                 3.5678

                     13                     14                     15
                      A                      A                      A
 Frequencies --    320.1755               349.0758               385.3840
 Red. masses --      3.7877                 1.9955                 3.4324
 Frc consts  --      0.2288                 0.1433                 0.3004
 IR Inten    --      2.2032                65.7989                 0.7315

                     16                     17                     18
                      A                      A                      A
 Frequencies --    406.5477               444.7767               489.4614
 Red. masses --      2.4301                 2.7318                 3.0042
 Frc consts  --      0.2366                 0.3184                 0.4241
 IR Inten    --     43.1688                27.3920                19.1072

                     19                     20                     21
                      A                      A                      A
 Frequencies --    498.1706               542.7415               633.5377
 Red. masses --      3.5508                 2.9400                 6.0568
 Frc consts  --      0.5192                 0.5102                 1.4323
 IR Inten    --      3.7420                 1.5033                 2.0634

                     22                     23                     24
                      A                      A                      A
 Frequencies --    677.3739               715.0164               742.2442
 Red. masses --      4.8865                 3.6469                 3.1683
 Frc consts  --      1.3210                 1.0985                 1.0284
 IR Inten    --      2.2629                 1.7753                 3.2723

                     25                     26                     27
                      A                      A                      A
 Frequencies --    794.0649               838.5459               890.5415
 Red. masses --      4.8947                 1.3486                 2.5549
 Frc consts  --      1.8184                 0.5587                 1.1938
 IR Inten    --      3.9338                13.2485                 2.3260

                     28                     29                     30
                      A                      A                      A
 Frequencies --    901.9855               942.2889               949.7573
 Red. masses --      1.6077                 1.1880                 1.6625
 Frc consts  --      0.7707                 0.6215                 0.8836
 IR Inten    --      5.5261                 0.1734                 9.8813

                     31                     32                     33
                      A                      A                      A
 Frequencies --    954.7145               974.7788              1015.6870
 Red. masses --      1.9021                 1.4973                 2.2332
 Frc consts  --      1.0215                 0.8383                 1.3574
 IR Inten    --     10.6439                 0.0706                76.5346

                     34                     35                     36
                      A                      A                      A
 Frequencies --   1030.5156              1076.2164              1085.3558
 Red. masses --      2.1650                 1.4790                 1.5934
 Frc consts  --      1.3546                 1.0093                 1.1059
 IR Inten    --     75.6468                16.9232               210.9648

                     37                     38                     39
                      A                      A                      A
 Frequencies --   1096.0452              1135.7724              1154.6954
 Red. masses --      1.5558                 2.2978                 3.4011
 Frc consts  --      1.1012                 1.7464                 2.6718
 IR Inten    --      6.2517                 0.8136               203.1147

                     40                     41                     42
                      A                      A                      A
 Frequencies --   1166.9406              1169.7599              1213.7918
 Red. masses --      1.6983                 2.4432                 1.9115
 Frc consts  --      1.3626                 1.9697                 1.6593
 IR Inten    --      2.5501                10.6821                10.0400

                     43                     44                     45
                      A                      A                      A
 Frequencies --   1236.1585              1259.6267              1283.3102
 Red. masses --      1.8777                 1.1254                 2.3104
 Frc consts  --      1.6905                 1.0521                 2.2418
 IR Inten    --      0.0458                 2.8042                48.2877

                     46                     47                     48
                      A                      A                      A
 Frequencies --   1303.5268              1345.7402              1363.1454
 Red. masses --      1.9094                 3.8267                 1.3262
 Frc consts  --      1.9116                 4.0832                 1.4520
 IR Inten    --     33.0347                 9.0368                 2.6786

                     49                     50                     51
                      A                      A                      A
 Frequencies --   1387.6236              1409.9442              1426.3337
 Red. masses --      2.0810                 1.2687                 1.2295
 Frc consts  --      2.3608                 1.4860                 1.4737
 IR Inten    --     24.5875                24.6886                 2.7994

                     52                     53                     54
                      A                      A                      A
 Frequencies --   1442.7876              1445.7544              1456.8195
 Red. masses --      1.2910                 1.2514                 1.5088
 Frc consts  --      1.5834                 1.5411                 1.8867
 IR Inten    --      2.7586                 1.3125               111.2532

                     55                     56                     57
                      A                      A                      A
 Frequencies --   1483.5709              1511.5048              1517.3960
 Red. masses --      1.6630                 1.0555                 1.0445
 Frc consts  --      2.1565                 1.4208                 1.4170
 IR Inten    --     13.2445                 8.3737                 0.0346

                     58                     59                     60
                      A                      A                      A
 Frequencies --   1521.2873              1525.0940              1532.9777
 Red. masses --      1.0483                 1.1250                 1.0497
 Frc consts  --      1.4294                 1.5417                 1.4534
 IR Inten    --      2.0933                13.9861                 4.7871

                     61                     62                     63
                      A                      A                      A
 Frequencies --   1537.1413              1556.0618              1568.1453
 Red. masses --      1.1068                 2.5687                 1.1056
 Frc consts  --      1.5408                 3.6645                 1.6018
 IR Inten    --      0.1969                38.2709                 1.6164

                     64                     65                     66
                      A                      A                      A
 Frequencies --   1632.4343              1674.0759              2980.9831
 Red. masses --      5.7644                 6.4299                 1.0678
 Frc consts  --      9.0506                10.6170                 5.5907
 IR Inten    --     14.4246                10.9344                63.9643

                     67                     68                     69
                      A                      A                      A
 Frequencies --   3035.2002              3044.1479              3044.5330
 Red. masses --      1.0842                 1.0348                 1.0442
 Frc consts  --      5.8850                 5.6498                 5.7025
 IR Inten    --     16.9758                24.3224                29.6386

                     70                     71                     72
                      A                      A                      A
 Frequencies --   3048.4522              3081.5442              3104.8675
 Red. masses --      1.0354                 1.0964                 1.0915
 Frc consts  --      5.6692                 6.1340                 6.1996
 IR Inten    --     28.4540                54.3265                20.9376

                     73                     74                     75
                      A                      A                      A
 Frequencies --   3108.1986              3114.8466              3121.3060
 Red. masses --      1.1026                 1.1017                 1.1028
 Frc consts  --      6.2760                 6.2978                 6.3300
 IR Inten    --      0.4355                85.1695                25.8706

                     76                     77                     78
                      A                      A                      A
 Frequencies --   3123.5253              3139.7499              3174.0241
 Red. masses --      1.1024                 1.1032                 1.0867
 Frc consts  --      6.3369                 6.4074                 6.4506
 IR Inten    --     31.7945                11.5009                12.9994

                     79                     80                     81
                      A                      A                      A
 Frequencies --   3191.1911              3193.9991              3731.7081
 Red. masses --      1.0935                 1.0905                 1.0652
 Frc consts  --      6.5612                 6.5543                 8.7400
 IR Inten    --     34.3300                 2.8162                21.0365

 - Thermochemistry -
 -------------------
 Temperature   298.150 Kelvin.  Pressure   1.00000 Atm.
 Atom     1 has atomic number  6 and mass  12.00000

 Molecular mass:   180.11503 amu.
 Principal axes and moments of inertia in atomic units:
                           1         2         3
     Eigenvalues --  1597.290733678.506124775.46243
           X            0.99923  -0.03911   0.00400
           Y            0.03910   0.99923   0.00083
           Z           -0.00403  -0.00068   0.99999
 This molecule is an asymmetric top.
 Rotational symmetry number  1.
 Warning -- assumption of classical behavior for rotation
           may cause significant error
 Rotational temperatures (Kelvin)      0.05423     0.02355     0.01814
 Rotational constants (GHZ):           1.12988     0.49062     0.37792
 Zero-point vibrational energy     658511.5 (Joules/Mol)
                                  157.38803 (Kcal/Mol)
 Warning -- explicit consideration of  20 degrees of freedom as
           vibrations may cause significant error
 Vibrational temperatures:     22.94    45.77    61.30   120.35   144.83
          (Kelvin)            165.52   252.63   291.15   343.69   376.26
                              393.43   429.23   460.66   502.24   554.48
                              584.93   639.93   704.23   716.76   780.88
                              911.52   974.59  1028.75  1067.92  1142.48
                             1206.48  1281.29  1297.76  1355.74  1366.49
                             1373.62  1402.49  1461.35  1482.68  1548.44
                             1561.58  1576.96  1634.12  1661.35  1678.97
                             1683.02  1746.38  1778.56  1812.32  1846.40
                             1875.48  1936.22  1961.26  1996.48  2028.60
                             2052.18  2075.85  2080.12  2096.04  2134.53
                             2174.72  2183.19  2188.79  2194.27  2205.61
                             2211.60  2238.83  2256.21  2348.71  2408.62
                             4288.97  4366.98  4379.85  4380.40  4386.04
                             4433.65  4467.21  4472.00  4481.57  4490.86
                             4494.06  4517.40  4566.71  4591.41  4595.45
                             5369.10

 Zero-point correction=                           0.250814 (Hartree/Particle)
 Thermal correction to Energy=                    0.265092
 Thermal correction to Enthalpy=                  0.266036
 Thermal correction to Gibbs Free Energy=         0.207586
 Sum of electronic and zero-point Energies=           -579.044659
 Sum of electronic and thermal Energies=              -579.030380
 Sum of electronic and thermal Enthalpies=            -579.029436
 Sum of electronic and thermal Free Energies=         -579.087886

                     E (Thermal)             CV                S
                      KCal/Mol        Cal/Mol-Kelvin    Cal/Mol-Kelvin
 Total                  166.348             51.876            123.019
 Electronic               0.000              0.000              0.000
 Translational            0.889              2.981             41.472
 Rotational               0.889              2.981             31.707
 Vibrational            164.570             45.915             49.840
 Vibration     1          0.593              1.986              7.085
 Vibration     2          0.594              1.983              5.713
 Vibration     3          0.595              1.980              5.134
 Vibration     4          0.601              1.960              3.803
 Vibration     5          0.604              1.949              3.441
 Vibration     6          0.608              1.937              3.182
 Vibration     7          0.628              1.872              2.375
 Vibration     8          0.639              1.837              2.112
 Vibration     9          0.657              1.781              1.811
 Vibration    10          0.669              1.743              1.652
 Vibration    11          0.676              1.722              1.574
 Vibration    12          0.691              1.677              1.426
 Vibration    13          0.706              1.635              1.309
 Vibration    14          0.726              1.577              1.170
 Vibration    15          0.754              1.501              1.018
 Vibration    16          0.771              1.456              0.939
 Vibration    17          0.804              1.372              0.812
 Vibration    18          0.845              1.273              0.685
 Vibration    19          0.854              1.254              0.663
 Vibration    20          0.898              1.156              0.559

                           ! Non-Optimized Parameters !
 Normal termination of Gaussian 16 at Wed Dec  9 23:23:46 2020.

 ----------------------------------------------------------------------
 # B3LYP/6-311++G(d,p) empiricaldispersion=gd3bj scf=xqc pop=npa geom=c
 heck
 ----------------------------------------------------------------------

 ------------------------------------
 CID_239621_JID_3108_Energie_neutraal
 ------------------------------------
 Structure from the checkpoint file:  "JID_3108.chk"
 Charge =  0 Multiplicity = 1

 SCF Done:  E(RB3LYP) =  -579.464922887     A.U. after   14 cycles
 Normal termination of Gaussian 16 at Wed Dec  9 23:26:50 2020.

 ----------------------------------------------------------------------
 # B3LYP/6-311++G(d,p) empiricaldispersion=gd3bj scf=xqc pop=npa geom=c
 heck
 ----------------------------------------------------------------------

 ----------------------------------
 CID_239621_JID_3108_Energie_kation
 ----------------------------------
 Structure from the checkpoint file:  "JID_3108.chk"
 Charge =  1 Multiplicity = 2

 SCF Done:  E(UB3LYP) =  -579.158624357     A.U. after   22 cycles
 Normal termination of Gaussian 16 at Wed Dec  9 23:36:08 2020.
 Gaussian 16:  ES64L-G16RevA.03 25-Dec-2016

 ----------------------------------------------------------------------
 # B3LYP/6-311++G(d,p) empiricaldispersion=gd3bj scf=xqc pop=npa geom=c
 heck
 ----------------------------------------------------------------------

 ---------------------------------
 CID_239621_JID_3108_Energie_anion
 ---------------------------------
 Structure from the checkpoint file:  "JID_3108.chk"
 Charge = -1 Multiplicity = 2

                         Standard orientation:
 ---------------------------------------------------------------------
 Center     Atomic      Atomic             Coordinates (Angstroms)
 Number     Number       Type             X           Y           Z
 ---------------------------------------------------------------------
      1          6           0       -2.455922    2.104222    0.095135
      2          6           0       -1.071160    1.512548    0.037450
      3          6           0       -0.863585    0.146059    0.281892
      4          6           0        0.408593   -0.417569    0.240453
      5          6           0        1.532418    0.364428   -0.053110
      6          6           0        1.333423    1.725858   -0.297855
      7          6           0        0.056590    2.286646   -0.247144
      8          6           0        2.922742   -0.245354   -0.095913
      9          6           0        3.336248   -0.806014    1.275111
     10          6           0        3.035099   -1.321572   -1.188674
     11          8           0       -1.946458   -0.656016    0.609551
     12          6           0       -2.536923   -1.322150   -0.509248
     13          8           0       -3.507304   -2.197683   -0.046971
     14          1           0       -3.033930    1.871101   -0.808747
     15          1           0       -3.018474    1.704152    0.943732
     16          1           0       -2.411084    3.193923    0.183028
     17          1           0        0.507123   -1.477616    0.456920
     18          1           0        2.188881    2.358100   -0.522537
     19          1           0       -0.069109    3.351104   -0.430647
     20          1           0        3.622513    0.561709   -0.350532
     21          1           0        2.677814   -1.628137    1.579036
     22          1           0        4.361319   -1.193189    1.242783
     23          1           0        3.283464   -0.033063    2.048896
     24          1           0        2.766355   -0.916668   -2.170047
     25          1           0        4.057756   -1.712248   -1.244911
     26          1           0        2.366812   -2.165374   -0.980442
     27          1           0       -3.047160   -0.605465   -1.163313
     28          1           0       -1.736207   -1.826930   -1.075715
     29          1           0       -3.071109   -2.814415    0.563260
 ---------------------------------------------------------------------

 SCF Done:  E(UB3LYP) =  -579.450570207     A.U. after   33 cycles
 SCF Done:  E(UB3LYP) =  -579.450570207     a.u. after    1 cycles

 The electronic state is 2-A.
 Alpha  occ. eigenvalues --  -19.04312 -19.04161 -10.17631 -10.13013 -10.08732
 Alpha  occ. eigenvalues --  -10.08292 -10.08099 -10.07887 -10.07747 -10.07404
 Alpha  occ. eigenvalues --  -10.07342 -10.06003 -10.05812  -0.98465  -0.92629
 Alpha  occ. eigenvalues --   -0.76546  -0.71160  -0.66301  -0.64958  -0.59770
 Alpha  occ. eigenvalues --   -0.58519  -0.57925  -0.52119  -0.50254  -0.47266
 Alpha  occ. eigenvalues --   -0.44211  -0.42013  -0.39664  -0.38584  -0.37071
 Alpha  occ. eigenvalues --   -0.34515  -0.34108  -0.33114  -0.33044  -0.31561
 Alpha  occ. eigenvalues --   -0.30221  -0.30037  -0.28717  -0.28338  -0.27816
 Alpha  occ. eigenvalues --   -0.25767  -0.25374  -0.24161  -0.23555  -0.22995
 Alpha  occ. eigenvalues --   -0.21645  -0.18064  -0.15346  -0.14148   0.04393
 Alpha virt. eigenvalues --    0.06279   0.06529   0.07725   0.07972   0.08346
 Alpha virt. eigenvalues --    0.08558   0.09019   0.09545   0.10390   0.11117
 Alpha virt. eigenvalues --    0.11168   0.11791   0.12218   0.12651   0.13283

  Beta  occ. eigenvalues --  -19.04302 -19.04127 -10.17608 -10.13012 -10.08728
  Beta  occ. eigenvalues --  -10.08291 -10.08087 -10.07878 -10.07733 -10.07394
  Beta  occ. eigenvalues --  -10.07323 -10.05975 -10.05780  -0.98430  -0.92579
  Beta  occ. eigenvalues --   -0.76529  -0.71136  -0.66276  -0.64932  -0.59726
  Beta  occ. eigenvalues --   -0.58457  -0.57866  -0.52077  -0.50215  -0.47221
  Beta  occ. eigenvalues --   -0.44148  -0.41959  -0.39634  -0.38541  -0.37037
  Beta  occ. eigenvalues --   -0.34477  -0.34072  -0.33086  -0.33017  -0.31517
  Beta  occ. eigenvalues --   -0.30186  -0.30008  -0.28684  -0.28302  -0.27782
  Beta  occ. eigenvalues --   -0.25741  -0.25341  -0.24131  -0.23526  -0.22951
  Beta  occ. eigenvalues --   -0.21610  -0.18041  -0.15329  -0.14131
  Beta virt. eigenvalues --    0.06462   0.07191   0.07473   0.07852   0.08461
  Beta virt. eigenvalues --    0.08612   0.08882   0.09585   0.09863   0.10593
  Beta virt. eigenvalues --    0.11515   0.11771   0.12016   0.12491   0.12811

 Mulliken charges and spin densities:
               1          2
     1  C    1.089544  -1.525571
     2  C    1.615196  -0.454140
     3  C   -0.647054  -0.186348
     4  C   -1.075581   0.606821
     5  C    1.720147  -0.745828
     6  C   -0.296145  -0.297870
     7  C   -0.606317   0.060919
     8  C   -2.346717   2.467865
     9  C    0.748242  -1.413724
    10  C    1.170464  -1.837078
    11  O   -0.186006   0.020314
    12  C    0.640297  -0.862452
    13  O   -0.268267   0.014821
    14  H    0.128883   0.015386
    15  H    0.133242   0.054751
    16  H   -0.107201   0.255504
    17  H   -0.111272   0.303076
    18  H   -0.277294   0.421031
    19  H   -0.376207   0.522472
    20  H   -0.389681   0.572984
    21  H   -0.230977   0.381086
    22  H   -0.302835   0.452033
    23  H    0.034848   0.093165
    24  H   -0.040587   0.171696
    25  H   -0.357397   0.505890
    26  H   -0.333928   0.484313
    27  H   -0.045684   0.209858
    28  H   -0.150255   0.312706
    29  H   -0.131456   0.396317
 Sum of Mulliken charges =  -1.00000   1.00000

 Dipole moment (field-independent basis, Debye):
    X=             -3.1344    Y=              3.6930    Z=              0.2461  Tot=              4.8500
 Quadrupole moment (field-independent basis, Debye-Ang):
   XX=           -156.5604   YY=           -132.6294   ZZ=           -109.3650
   XY=             -2.4835   XZ=              2.9767   YZ=              0.6381

 Summary of Natural Population Analysis:

                                       Natural Population
                Natural  -----------------------------------------------
    Atom  No    Charge         Core      Valence    Rydberg      Total
 -----------------------------------------------------------------------
      C    1   -0.29273      0.99964     2.28816    0.00493     3.29273
      C    2   -0.03703      0.99946     2.02922    0.00835     3.03703
      C    3    0.15010      0.99932     1.83659    0.01399     2.84990
      C    4   -0.11571      0.99945     2.10668    0.00957     3.11571
      C    5   -0.00552      0.99950     1.99462    0.01140     3.00552
      C    6   -0.10192      0.99951     2.09256    0.00986     3.10192
      C    7   -0.09509      0.99953     2.08586    0.00971     3.09509
      C    8   -0.11894      0.99958     2.10859    0.01076     3.11894
      C    9   -0.28011      0.99965     2.27439    0.00607     3.28011
      C   10   -0.28000      0.99965     2.27434    0.00601     3.28000
      O   11   -0.30244      0.99986     3.29233    0.01025     4.30244
      C   12    0.15311      0.99963     1.83031    0.01695     2.84689
      O   13   -0.35841      0.99989     3.35192    0.00660     4.35841
      H   14    0.10184      0.00000     0.39656    0.00160     0.39816
      H   15    0.10952      0.00000     0.38920    0.00127     0.39048
      H   16    0.10066      0.00000     0.39841    0.00093     0.39934
      H   17    0.10821      0.00000     0.39000    0.00178     0.39179
      H   18    0.10120      0.00000     0.39744    0.00136     0.39880
      H   19    0.09871      0.00000     0.40023    0.00106     0.40129
      H   20    0.09626      0.00000     0.40151    0.00224     0.40374
      H   21    0.09797      0.00000     0.40076    0.00126     0.40203
      H   22    0.09990      0.00000     0.39897    0.00114     0.40010
      H   23    0.09971      0.00000     0.39937    0.00092     0.40029
      H   24    0.10042      0.00000     0.39843    0.00114     0.39958
      H   25    0.09961      0.00000     0.39914    0.00125     0.40039
      H   26    0.09858      0.00000     0.39991    0.00151     0.40142
      H   27    0.07019      0.00000     0.42829    0.00151     0.42981
      H   28    0.06785      0.00000     0.42999    0.00216     0.43215
      H   29    0.23407      0.00000     0.25956    0.00638     0.26593
 =======================================================================
   * Total *    0.00000     12.99467    35.85334    0.15199    49.00000

 Normal termination of Gaussian 16 at Thu Dec 10 00:10:40 2020.
