 Gaussian 16, Revision A.03,

 -----------------------------------------------------------
 # opt freq B3LYP/6-31G(d) empiricaldispersion=gd3bj scf=xqc
 -----------------------------------------------------------

 ------------------------------
 CID_64990038_JID_7620_neutraal
 ------------------------------
 Symbolic Z-matrix:
 Charge =  0 Multiplicity = 1

 SCF Done:  E(RB3LYP) =  -727.918117400     A.U. after   14 cycles
 SCF Done:  E(RB3LYP) =  -727.923107940     A.U. after   12 cycles
 SCF Done:  E(RB3LYP) =  -727.923634385     A.U. after   12 cycles
 SCF Done:  E(RB3LYP) =  -727.923909418     A.U. after   12 cycles
 SCF Done:  E(RB3LYP) =  -727.923958668     A.U. after   11 cycles
 SCF Done:  E(RB3LYP) =  -727.924016469     A.U. after   10 cycles
 SCF Done:  E(RB3LYP) =  -727.924047366     A.U. after   10 cycles
 SCF Done:  E(RB3LYP) =  -727.924063790     A.U. after   10 cycles
 SCF Done:  E(RB3LYP) =  -727.924066669     A.U. after    8 cycles
 SCF Done:  E(RB3LYP) =  -727.924067334     A.U. after    8 cycles
 SCF Done:  E(RB3LYP) =  -727.924067885     A.U. after    8 cycles
 SCF Done:  E(RB3LYP) =  -727.924068067     A.U. after    8 cycles
 SCF Done:  E(RB3LYP) =  -727.924068201     A.U. after    8 cycles
 SCF Done:  E(RB3LYP) =  -727.924068283     A.U. after    8 cycles
 SCF Done:  E(RB3LYP) =  -727.924068303     A.U. after    7 cycles
 Optimization completed.
    -- Stationary point found.
 Normal termination of Gaussian 16 at Sun Dec 13 12:31:36 2020.

 --------------------------------------------------------------------
 #N Geom=AllCheck Guess=TCheck SCRF=Check GenChk RB3LYP/6-31G(d) Freq
 --------------------------------------------------------------------

 Structure from the checkpoint file:  "JID_7620.chk"
 ------------------------------
 CID_64990038_JID_7620_neutraal
 ------------------------------
 Charge =  0 Multiplicity = 1

 SCF Done:  E(RB3LYP) =  -727.924068303     A.U. after    1 cycles

  Exact polarizability: 204.140  16.278 150.140  -4.877  -7.789 118.321
 Approx polarizability: 278.862  37.453 250.085  -5.838 -14.388 195.776

                      1                      2                      3
                      A                      A                      A
 Frequencies --     20.2800                48.5583                57.7314
 Red. masses --      4.4695                 4.4313                 4.6792
 Frc consts  --      0.0011                 0.0062                 0.0092
 IR Inten    --      0.6542                 0.6131                 2.4588

                      4                      5                      6
                      A                      A                      A
 Frequencies --    106.0643               137.7600               141.8424
 Red. masses --      3.4856                 1.0402                 1.6692
 Frc consts  --      0.0231                 0.0116                 0.0198
 IR Inten    --      0.2175                 0.0008                 1.4923

                      7                      8                      9
                      A                      A                      A
 Frequencies --    161.6736               182.8480               198.5007
 Red. masses --      1.1670                 1.9119                 3.0734
 Frc consts  --      0.0180                 0.0377                 0.0714
 IR Inten    --      0.3570                 0.5048                 1.2259

                     10                     11                     12
                      A                      A                      A
 Frequencies --    211.7184               249.1309               263.9692
 Red. masses --      3.3949                 4.2543                 4.2412
 Frc consts  --      0.0897                 0.1556                 0.1741
 IR Inten    --      5.2039                 0.2820                 3.6192

                     13                     14                     15
                      A                      A                      A
 Frequencies --    294.9226               301.9644               328.4892
 Red. masses --      3.2097                 2.8767                 3.0344
 Frc consts  --      0.1645                 0.1545                 0.1929
 IR Inten    --      3.3311                 3.3014                 0.5382

                     16                     17                     18
                      A                      A                      A
 Frequencies --    369.4730               404.8192               427.5444
 Red. masses --      3.5764                 2.8777                 2.8245
 Frc consts  --      0.2876                 0.2779                 0.3042
 IR Inten    --      5.8894                 8.3150                 8.7146

                     19                     20                     21
                      A                      A                      A
 Frequencies --    449.8180               461.4602               484.3420
 Red. masses --      1.9277                 3.4295                 2.4733
 Frc consts  --      0.2298                 0.4303                 0.3418
 IR Inten    --     43.8595                 0.9128                15.8262

                     22                     23                     24
                      A                      A                      A
 Frequencies --    496.1826               533.1769               588.8470
 Red. masses --      3.4941                 3.3815                 4.0918
 Frc consts  --      0.5068                 0.5664                 0.8359
 IR Inten    --      4.9718                 2.0950                 3.0592

                     25                     26                     27
                      A                      A                      A
 Frequencies --    629.8889               651.7366               686.2554
 Red. masses --      4.0151                 7.9831                 4.6288
 Frc consts  --      0.9386                 1.9979                 1.2844
 IR Inten    --      1.4155                 9.3407                 5.2625

                     28                     29                     30
                      A                      A                      A
 Frequencies --    734.9644               744.5021               759.4157
 Red. masses --      3.8513                 4.0704                 5.0076
 Frc consts  --      1.2257                 1.3293                 1.7015
 IR Inten    --     19.6203                 4.9613                15.8330

                     31                     32                     33
                      A                      A                      A
 Frequencies --    799.6565               822.4145               852.3578
 Red. masses --      4.1748                 1.4027                 3.6181
 Frc consts  --      1.5729                 0.5590                 1.5487
 IR Inten    --      2.5741                 5.8258                 3.0708

                     34                     35                     36
                      A                      A                      A
 Frequencies --    875.0266               894.3264               910.7580
 Red. masses --      1.8585                 1.4138                 2.1435
 Frc consts  --      0.8384                 0.6662                 1.0476
 IR Inten    --      4.1654                 4.5434                11.7182

                     37                     38                     39
                      A                      A                      A
 Frequencies --   1000.1267              1002.1459              1018.4619
 Red. masses --      1.3923                 1.4103                 9.4464
 Frc consts  --      0.8205                 0.8345                 5.7730
 IR Inten    --      0.0759                 0.0697                 0.5352

                     40                     41                     42
                      A                      A                      A
 Frequencies --   1021.0480              1029.2652              1051.8978
 Red. masses --      1.5254                 1.4116                 2.1098
 Frc consts  --      0.9370                 0.8811                 1.3754
 IR Inten    --      1.1816                11.9465                 2.8946

                     43                     44                     45
                      A                      A                      A
 Frequencies --   1059.0744              1076.2264              1085.7186
 Red. masses --      1.4267                 1.5075                 1.5801
 Frc consts  --      0.9428                 1.0288                 1.0974
 IR Inten    --      4.5223                 2.6844                 0.0459

                     46                     47                     48
                      A                      A                      A
 Frequencies --   1091.9164              1103.4861              1123.0572
 Red. masses --      2.3797                 2.4200                 2.0893
 Frc consts  --      1.6717                 1.7362                 1.5526
 IR Inten    --      4.5408                 1.4302                38.9386

                     49                     50                     51
                      A                      A                      A
 Frequencies --   1141.9677              1219.0596              1235.4985
 Red. masses --      2.4086                 4.6057                 1.4751
 Frc consts  --      1.8506                 4.0327                 1.3267
 IR Inten    --     70.6643                 9.2542                 1.2147

                     52                     53                     54
                      A                      A                      A
 Frequencies --   1250.2426              1275.8975              1295.2002
 Red. masses --      2.5342                 1.9465                 3.4534
 Frc consts  --      2.3339                 1.8669                 3.4133
 IR Inten    --      5.4880                 1.8907                 5.3736

                     55                     56                     57
                      A                      A                      A
 Frequencies --   1308.9298              1312.4618              1328.7098
 Red. masses --      2.4046                 1.9008                 1.5340
 Frc consts  --      2.4273                 1.9292                 1.5956
 IR Inten    --      8.6033                11.4000                 4.0246

                     58                     59                     60
                      A                      A                      A
 Frequencies --   1345.6459              1379.0433              1432.5464
 Red. masses --      3.0313                 1.7206                 1.5784
 Frc consts  --      3.2340                 1.9279                 1.9084
 IR Inten    --      3.8746                 0.5693                39.2683

                     61                     62                     63
                      A                      A                      A
 Frequencies --   1441.4852              1446.4483              1449.9589
 Red. masses --      1.3779                 1.3193                 1.2995
 Frc consts  --      1.6869                 1.6263                 1.6097
 IR Inten    --     72.5788                50.3421                13.3818

                     64                     65                     66
                      A                      A                      A
 Frequencies --   1454.8314              1477.2434              1488.4836
 Red. masses --      1.9870                 2.0274                 1.9459
 Frc consts  --      2.4779                 2.6068                 2.5401
 IR Inten    --     91.7541                11.4971                37.7928

                     67                     68                     69
                      A                      A                      A
 Frequencies --   1507.2917              1514.8411              1521.8660
 Red. masses --      1.0455                 1.0658                 1.0861
 Frc consts  --      1.3995                 1.4409                 1.4820
 IR Inten    --      0.0261                 1.0835                 7.5423

                     70                     71                     72
                      A                      A                      A
 Frequencies --   1522.7214              1525.2210              1535.1455
 Red. masses --      1.0519                 1.1234                 1.1483
 Frc consts  --      1.4370                 1.5398                 1.5944
 IR Inten    --     10.7651                 0.7736                24.4892

                     73                     74                     75
                      A                      A                      A
 Frequencies --   1558.5877              1618.6746              1622.9881
 Red. masses --      2.6290                 6.0890                 6.1152
 Frc consts  --      3.7628                 9.3997                 9.4905
 IR Inten    --     17.7267                84.6123                 1.4557

                     76                     77                     78
                      A                      A                      A
 Frequencies --   1638.8746              1679.9114              3016.5690
 Red. masses --      5.3383                 6.0836                 1.0834
 Frc consts  --      8.4478                10.1154                 5.8086
 IR Inten    --     91.3841                 2.7110                25.2054

                     79                     80                     81
                      A                      A                      A
 Frequencies --   3034.8597              3036.0110              3059.2311
 Red. masses --      1.0390                 1.0381                 1.0361
 Frc consts  --      5.6384                 5.6378                 5.7133
 IR Inten    --     13.5737                68.1611                27.4581

                     82                     83                     84
                      A                      A                      A
 Frequencies --   3080.5135              3082.5336              3119.5082
 Red. masses --      1.1002                 1.1001                 1.1006
 Frc consts  --      6.1513                 6.1586                 6.3105
 IR Inten    --     41.6706                 2.9007                21.8993

                     85                     86                     87
                      A                      A                      A
 Frequencies --   3124.8660              3126.2693              3133.9482
 Red. masses --      1.0997                 1.0994                 1.1016
 Frc consts  --      6.3269                 6.3311                 6.3745
 IR Inten    --     34.6699                 2.7624                10.5838

                     88                     89                     90
                      A                      A                      A
 Frequencies --   3165.6428              3173.5894              3178.8864
 Red. masses --      1.0893                 1.0896                 1.0906
 Frc consts  --      6.4317                 6.4658                 6.4932
 IR Inten    --     37.4274                11.7503                18.9330

                     91                     92                     93
                      A                      A                      A
 Frequencies --   3185.8321              3231.1620              3617.1421
 Red. masses --      1.0912                 1.0961                 1.0650
 Frc consts  --      6.5256                 6.7425                 8.2094
 IR Inten    --     23.8976                11.7843               124.6121

 - Thermochemistry -
 -------------------
 Temperature   298.150 Kelvin.  Pressure   1.00000 Atm.
 Atom     1 has atomic number  6 and mass  12.00000

 Molecular mass:   228.12626 amu.
 Principal axes and moments of inertia in atomic units:
                           1         2         3
     Eigenvalues --  2054.323736249.601006784.48492
           X            0.99992   0.01261  -0.00037
           Y           -0.01261   0.99761  -0.06792
           Z           -0.00048   0.06792   0.99769
 This molecule is an asymmetric top.
 Rotational symmetry number  1.
 Warning -- assumption of classical behavior for rotation
           may cause significant error
 Rotational temperatures (Kelvin)      0.04216     0.01386     0.01277
 Rotational constants (GHZ):           0.87851     0.28878     0.26601
 Zero-point vibrational energy     722790.8 (Joules/Mol)
                                  172.75115 (Kcal/Mol)
 Warning -- explicit consideration of  24 degrees of freedom as
           vibrations may cause significant error
 Vibrational temperatures:     29.18    69.86    83.06   152.60   198.21
          (Kelvin)            204.08   232.61   263.08   285.60   304.62
                              358.44   379.79   424.33   434.46   472.62
                              531.59   582.44   615.14   647.19   663.94
                              696.86   713.90   767.12   847.22   906.27
                              937.70   987.37  1057.45  1071.17  1092.63
                             1150.53  1183.27  1226.35  1258.97  1286.74
                             1310.38  1438.96  1441.86  1465.34  1469.06
                             1480.88  1513.45  1523.77  1548.45  1562.11
                             1571.02  1587.67  1615.83  1643.04  1753.95
                             1777.61  1798.82  1835.73  1863.50  1883.26
                             1888.34  1911.72  1936.08  1984.14  2061.11
                             2073.98  2081.12  2086.17  2093.18  2125.42
                             2141.60  2168.66  2179.52  2189.63  2190.86
                             2194.45  2208.73  2242.46  2328.91  2335.12
                             2357.98  2417.02  4340.17  4366.49  4368.14
                             4401.55  4432.17  4435.08  4488.28  4495.99
                             4498.00  4509.05  4554.65  4566.09  4573.71
                             4583.70  4648.92  5204.26

 Zero-point correction=                           0.275296 (Hartree/Particle)
 Thermal correction to Energy=                    0.291154
 Thermal correction to Enthalpy=                  0.292098
 Thermal correction to Gibbs Free Energy=         0.231451
 Sum of electronic and zero-point Energies=           -727.648772
 Sum of electronic and thermal Energies=              -727.632914
 Sum of electronic and thermal Enthalpies=            -727.631970
 Sum of electronic and thermal Free Energies=         -727.692618

                     E (Thermal)             CV                S
                      KCal/Mol        Cal/Mol-Kelvin    Cal/Mol-Kelvin
 Total                  182.702             60.695            127.643
 Electronic               0.000              0.000              0.000
 Translational            0.889              2.981             42.176
 Rotational               0.889              2.981             32.832
 Vibrational            180.924             54.734             52.635
 Vibration     1          0.593              1.986              6.607
 Vibration     2          0.595              1.978              4.875
 Vibration     3          0.596              1.974              4.533
 Vibration     4          0.605              1.944              3.340
 Vibration     5          0.614              1.916              2.835
 Vibration     6          0.615              1.911              2.779
 Vibration     7          0.622              1.889              2.530
 Vibration     8          0.630              1.863              2.299
 Vibration     9          0.637              1.842              2.147
 Vibration    10          0.643              1.823              2.029
 Vibration    11          0.662              1.764              1.737
 Vibration    12          0.671              1.739              1.635
 Vibration    13          0.689              1.683              1.446
 Vibration    14          0.694              1.670              1.406
 Vibration    15          0.712              1.619              1.268
 Vibration    16          0.742              1.535              1.082
 Vibration    17          0.770              1.460              0.945
 Vibration    18          0.789              1.410              0.867
 Vibration    19          0.809              1.361              0.796
 Vibration    20          0.819              1.336              0.762
 Vibration    21          0.840              1.285              0.698
 Vibration    22          0.852              1.258              0.668
 Vibration    23          0.888              1.177              0.580
 Vibration    24          0.946              1.056              0.469

                           ! Non-Optimized Parameters !
 Normal termination of Gaussian 16 at Sun Dec 13 12:43:44 2020.

 ----------------------------------------------------------------------
 # B3LYP/6-311++G(d,p) empiricaldispersion=gd3bj scf=xqc pop=npa geom=c
 heck
 ----------------------------------------------------------------------

 --------------------------------------
 CID_64990038_JID_7620_Energie_neutraal
 --------------------------------------
 Structure from the checkpoint file:  "JID_7620.chk"
 Charge =  0 Multiplicity = 1

 SCF Done:  E(RB3LYP) =  -728.119637769     A.U. after   15 cycles
 Normal termination of Gaussian 16 at Sun Dec 13 12:49:36 2020.

 ----------------------------------------------------------------------
 # B3LYP/6-311++G(d,p) empiricaldispersion=gd3bj scf=xqc pop=npa geom=c
 heck
 ----------------------------------------------------------------------

 ------------------------------------
 CID_64990038_JID_7620_Energie_kation
 ------------------------------------
 Structure from the checkpoint file:  "JID_7620.chk"
 Charge =  1 Multiplicity = 2

 SCF Done:  E(UB3LYP) =  -727.832104147     A.U. after   24 cycles
 Normal termination of Gaussian 16 at Sun Dec 13 13:03:04 2020.
 Gaussian 16:  ES64L-G16RevA.03 25-Dec-2016

 ----------------------------------------------------------------------
 # B3LYP/6-311++G(d,p) empiricaldispersion=gd3bj scf=xqc pop=npa geom=c
 heck
 ----------------------------------------------------------------------

 -----------------------------------
 CID_64990038_JID_7620_Energie_anion
 -----------------------------------
 Structure from the checkpoint file:  "JID_7620.chk"
 Charge = -1 Multiplicity = 2

                         Standard orientation:
 ---------------------------------------------------------------------
 Center     Atomic      Atomic             Coordinates (Angstroms)
 Number     Number       Type             X           Y           Z
 ---------------------------------------------------------------------
      1          6           0       -4.346720    0.103697   -1.275050
      2          6           0       -3.004329    0.154658   -0.589661
      3          6           0       -2.088203    1.161472   -0.902471
      4          6           0       -0.828823    1.264526   -0.303037
      5          6           0       -0.484112    0.303975    0.664788
      6          6           0       -1.396926   -0.703590    0.981149
      7          6           0       -2.650051   -0.804435    0.375623
      8          6           0       -3.598458   -1.913653    0.755581
      9          6           0        0.868516    0.290848    1.369450
     10          6           0        1.948114   -0.249135    0.437621
     11          7           0        1.806295   -1.501509   -0.015493
     12          6           0        2.759063   -1.941940   -0.838989
     13          6           0        3.848712   -1.155485   -1.219378
     14          6           0        3.903226    0.123737   -0.680122
     15          7           0        2.957817    0.580835    0.151450
     16          8           0        1.232947    1.551735    1.891720
     17          6           0        0.089051    2.394950   -0.704363
     18          1           0       -4.453263    0.919068   -1.996668
     19          1           0       -4.491076   -0.842155   -1.813222
     20          1           0       -5.171705    0.183418   -0.555212
     21          1           0       -2.365880    1.902080   -1.650081
     22          1           0       -1.116523   -1.442794    1.728170
     23          1           0       -3.159119   -2.563513    1.518162
     24          1           0       -4.543564   -1.521580    1.153389
     25          1           0       -3.857333   -2.539487   -0.108466
     26          1           0        0.795546   -0.427887    2.198666
     27          1           0        2.647650   -2.960845   -1.205758
     28          1           0        4.613738   -1.525337   -1.892813
     29          1           0        4.718740    0.806040   -0.910599
     30          1           0        2.068003    1.792182    1.445437
     31          1           0        1.077805    2.036170   -1.009995
     32          1           0       -0.338388    2.953480   -1.543012
     33          1           0        0.248661    3.084244    0.129701
 ---------------------------------------------------------------------

 SCF Done:  E(UB3LYP) =  -728.121128381     A.U. after   33 cycles
 SCF Done:  E(UB3LYP) =  -728.121128381     a.u. after    2 cycles

 The electronic state is 2-A.
 Alpha  occ. eigenvalues --  -18.99216 -14.16359 -14.15251 -10.10584 -10.10252
 Alpha  occ. eigenvalues --  -10.07107 -10.06943 -10.06882 -10.06845 -10.06827
 Alpha  occ. eigenvalues --  -10.06216 -10.05863 -10.05709 -10.05705 -10.05628
 Alpha  occ. eigenvalues --  -10.05019 -10.04392  -0.90495  -0.83659  -0.75537
 Alpha  occ. eigenvalues --   -0.74025  -0.68805  -0.66551  -0.65022  -0.61907
 Alpha  occ. eigenvalues --   -0.59645  -0.56317  -0.53704  -0.51407  -0.49312
 Alpha  occ. eigenvalues --   -0.48691  -0.44167  -0.40561  -0.38675  -0.37475
 Alpha  occ. eigenvalues --   -0.36710  -0.34752  -0.34070  -0.33471  -0.31841
 Alpha  occ. eigenvalues --   -0.30882  -0.30497  -0.30143  -0.29639  -0.29092
 Alpha  occ. eigenvalues --   -0.28918  -0.28403  -0.27412  -0.27064  -0.26048
 Alpha  occ. eigenvalues --   -0.23753  -0.23304  -0.22844  -0.21216  -0.18134
 Alpha  occ. eigenvalues --   -0.17188  -0.16103  -0.13870  -0.13508  -0.11971
 Alpha  occ. eigenvalues --   -0.10845   0.04850
 Alpha virt. eigenvalues --    0.06069   0.07799   0.08417   0.08884   0.09297
 Alpha virt. eigenvalues --    0.09632   0.09955   0.10376   0.10692   0.11071
 Alpha virt. eigenvalues --    0.11507   0.12088   0.12223   0.12622   0.12907

  Beta  occ. eigenvalues --  -18.99212 -14.16050 -14.14883 -10.10583 -10.10323
  Beta  occ. eigenvalues --  -10.07105 -10.06943 -10.06881 -10.06829 -10.06802
  Beta  occ. eigenvalues --  -10.06219 -10.05861 -10.05703 -10.05281 -10.05254
  Beta  occ. eigenvalues --  -10.05018 -10.04522  -0.90473  -0.83116  -0.75525
  Beta  occ. eigenvalues --   -0.73223  -0.68783  -0.66496  -0.64733  -0.61858
  Beta  occ. eigenvalues --   -0.59594  -0.56289  -0.53682  -0.50518  -0.49273
  Beta  occ. eigenvalues --   -0.48567  -0.44141  -0.40360  -0.38634  -0.37404
  Beta  occ. eigenvalues --   -0.36451  -0.34664  -0.34031  -0.33449  -0.31696
  Beta  occ. eigenvalues --   -0.30778  -0.30437  -0.30118  -0.29602  -0.29052
  Beta  occ. eigenvalues --   -0.28757  -0.28324  -0.26847  -0.26519  -0.25761
  Beta  occ. eigenvalues --   -0.23634  -0.23274  -0.22836  -0.21180  -0.16859
  Beta  occ. eigenvalues --   -0.16218  -0.15200  -0.13519  -0.13005  -0.11872
  Beta  occ. eigenvalues --   -0.10463
  Beta virt. eigenvalues --    0.06602   0.07952   0.08357   0.08933   0.09304
  Beta virt. eigenvalues --    0.09720   0.09934   0.10471   0.10750   0.11085
  Beta virt. eigenvalues --    0.11289   0.11665   0.12117   0.12230   0.12564

 Mulliken charges and spin densities:
               1          2
     1  C    0.862734  -1.432385
     2  C   -1.082597   1.328347
     3  C   -0.039679  -0.800263
     4  C    0.675288   0.056760
     5  C    1.249199   0.098233
     6  C   -0.480251  -0.479535
     7  C   -0.752416   1.047589
     8  C    0.199414  -0.762492
     9  C   -0.484935  -0.011234
    10  C   -0.939242  -0.065525
    11  N   -0.051602   0.165917
    12  C   -0.087566   0.318457
    13  C   -0.120430  -0.124779
    14  C   -0.131737   0.383412
    15  N   -0.018743   0.115461
    16  O   -0.167688   0.002649
    17  C   -0.773874  -0.014390
    18  H   -0.255042   0.402373
    19  H   -0.032270   0.176737
    20  H   -0.099134   0.245927
    21  H    0.120203  -0.045286
    22  H    0.150648  -0.043914
    23  H   -0.022346   0.164960
    24  H   -0.004278   0.147741
    25  H    0.028419   0.114927
    26  H    0.214421  -0.002205
    27  H    0.128337  -0.013544
    28  H    0.101373   0.013361
    29  H    0.119369  -0.018119
    30  H    0.247927  -0.000718
    31  H    0.173893  -0.007838
    32  H    0.077935   0.038583
    33  H    0.194670   0.000795
 Sum of Mulliken charges =  -1.00000   1.00000

 Dipole moment (field-independent basis, Debye):
    X=             -0.1303    Y=              0.8455    Z=             -0.2713  Tot=              0.8975
 Quadrupole moment (field-independent basis, Debye-Ang):
   XX=           -167.2461   YY=           -122.7882   ZZ=           -120.9204
   XY=              0.0616   XZ=             -5.5558   YZ=             -4.2492

 Summary of Natural Population Analysis:

                                       Natural Population
                Natural  -----------------------------------------------
    Atom  No    Charge         Core      Valence    Rydberg      Total
 -----------------------------------------------------------------------
      C    1   -0.29362      0.99964     2.28846    0.00551     3.29362
      C    2   -0.01815      0.99947     2.00992    0.00876     3.01815
      C    3   -0.09997      0.99948     2.09161    0.00888     3.09997
      C    4   -0.00809      0.99947     1.99951    0.00911     3.00809
      C    5   -0.01235      0.99944     2.00147    0.01144     3.01235
      C    6   -0.08584      0.99948     2.07655    0.00981     3.08584
      C    7   -0.02194      0.99947     2.01366    0.00882     3.02194
      C    8   -0.29322      0.99964     2.28810    0.00549     3.29322
      C    9    0.04509      0.99947     1.93985    0.01560     2.95491
      C   10    0.19992      0.99959     1.78290    0.01759     2.80008
      N   11   -0.21372      0.99967     2.70210    0.01195     3.71372
      C   12    0.10455      0.99961     1.88182    0.01402     2.89545
      C   13   -0.17601      0.99956     2.16890    0.00755     3.17601
      C   14    0.11327      0.99961     1.87303    0.01409     2.88673
      N   15   -0.25461      0.99964     2.74161    0.01336     3.75461
      O   16   -0.38110      0.99990     3.37536    0.00584     4.38110
      C   17   -0.29855      0.99964     2.29363    0.00529     3.29855
      H   18    0.10060      0.00000     0.39857    0.00083     0.39940
      H   19    0.10217      0.00000     0.39678    0.00104     0.39783
      H   20    0.10232      0.00000     0.39650    0.00118     0.39768
      H   21    0.09168      0.00000     0.40683    0.00149     0.40832
      H   22    0.09652      0.00000     0.40177    0.00171     0.40348
      H   23    0.10086      0.00000     0.39832    0.00082     0.39914
      H   24    0.10122      0.00000     0.39779    0.00099     0.39878
      H   25    0.10210      0.00000     0.39695    0.00095     0.39790
      H   26    0.08808      0.00000     0.41025    0.00168     0.41192
      H   27    0.07613      0.00000     0.42269    0.00118     0.42387
      H   28    0.09555      0.00000     0.40336    0.00110     0.40445
      H   29    0.07636      0.00000     0.42249    0.00114     0.42364
      H   30    0.24438      0.00000     0.25281    0.00281     0.25562
      H   31    0.11384      0.00000     0.38481    0.00135     0.38616
      H   32    0.09256      0.00000     0.40660    0.00084     0.40744
      H   33    0.10996      0.00000     0.38884    0.00119     0.39004
 =======================================================================
   * Total *    0.00000     16.99276    43.81385    0.19340    61.00000

 Normal termination of Gaussian 16 at Sun Dec 13 14:28:46 2020.
