 Gaussian 16, Revision A.03,

 -----------------------------------------------------------
 # opt freq B3LYP/6-31G(d) empiricaldispersion=gd3bj scf=xqc
 -----------------------------------------------------------

 ------------------------------
 CID_82471843_JID_6076_neutraal
 ------------------------------
 Symbolic Z-matrix:
 Charge =  0 Multiplicity = 1

 SCF Done:  E(RB3LYP) =  -705.834687781     A.U. after   14 cycles
 SCF Done:  E(RB3LYP) =  -705.841048638     A.U. after   13 cycles
 SCF Done:  E(RB3LYP) =  -705.841551042     A.U. after   12 cycles
 SCF Done:  E(RB3LYP) =  -705.842843972     A.U. after   12 cycles
 SCF Done:  E(RB3LYP) =  -705.843144081     A.U. after   11 cycles
 SCF Done:  E(RB3LYP) =  -705.843230686     A.U. after   11 cycles
 SCF Done:  E(RB3LYP) =  -705.843283083     A.U. after   11 cycles
 SCF Done:  E(RB3LYP) =  -705.843317366     A.U. after   10 cycles
 SCF Done:  E(RB3LYP) =  -705.843342145     A.U. after   10 cycles
 SCF Done:  E(RB3LYP) =  -705.843349086     A.U. after    9 cycles
 SCF Done:  E(RB3LYP) =  -705.843354894     A.U. after    9 cycles
 SCF Done:  E(RB3LYP) =  -705.843361622     A.U. after   10 cycles
 SCF Done:  E(RB3LYP) =  -705.843364042     A.U. after    9 cycles
 SCF Done:  E(RB3LYP) =  -705.843364568     A.U. after    8 cycles
 SCF Done:  E(RB3LYP) =  -705.843364686     A.U. after    7 cycles
 Optimization completed.
    -- Stationary point found.
 Normal termination of Gaussian 16 at Thu Dec 10 21:16:25 2020.

 --------------------------------------------------------------------
 #N Geom=AllCheck Guess=TCheck SCRF=Check GenChk RB3LYP/6-31G(d) Freq
 --------------------------------------------------------------------

 Structure from the checkpoint file:  "JID_6076.chk"
 ------------------------------
 CID_82471843_JID_6076_neutraal
 ------------------------------
 Charge =  0 Multiplicity = 1

 SCF Done:  E(RB3LYP) =  -705.843364686     A.U. after    1 cycles

  Exact polarizability: 214.315  -6.833 169.757  -1.301   5.207  80.519
 Approx polarizability: 323.595 -16.068 262.567  -0.606   9.712 123.420

                      1                      2                      3
                      A                      A                      A
 Frequencies --     27.9941                57.3778                67.2297
 Red. masses --      2.4984                 4.3747                 3.1613
 Frc consts  --      0.0012                 0.0085                 0.0084
 IR Inten    --      0.0825                 0.8529                 2.0786

                      4                      5                      6
                      A                      A                      A
 Frequencies --     89.8259               116.2765               134.2707
 Red. masses --      4.4843                 4.2202                 3.8684
 Frc consts  --      0.0213                 0.0336                 0.0411
 IR Inten    --      1.0666                 0.8654                 0.4897

                      7                      8                      9
                      A                      A                      A
 Frequencies --    199.3263               213.3973               232.0217
 Red. masses --      1.8499                 2.8876                 2.3736
 Frc consts  --      0.0433                 0.0775                 0.0753
 IR Inten    --      0.6371                 0.2832                 1.4602

                     10                     11                     12
                      A                      A                      A
 Frequencies --    262.1528               271.8570               291.0715
 Red. masses --      2.1962                 1.6942                 2.4236
 Frc consts  --      0.0889                 0.0738                 0.1210
 IR Inten    --      1.3520                 0.7185                 1.1587

                     13                     14                     15
                      A                      A                      A
 Frequencies --    335.5737               341.6996               366.6245
 Red. masses --      4.0969                 3.1006                 2.1393
 Frc consts  --      0.2718                 0.2133                 0.1694
 IR Inten    --      3.7605                15.6832                19.3114

                     16                     17                     18
                      A                      A                      A
 Frequencies --    380.4163               415.8819               452.8550
 Red. masses --      1.4173                 4.1882                 3.2678
 Frc consts  --      0.1208                 0.4268                 0.3948
 IR Inten    --     16.2540                 4.1599                 8.3283

                     19                     20                     21
                      A                      A                      A
 Frequencies --    463.5495               484.7930               517.7456
 Red. masses --      1.5611                 3.2516                 3.5246
 Frc consts  --      0.1976                 0.4503                 0.5567
 IR Inten    --     86.7654                 4.4463                 7.7968

                     22                     23                     24
                      A                      A                      A
 Frequencies --    583.3823               628.7652               665.8637
 Red. masses --      3.7224                 3.3181                 2.6616
 Frc consts  --      0.7464                 0.7729                 0.6953
 IR Inten    --      8.7193                12.2450                11.0107

                     25                     26                     27
                      A                      A                      A
 Frequencies --    684.2621               699.4584               730.9868
 Red. masses --      5.6994                 3.2596                 6.1210
 Frc consts  --      1.5723                 0.9396                 1.9270
 IR Inten    --     18.4249                53.7809                 2.0588

                     28                     29                     30
                      A                      A                      A
 Frequencies --    742.4463               752.3619               778.8681
 Red. masses --      4.3925                 3.9423                 1.4131
 Frc consts  --      1.4266                 1.3148                 0.5051
 IR Inten    --      7.3359                22.2263                19.7926

                     31                     32                     33
                      A                      A                      A
 Frequencies --    795.7709               800.6643               821.0827
 Red. masses --      1.7181                 1.1927                 1.4696
 Frc consts  --      0.6410                 0.4505                 0.5837
 IR Inten    --    213.4369                 3.3917                38.7960

                     34                     35                     36
                      A                      A                      A
 Frequencies --    875.6046               907.7159               923.4890
 Red. masses --      4.0306                 1.4331                 1.3022
 Frc consts  --      1.8207                 0.6957                 0.6543
 IR Inten    --      6.6356                 7.8046                 0.6646

                     37                     38                     39
                      A                      A                      A
 Frequencies --    963.1882               986.4655              1048.2725
 Red. masses --      6.8116                 2.5425                 2.8255
 Frc consts  --      3.7232                 1.4577                 1.8293
 IR Inten    --      3.2546                 1.9860                 2.8372

                     40                     41                     42
                      A                      A                      A
 Frequencies --   1071.4315              1092.0321              1094.6229
 Red. masses --      4.3296                 1.6447                 1.9221
 Frc consts  --      2.9284                 1.1556                 1.3570
 IR Inten    --     43.4015                 4.3027                23.2935

                     43                     44                     45
                      A                      A                      A
 Frequencies --   1102.4540              1146.7747              1183.6861
 Red. masses --      2.0159                 1.5857                 1.3801
 Frc consts  --      1.4436                 1.2287                 1.1393
 IR Inten    --     16.3305                51.5013                 6.4685

                     46                     47                     48
                      A                      A                      A
 Frequencies --   1187.1963              1206.2850              1217.9276
 Red. masses --      1.2879                 2.3783                 1.5472
 Frc consts  --      1.0695                 2.0390                 1.3522
 IR Inten    --      1.9946                22.0975                15.0407

                     49                     50                     51
                      A                      A                      A
 Frequencies --   1234.8588              1277.8036              1290.3481
 Red. masses --      1.9782                 2.9708                 1.3790
 Frc consts  --      1.7773                 2.8579                 1.3528
 IR Inten    --      0.7783               139.9501                13.8133

                     52                     53                     54
                      A                      A                      A
 Frequencies --   1309.2575              1334.4353              1351.8703
 Red. masses --      1.9819                 1.7261                 2.6092
 Frc consts  --      2.0017                 1.8109                 2.8095
 IR Inten    --     52.3655                13.2093                11.3642

                     55                     56                     57
                      A                      A                      A
 Frequencies --   1362.9045              1376.4241              1420.3256
 Red. masses --      3.9573                 1.6649                 3.2251
 Frc consts  --      4.3309                 1.8584                 3.8333
 IR Inten    --      9.4391                16.9466                46.3835

                     58                     59                     60
                      A                      A                      A
 Frequencies --   1434.4825              1457.5010              1498.3048
 Red. masses --      1.2293                 2.9859                 1.2803
 Frc consts  --      1.4903                 3.7371                 1.6934
 IR Inten    --      1.8056                32.2873                14.6331

                     61                     62                     63
                      A                      A                      A
 Frequencies --   1515.7958              1517.7646              1520.0978
 Red. masses --      3.0443                 1.1426                 1.0529
 Frc consts  --      4.1212                 1.5508                 1.4335
 IR Inten    --     28.6431                 4.8627                 7.1503

                     64                     65                     66
                      A                      A                      A
 Frequencies --   1525.5824              1529.5495              1537.2184
 Red. masses --      1.0463                 2.8965                 1.1397
 Frc consts  --      1.4348                 3.9926                 1.5867
 IR Inten    --      6.9459                23.1379                20.6056

                     67                     68                     69
                      A                      A                      A
 Frequencies --   1538.4806              1559.3630              1627.7014
 Red. masses --      1.0820                 2.5562                 3.1965
 Frc consts  --      1.5088                 3.6622                 4.9897
 IR Inten    --     13.1811                65.1544               137.6596

                     70                     71                     72
                      A                      A                      A
 Frequencies --   1637.6990              1659.0584              1678.4051
 Red. masses --      5.8485                 5.5714                 1.5473
 Frc consts  --      9.2420                 9.0353                 2.5681
 IR Inten    --      1.6769                31.8968               155.5247

                     73                     74                     75
                      A                      A                      A
 Frequencies --   3031.3322              3044.3655              3046.6142
 Red. masses --      1.0339                 1.0595                 1.0351
 Frc consts  --      5.5977                 5.7857                 5.6608
 IR Inten    --     60.9306                33.8320                36.7991

                     76                     77                     78
                      A                      A                      A
 Frequencies --   3078.5057              3093.4026              3116.3011
 Red. masses --      1.1035                 1.1066                 1.1028
 Frc consts  --      6.1616                 6.2390                 6.3099
 IR Inten    --      8.5405                36.7402                57.2453

                     79                     80                     81
                      A                      A                      A
 Frequencies --   3120.6541              3157.1240              3173.4679
 Red. masses --      1.1034                 1.1009                 1.0890
 Frc consts  --      6.3308                 6.4654                 6.4615
 IR Inten    --     35.4012                20.6342                15.1327

                     82                     83                     84
                      A                      A                      A
 Frequencies --   3183.7823              3227.8235              3265.6377
 Red. masses --      1.0892                 1.0910                 1.0966
 Frc consts  --      6.5048                 6.6973                 6.8902
 IR Inten    --     12.7566                14.7355                 4.0624

                     85                     86                     87
                      A                      A                      A
 Frequencies --   3526.0030              3634.2669              3653.2045
 Red. masses --      1.0469                 1.0973                 1.0805
 Frc consts  --      7.6687                 8.5393                 8.4963
 IR Inten    --     17.0487                41.4066                34.7659

 - Thermochemistry -
 -------------------
 Temperature   298.150 Kelvin.  Pressure   1.00000 Atm.
 Atom     1 has atomic number  6 and mass  12.00000

 Molecular mass:   217.12151 amu.
 Principal axes and moments of inertia in atomic units:
                           1         2         3
     Eigenvalues --  2406.299134647.505016623.63501
           X            0.99908   0.04288   0.00168
           Y           -0.04288   0.99908   0.00024
           Z           -0.00167  -0.00031   1.00000
 This molecule is an asymmetric top.
 Rotational symmetry number  1.
 Warning -- assumption of classical behavior for rotation
           may cause significant error
 Rotational temperatures (Kelvin)      0.03599     0.01864     0.01308
 Rotational constants (GHZ):           0.75001     0.38832     0.27247
 Zero-point vibrational energy     681636.5 (Joules/Mol)
                                  162.91502 (Kcal/Mol)
 Warning -- explicit consideration of  22 degrees of freedom as
           vibrations may cause significant error
 Vibrational temperatures:     40.28    82.55    96.73   129.24   167.30
          (Kelvin)            193.19   286.79   307.03   333.83   377.18
                              391.14   418.79   482.82   491.63   527.49
                              547.33   598.36   651.56   666.94   697.51
                              744.92   839.36   904.65   958.03   984.50
                             1006.36  1051.73  1068.21  1082.48  1120.62
                             1144.94  1151.98  1181.35  1259.80  1306.00
                             1328.69  1385.81  1419.30  1508.23  1541.55
                             1571.19  1574.92  1586.19  1649.95  1703.06
                             1708.11  1735.58  1752.33  1776.69  1838.47
                             1856.52  1883.73  1919.95  1945.04  1960.92
                             1980.37  2043.53  2063.90  2097.02  2155.73
                             2180.89  2183.72  2187.08  2194.97  2200.68
                             2211.71  2213.53  2243.58  2341.90  2356.28
                             2387.02  2414.85  4361.41  4380.16  4383.40
                             4429.28  4450.72  4483.66  4489.93  4542.40
                             4565.91  4580.75  4644.12  4698.52  5073.13
                             5228.90  5256.15

 Zero-point correction=                           0.259622 (Hartree/Particle)
 Thermal correction to Energy=                    0.274629
 Thermal correction to Enthalpy=                  0.275574
 Thermal correction to Gibbs Free Energy=         0.217023
 Sum of electronic and zero-point Energies=           -705.583743
 Sum of electronic and thermal Energies=              -705.568735
 Sum of electronic and thermal Enthalpies=            -705.567791
 Sum of electronic and thermal Free Energies=         -705.626342

                     E (Thermal)             CV                S
                      KCal/Mol        Cal/Mol-Kelvin    Cal/Mol-Kelvin
 Total                  172.332             57.719            123.230
 Electronic               0.000              0.000              0.000
 Translational            0.889              2.981             42.029
 Rotational               0.889              2.981             32.671
 Vibrational            170.555             51.758             48.529
 Vibration     1          0.593              1.984              5.967
 Vibration     2          0.596              1.975              4.545
 Vibration     3          0.598              1.970              4.233
 Vibration     4          0.602              1.956              3.664
 Vibration     5          0.608              1.936              3.161
 Vibration     6          0.613              1.919              2.884
 Vibration     7          0.637              1.841              2.139
 Vibration     8          0.644              1.821              2.014
 Vibration     9          0.653              1.792              1.863
 Vibration    10          0.669              1.742              1.647
 Vibration    11          0.675              1.725              1.584
 Vibration    12          0.687              1.690              1.468
 Vibration    13          0.717              1.604              1.233
 Vibration    14          0.721              1.592              1.204
 Vibration    15          0.740              1.541              1.094
 Vibration    16          0.750              1.512              1.038
 Vibration    17          0.779              1.436              0.906
 Vibration    18          0.811              1.355              0.787
 Vibration    19          0.821              1.331              0.756
 Vibration    20          0.841              1.284              0.697
 Vibration    21          0.873              1.211              0.615
 Vibration    22          0.940              1.067              0.479

                           ! Non-Optimized Parameters !
 Normal termination of Gaussian 16 at Thu Dec 10 21:26:34 2020.

 ----------------------------------------------------------------------
 # B3LYP/6-311++G(d,p) empiricaldispersion=gd3bj scf=xqc pop=npa geom=c
 heck
 ----------------------------------------------------------------------

 --------------------------------------
 CID_82471843_JID_6076_Energie_neutraal
 --------------------------------------
 Structure from the checkpoint file:  "JID_6076.chk"
 Charge =  0 Multiplicity = 1

 SCF Done:  E(RB3LYP) =  -706.041394526     A.U. after   15 cycles
 Normal termination of Gaussian 16 at Thu Dec 10 21:30:37 2020.

 ----------------------------------------------------------------------
 # B3LYP/6-311++G(d,p) empiricaldispersion=gd3bj scf=xqc pop=npa geom=c
 heck
 ----------------------------------------------------------------------

 ------------------------------------
 CID_82471843_JID_6076_Energie_kation
 ------------------------------------
 Structure from the checkpoint file:  "JID_6076.chk"
 Charge =  1 Multiplicity = 2

 SCF Done:  E(UB3LYP) =  -705.794123563     A.U. after   22 cycles
 Normal termination of Gaussian 16 at Thu Dec 10 21:39:04 2020.
 Gaussian 16:  ES64L-G16RevA.03 25-Dec-2016

 ----------------------------------------------------------------------
 # B3LYP/6-311++G(d,p) empiricaldispersion=gd3bj scf=xqc pop=npa geom=c
 heck
 ----------------------------------------------------------------------

 -----------------------------------
 CID_82471843_JID_6076_Energie_anion
 -----------------------------------
 Structure from the checkpoint file:  "JID_6076.chk"
 Charge = -1 Multiplicity = 2

                         Standard orientation:
 ---------------------------------------------------------------------
 Center     Atomic      Atomic             Coordinates (Angstroms)
 Number     Number       Type             X           Y           Z
 ---------------------------------------------------------------------
      1          6           0       -4.279582   -1.532493   -0.656202
      2          6           0       -3.681997   -1.006367    0.658899
      3          6           0       -2.437200   -0.179036    0.433792
      4          6           0       -1.184021   -0.788453    0.332104
      5          6           0       -0.001806   -0.073738    0.076267
      6          6           0       -0.114359    1.328526   -0.082459
      7          6           0       -1.353089    1.957116    0.038772
      8          6           0       -2.503744    1.207291    0.289460
      9          8           0        1.045625    2.003646   -0.379013
     10          6           0        0.957719    3.387185   -0.680031
     11          6           0        1.265421   -0.779607   -0.047322
     12          6           0        2.578119   -0.527010    0.347284
     13          7           0        3.391905   -1.600588    0.066877
     14          6           0        2.607431   -2.507795   -0.483762
     15          7           0        1.321313   -2.084099   -0.557509
     16          7           0        3.085464    0.566522    1.035154
     17          1           0       -4.547598   -0.703038   -1.319995
     18          1           0       -5.179916   -2.129832   -0.472368
     19          1           0       -3.555792   -2.160466   -1.188107
     20          1           0       -4.433990   -0.404036    1.183202
     21          1           0       -3.448707   -1.854117    1.315323
     22          1           0       -1.110292   -1.861775    0.492249
     23          1           0       -1.436415    3.031710   -0.071375
     24          1           0       -3.460721    1.715425    0.377133
     25          1           0        0.281416    3.566564   -1.524993
     26          1           0        0.617135    3.969246    0.185957
     27          1           0        1.968211    3.698663   -0.950574
     28          1           0        2.924674   -3.476683   -0.844803
     29          1           0        0.563773   -2.541392   -1.042542
     30          1           0        2.648368    1.436293    0.749620
     31          1           0        4.096733    0.597708    0.970913
 ---------------------------------------------------------------------

 SCF Done:  E(UB3LYP) =  -706.031547138     A.U. after   33 cycles
 SCF Done:  E(UB3LYP) =  -706.031547138     a.u. after    1 cycles

 The electronic state is 2-A.
 Alpha  occ. eigenvalues --  -19.06771 -14.26613 -14.21170 -14.19764 -10.14228
 Alpha  occ. eigenvalues --  -10.13368 -10.13127 -10.12497 -10.10189 -10.09596
 Alpha  occ. eigenvalues --  -10.08227 -10.08033 -10.08018 -10.07871 -10.07787
 Alpha  occ. eigenvalues --  -10.06736  -0.98192  -0.92087  -0.81670  -0.77310
 Alpha  occ. eigenvalues --   -0.75790  -0.70133  -0.67509  -0.64576  -0.62621
 Alpha  occ. eigenvalues --   -0.60076  -0.53895  -0.53460  -0.51624  -0.50033
 Alpha  occ. eigenvalues --   -0.47454  -0.45559  -0.43655  -0.41846  -0.39572
 Alpha  occ. eigenvalues --   -0.38197  -0.37503  -0.35853  -0.35471  -0.34876
 Alpha  occ. eigenvalues --   -0.34230  -0.33211  -0.32664  -0.32194  -0.31138
 Alpha  occ. eigenvalues --   -0.29382  -0.28037  -0.27618  -0.25238  -0.24921
 Alpha  occ. eigenvalues --   -0.24296  -0.23423  -0.22657  -0.19292  -0.18324
 Alpha  occ. eigenvalues --   -0.15845  -0.13398  -0.09217   0.03861
 Alpha virt. eigenvalues --    0.05374   0.06310   0.06620   0.07530   0.08088
 Alpha virt. eigenvalues --    0.08572   0.08924   0.09292   0.09603   0.10019
 Alpha virt. eigenvalues --    0.10870   0.11387   0.11748   0.12270   0.12608

  Beta  occ. eigenvalues --  -19.06763 -14.26579 -14.21165 -14.19766 -10.14225
  Beta  occ. eigenvalues --  -10.13319 -10.13113 -10.12492 -10.10190 -10.09590
  Beta  occ. eigenvalues --  -10.08229 -10.08021 -10.08006 -10.07856 -10.07767
  Beta  occ. eigenvalues --  -10.06705  -0.98170  -0.92062  -0.81650  -0.77292
  Beta  occ. eigenvalues --   -0.75765  -0.70108  -0.67480  -0.64532  -0.62590
  Beta  occ. eigenvalues --   -0.60025  -0.53854  -0.53402  -0.51570  -0.49998
  Beta  occ. eigenvalues --   -0.47422  -0.45522  -0.43618  -0.41817  -0.39551
  Beta  occ. eigenvalues --   -0.38163  -0.37470  -0.35823  -0.35439  -0.34841
  Beta  occ. eigenvalues --   -0.34197  -0.33189  -0.32637  -0.32156  -0.31111
  Beta  occ. eigenvalues --   -0.29343  -0.27999  -0.27582  -0.25209  -0.24892
  Beta  occ. eigenvalues --   -0.24270  -0.23399  -0.22624  -0.19275  -0.18309
  Beta  occ. eigenvalues --   -0.15820  -0.13377  -0.09195
  Beta virt. eigenvalues --    0.06105   0.06501   0.06707   0.07108   0.07974
  Beta virt. eigenvalues --    0.08432   0.08811   0.09315   0.09608   0.10029
  Beta virt. eigenvalues --    0.10620   0.11132   0.11537   0.11896   0.12450

 Mulliken charges and spin densities:
               1          2
     1  C    0.950344  -1.595433
     2  C   -0.719226   0.427008
     3  C    0.230414   0.549811
     4  C   -0.337148  -0.227627
     5  C    0.960372  -0.283930
     6  C   -0.252356  -0.270028
     7  C    0.371762  -0.251410
     8  C   -0.624570  -0.133336
     9  O   -0.213157   0.053003
    10  C    0.817113  -1.089289
    11  C    0.567623  -0.712430
    12  C   -0.045963  -0.361396
    13  N   -0.236272  -0.000138
    14  C    0.187615  -0.044452
    15  N   -0.157169   0.043057
    16  N   -0.343180   0.005573
    17  H   -0.045110   0.181201
    18  H   -0.191354   0.312005
    19  H   -0.296702   0.446918
    20  H   -0.113686   0.262067
    21  H   -0.039637   0.180670
    22  H    0.011029   0.176760
    23  H   -0.270534   0.451184
    24  H   -0.311988   0.471436
    25  H   -0.281775   0.433371
    26  H   -0.196214   0.359163
    27  H   -0.381233   0.549680
    28  H   -0.349911   0.526824
    29  H   -0.210143   0.529072
    30  H    0.301020  -0.016471
    31  H    0.220036   0.027134
 Sum of Mulliken charges =  -1.00000   1.00000

 Dipole moment (field-independent basis, Debye):
    X=              1.5457    Y=              0.3856    Z=              1.7690  Tot=              2.3806
 Quadrupole moment (field-independent basis, Debye-Ang):
   XX=           -161.4766   YY=           -160.4185   ZZ=           -127.4737
   XY=             -0.3373   XZ=             -4.0605   YZ=             -0.8794

 Summary of Natural Population Analysis:

                                       Natural Population
                Natural  -----------------------------------------------
    Atom  No    Charge         Core      Valence    Rydberg      Total
 -----------------------------------------------------------------------
      C    1   -0.27828      0.99966     2.27468    0.00394     3.27828
      C    2   -0.19388      0.99961     2.18664    0.00764     3.19388
      C    3   -0.02400      0.99950     2.01460    0.00990     3.02400
      C    4   -0.09115      0.99949     2.08209    0.00957     3.09115
      C    5   -0.04874      0.99947     2.03922    0.01004     3.04874
      C    6    0.16551      0.99936     1.82219    0.01295     2.83449
      C    7   -0.13630      0.99952     2.12780    0.00898     3.13630
      C    8   -0.09481      0.99952     2.08500    0.01030     3.09481
      O    9   -0.28327      0.99986     3.27312    0.01030     4.28327
      C   10   -0.10082      0.99960     2.09202    0.00920     3.10082
      C   11    0.01564      0.99946     1.97073    0.01416     2.98436
      C   12    0.16425      0.99950     1.82159    0.01466     2.83575
      N   13   -0.27670      0.99970     2.76726    0.00974     3.77670
      C   14    0.10844      0.99967     1.87324    0.01865     2.89156
      N   15   -0.26540      0.99967     2.75621    0.00952     3.76540
      N   16   -0.40459      0.99970     2.89526    0.00963     3.90459
      H   17    0.09673      0.00000     0.40194    0.00133     0.40327
      H   18    0.09558      0.00000     0.40311    0.00132     0.40442
      H   19    0.10001      0.00000     0.39822    0.00178     0.39999
      H   20    0.09737      0.00000     0.40134    0.00129     0.40263
      H   21    0.09843      0.00000     0.40030    0.00127     0.40157
      H   22    0.10065      0.00000     0.39790    0.00145     0.39935
      H   23    0.10705      0.00000     0.39142    0.00153     0.39295
      H   24    0.09983      0.00000     0.39902    0.00115     0.40017
      H   25    0.08928      0.00000     0.40885    0.00186     0.41072
      H   26    0.08534      0.00000     0.41296    0.00170     0.41466
      H   27    0.09418      0.00000     0.40459    0.00123     0.40582
      H   28    0.09224      0.00000     0.40635    0.00140     0.40776
      H   29    0.20915      0.00000     0.28484    0.00600     0.29085
      H   30    0.19483      0.00000     0.30278    0.00239     0.30517
      H   31    0.18344      0.00000     0.31461    0.00195     0.31656
 =======================================================================
   * Total *    0.00000     15.99330    41.80987    0.19683    58.00000

 Normal termination of Gaussian 16 at Thu Dec 10 21:52:38 2020.
