 Gaussian 16, Revision A.03,

 -----------------------------------------------------------
 # opt freq B3LYP/6-31G(d) empiricaldispersion=gd3bj scf=xqc
 -----------------------------------------------------------

 ------------------------------
 CID_45082992_JID_1781_neutraal
 ------------------------------
 Symbolic Z-matrix:
 Charge =  0 Multiplicity = 1

 SCF Done:  E(RB3LYP) =  -531.440499775     A.U. after   15 cycles
 SCF Done:  E(RB3LYP) =  -531.454009442     A.U. after   13 cycles
 SCF Done:  E(RB3LYP) =  -531.456234219     A.U. after   12 cycles
 SCF Done:  E(RB3LYP) =  -531.456923745     A.U. after   12 cycles
 SCF Done:  E(RB3LYP) =  -531.457117257     A.U. after   12 cycles
 SCF Done:  E(RB3LYP) =  -531.457150231     A.U. after   12 cycles
 SCF Done:  E(RB3LYP) =  -531.457379695     A.U. after   11 cycles
 SCF Done:  E(RB3LYP) =  -531.457458347     A.U. after   10 cycles
 SCF Done:  E(RB3LYP) =  -531.457499995     A.U. after   10 cycles
 SCF Done:  E(RB3LYP) =  -531.457527242     A.U. after   10 cycles
 SCF Done:  E(RB3LYP) =  -531.457763919     A.U. after    8 cycles
 SCF Done:  E(RB3LYP) =  -531.457764153     A.U. after    8 cycles
 SCF Done:  E(RB3LYP) =  -531.457764290     A.U. after    7 cycles
 SCF Done:  E(RB3LYP) =  -531.457764374     A.U. after    7 cycles
 SCF Done:  E(RB3LYP) =  -531.457764409     A.U. after    7 cycles
 Optimization completed.
    -- Stationary point found.
 Normal termination of Gaussian 16 at Tue Dec  8 21:07:58 2020.

 --------------------------------------------------------------------
 #N Geom=AllCheck Guess=TCheck SCRF=Check GenChk RB3LYP/6-31G(d) Freq
 --------------------------------------------------------------------

 Structure from the checkpoint file:  "JID_1781.chk"
 ------------------------------
 CID_45082992_JID_1781_neutraal
 ------------------------------
 Charge =  0 Multiplicity = 1

 SCF Done:  E(RB3LYP) =  -531.457764409     A.U. after    1 cycles

  Exact polarizability: 137.227   5.610 102.607   0.988   0.050  48.647
 Approx polarizability: 188.589  27.241 170.572   0.463  -1.909  72.510

                      1                      2                      3
                      A                      A                      A
 Frequencies --     42.1070               101.4039               109.4311
 Red. masses --      5.2298                 4.7227                 1.2407
 Frc consts  --      0.0055                 0.0286                 0.0088
 IR Inten    --      0.8734                 2.8714                 0.8562

                      4                      5                      6
                      A                      A                      A
 Frequencies --    120.8897               160.4299               182.6397
 Red. masses --      4.6091                 2.8859                 3.1718
 Frc consts  --      0.0397                 0.0438                 0.0623
 IR Inten    --      5.6492                 1.5488                 0.5561

                      7                      8                      9
                      A                      A                      A
 Frequencies --    241.1668               303.7257               375.8317
 Red. masses --      3.9210                 3.1041                 2.4099
 Frc consts  --      0.1344                 0.1687                 0.2006
 IR Inten    --      4.8266                 3.4425                34.1672

                     10                     11                     12
                      A                      A                      A
 Frequencies --    405.5998               438.4004               491.6175
 Red. masses --      1.7916                 6.9832                 6.0323
 Frc consts  --      0.1737                 0.7908                 0.8590
 IR Inten    --     34.9810                 2.8304                 0.0993

                     13                     14                     15
                      A                      A                      A
 Frequencies --    541.6188               564.7386               589.1744
 Red. masses --      4.4354                 6.4732                 5.1257
 Frc consts  --      0.7666                 1.2164                 1.0483
 IR Inten    --     22.1243                 2.6948                 1.4853

                     16                     17                     18
                      A                      A                      A
 Frequencies --    608.8947               723.7347               791.2657
 Red. masses --      5.6860                 2.6165                 2.1801
 Frc consts  --      1.2421                 0.8075                 0.8042
 IR Inten    --     20.5559                 2.1787                53.1318

                     19                     20                     21
                      A                      A                      A
 Frequencies --    798.2402               868.4516               921.8253
 Red. masses --      3.6551                 5.6253                 1.6477
 Frc consts  --      1.3722                 2.4997                 0.8249
 IR Inten    --     40.1481                12.2983                42.3791

                     22                     23                     24
                      A                      A                      A
 Frequencies --    958.1429               991.9816              1012.2614
 Red. masses --      2.0950                 1.7074                 2.0876
 Frc consts  --      1.1332                 0.9899                 1.2603
 IR Inten    --     33.8839                51.5828                13.6138

                     25                     26                     27
                      A                      A                      A
 Frequencies --   1047.1665              1051.9718              1076.7302
 Red. masses --      1.7399                 2.8643                 1.5251
 Frc consts  --      1.1241                 1.8676                 1.0418
 IR Inten    --      8.2776               110.0800                 4.1536

                     28                     29                     30
                      A                      A                      A
 Frequencies --   1109.4476              1157.9990              1198.2766
 Red. masses --      1.3315                 5.0854                 1.3729
 Frc consts  --      0.9656                 4.0178                 1.1615
 IR Inten    --     50.9168                74.9814                 6.5641

                     31                     32                     33
                      A                      A                      A
 Frequencies --   1217.7587              1241.9154              1263.5195
 Red. masses --      1.5953                 2.2594                 1.6382
 Frc consts  --      1.3938                 2.0532                 1.5410
 IR Inten    --     41.0423                40.7614                26.1274

                     34                     35                     36
                      A                      A                      A
 Frequencies --   1330.6425              1394.8137              1443.1351
 Red. masses --      4.7691                 1.7595                 1.3002
 Frc consts  --      4.9752                 2.0169                 1.5954
 IR Inten    --     81.2514                10.3649                 3.3858

                     37                     38                     39
                      A                      A                      A
 Frequencies --   1506.9172              1507.6834              1525.6247
 Red. masses --      1.1429                 1.0429                 1.1587
 Frc consts  --      1.5291                 1.3967                 1.5890
 IR Inten    --    106.7144                 9.9874                16.4930

                     40                     41                     42
                      A                      A                      A
 Frequencies --   1580.6567              1686.2632              1848.7549
 Red. masses --      2.6558                 5.7222                12.2718
 Frc consts  --      3.9096                 9.5866                24.7124
 IR Inten    --    393.1860               196.6610               591.3455

                     43                     44                     45
                      A                      A                      A
 Frequencies --   1916.7055              3050.4705              3103.5381
 Red. masses --     10.6464                 1.0396                 1.1010
 Frc consts  --     23.0444                 5.6999                 6.2481
 IR Inten    --    149.4506                15.1899                11.3101

                     46                     47                     48
                      A                      A                      A
 Frequencies --   3115.8550              3164.6632              3197.8799
 Red. masses --      1.0524                 1.0990                 1.1183
 Frc consts  --      6.0197                 6.4846                 6.7380
 IR Inten    --     40.7687                 8.1507                15.2279

                     49                     50                     51
                      A                      A                      A
 Frequencies --   3264.5103              3388.9838              3631.5080
 Red. masses --      1.0928                 1.0758                 1.0779
 Frc consts  --      6.8613                 7.2801                 8.3751
 IR Inten    --      0.1637                15.7944                58.2511

 - Thermochemistry -
 -------------------
 Temperature   298.150 Kelvin.  Pressure   1.00000 Atm.
 Atom     1 has atomic number  6 and mass  12.00000

 Molecular mass:   152.05858 amu.
 Principal axes and moments of inertia in atomic units:
                           1         2         3
     Eigenvalues --  1065.398132142.643373167.12819
           X            0.99796  -0.06373   0.00340
           Y            0.06373   0.99797   0.00204
           Z           -0.00352  -0.00182   0.99999
 This molecule is an asymmetric top.
 Rotational symmetry number  1.
 Warning -- assumption of classical behavior for rotation
           may cause significant error
 Rotational temperatures (Kelvin)      0.08130     0.04042     0.02735
 Rotational constants (GHZ):           1.69396     0.84230     0.56984
 Zero-point vibrational energy     384999.9 (Joules/Mol)
                                   92.01720 (Kcal/Mol)
 Warning -- explicit consideration of  16 degrees of freedom as
           vibrations may cause significant error
 Vibrational temperatures:     60.58   145.90   157.45   173.93   230.82
          (Kelvin)            262.78   346.99   436.99   540.74   583.57
                              630.76   707.33   779.27   812.53   847.69
                              876.06  1041.29  1138.45  1148.49  1249.51
                             1326.30  1378.55  1427.24  1456.42  1506.64
                             1513.55  1549.17  1596.25  1666.10  1724.05
                             1752.08  1786.84  1817.92  1914.50  2006.83
                             2076.35  2168.12  2169.22  2195.03  2274.21
                             2426.16  2659.95  2757.71  4388.95  4465.30
                             4483.02  4553.24  4601.04  4696.90  4875.99
                             5224.93

 Zero-point correction=                           0.146639 (Hartree/Particle)
 Thermal correction to Energy=                    0.157161
 Thermal correction to Enthalpy=                  0.158105
 Thermal correction to Gibbs Free Energy=         0.109797
 Sum of electronic and zero-point Energies=           -531.311126
 Sum of electronic and thermal Energies=              -531.300604
 Sum of electronic and thermal Enthalpies=            -531.299659
 Sum of electronic and thermal Free Energies=         -531.347967

                     E (Thermal)             CV                S
                      KCal/Mol        Cal/Mol-Kelvin    Cal/Mol-Kelvin
 Total                   98.620             38.108            101.673
 Electronic               0.000              0.000              0.000
 Translational            0.889              2.981             40.967
 Rotational               0.889              2.981             30.359
 Vibrational             96.843             32.147             30.346
 Vibration     1          0.595              1.980              5.157
 Vibration     2          0.604              1.948              3.427
 Vibration     3          0.606              1.942              3.279
 Vibration     4          0.609              1.932              3.086
 Vibration     5          0.622              1.891              2.545
 Vibration     6          0.630              1.863              2.301
 Vibration     7          0.658              1.777              1.794
 Vibration     8          0.695              1.667              1.396
 Vibration     9          0.747              1.522              1.056
 Vibration    10          0.771              1.458              0.942
 Vibration    11          0.799              1.386              0.832
 Vibration    12          0.847              1.269              0.679
 Vibration    13          0.897              1.158              0.562
 Vibration    14          0.921              1.108              0.514
 Vibration    15          0.946              1.055              0.469
 Vibration    16          0.968              1.013              0.435

 Optimization completed.
    -- Stationary point found.
 Normal termination of Gaussian 16 at Tue Dec  8 21:11:16 2020.

 ----------------------------------------------------------------------
 # B3LYP/6-311++G(d,p) empiricaldispersion=gd3bj scf=xqc pop=npa geom=c
 heck
 ----------------------------------------------------------------------

 --------------------------------------
 CID_45082992_JID_1781_Energie_neutraal
 --------------------------------------
 Structure from the checkpoint file:  "JID_1781.chk"
 Charge =  0 Multiplicity = 1

 SCF Done:  E(RB3LYP) =  -531.614400844     A.U. after   15 cycles
 Normal termination of Gaussian 16 at Tue Dec  8 21:12:46 2020.

 ----------------------------------------------------------------------
 # B3LYP/6-311++G(d,p) empiricaldispersion=gd3bj scf=xqc pop=npa geom=c
 heck
 ----------------------------------------------------------------------

 ------------------------------------
 CID_45082992_JID_1781_Energie_kation
 ------------------------------------
 Structure from the checkpoint file:  "JID_1781.chk"
 Charge =  1 Multiplicity = 2

 SCF Done:  E(UB3LYP) =  -531.336278438     A.U. after   22 cycles
 Normal termination of Gaussian 16 at Tue Dec  8 21:17:13 2020.
 Gaussian 16:  ES64L-G16RevA.03 25-Dec-2016

 ----------------------------------------------------------------------
 # B3LYP/6-311++G(d,p) empiricaldispersion=gd3bj scf=xqc pop=npa geom=c
 heck
 ----------------------------------------------------------------------

 -----------------------------------
 CID_45082992_JID_1781_Energie_anion
 -----------------------------------
 Structure from the checkpoint file:  "JID_1781.chk"
 Charge = -1 Multiplicity = 2

                         Standard orientation:
 ---------------------------------------------------------------------
 Center     Atomic      Atomic             Coordinates (Angstroms)
 Number     Number       Type             X           Y           Z
 ---------------------------------------------------------------------
      1          6           0        2.202441   -2.336423   -0.004245
      2          6           0        1.484052   -1.020516   -0.006694
      3          6           0        2.099251    0.184121   -0.145242
      4          6           0        1.353991    1.419897   -0.029829
      5          8           0        1.796391    2.541268   -0.064753
      6          8           0       -0.029857    1.287058    0.196816
      7          6           0       -0.671510    0.080222    0.089416
      8          6           0       -1.986834    0.006290   -0.057872
      9          6           0       -3.337729    0.501282   -0.016411
     10          7           0       -3.018278   -0.979199   -0.015553
     11          7           0        0.128628   -1.069793    0.146165
     12          1           0        2.029165   -2.870254    0.938342
     13          1           0        3.277067   -2.187689   -0.122374
     14          1           0        1.846862   -2.977699   -0.819998
     15          1           0        3.168482    0.261439   -0.282334
     16          1           0       -3.769376    0.864044    0.914532
     17          1           0       -3.775499    0.928905   -0.918568
     18          1           0       -3.195779   -1.363471   -0.949358
     19          1           0       -0.347622   -1.948175    0.294234
 ---------------------------------------------------------------------

 SCF Done:  E(UB3LYP) =  -531.611268568     A.U. after   33 cycles
 SCF Done:  E(UB3LYP) =  -531.611268568     a.u. after    1 cycles

 The electronic state is 2-A.
 Alpha  occ. eigenvalues --  -19.05289 -18.97570 -14.24634 -14.21773 -10.17123
 Alpha  occ. eigenvalues --  -10.16225 -10.11523 -10.10951 -10.08313 -10.07082
 Alpha  occ. eigenvalues --  -10.04571  -0.98987  -0.90922  -0.86228  -0.84655
 Alpha  occ. eigenvalues --   -0.69765  -0.62133  -0.61113  -0.55816  -0.52440
 Alpha  occ. eigenvalues --   -0.48622  -0.45655  -0.43266  -0.42200  -0.37028
 Alpha  occ. eigenvalues --   -0.35355  -0.33230  -0.32282  -0.31933  -0.30932
 Alpha  occ. eigenvalues --   -0.29197  -0.26741  -0.26212  -0.25722  -0.24711
 Alpha  occ. eigenvalues --   -0.22428  -0.18471  -0.15810  -0.14014  -0.08256
 Alpha  occ. eigenvalues --    0.04374
 Alpha virt. eigenvalues --    0.06970   0.07227   0.08943   0.09827   0.10468
 Alpha virt. eigenvalues --    0.10908   0.11363   0.13295   0.13692   0.13895
 Alpha virt. eigenvalues --    0.14853   0.15364   0.16178   0.17090   0.17510

  Beta  occ. eigenvalues --  -19.05253 -18.97456 -14.24607 -14.21726 -10.17025
  Beta  occ. eigenvalues --  -10.16223 -10.11259 -10.10943 -10.08289 -10.07053
  Beta  occ. eigenvalues --  -10.04582  -0.98884  -0.90744  -0.86150  -0.84496
  Beta  occ. eigenvalues --   -0.69520  -0.61995  -0.61031  -0.55723  -0.52228
  Beta  occ. eigenvalues --   -0.48488  -0.45563  -0.43133  -0.42052  -0.36949
  Beta  occ. eigenvalues --   -0.35014  -0.33103  -0.31958  -0.31748  -0.30838
  Beta  occ. eigenvalues --   -0.29091  -0.26380  -0.26135  -0.25664  -0.24607
  Beta  occ. eigenvalues --   -0.22025  -0.18349  -0.15697  -0.13508  -0.08110
  Beta virt. eigenvalues --    0.07316   0.07861   0.08544   0.09547   0.10148
  Beta virt. eigenvalues --    0.10734   0.11413   0.12083   0.13604   0.13932
  Beta virt. eigenvalues --    0.14016   0.15092   0.15611   0.16134   0.17034

 Mulliken charges and spin densities:
               1          2
     1  C    2.188020  -2.916260
     2  C   -0.530094   1.127742
     3  C   -0.086531  -0.139457
     4  C    0.433406  -0.245806
     5  O   -0.380670   0.037494
     6  O   -0.192774   0.006604
     7  C   -0.700803   0.689157
     8  C    0.383849  -0.352329
     9  C   -0.039623  -0.393068
    10  N   -0.325320   0.098982
    11  N   -0.337408   0.142254
    12  H   -0.039783   0.185203
    13  H   -0.231299   0.386669
    14  H   -0.793837   0.989729
    15  H    0.008853   0.163875
    16  H    0.154920  -0.011069
    17  H   -0.105517   0.240704
    18  H   -0.329737   0.604453
    19  H   -0.075654   0.385125
 Sum of Mulliken charges =  -1.00000   1.00000

 Dipole moment (field-independent basis, Debye):
    X=             -0.7648    Y=              2.7747    Z=              3.2119  Tot=              4.3128
 Quadrupole moment (field-independent basis, Debye-Ang):
   XX=           -104.5744   YY=           -118.0089   ZZ=            -83.8644
   XY=             -9.4191   XZ=             -0.3839   YZ=             -9.2627

 Summary of Natural Population Analysis:

                                       Natural Population
                Natural  -----------------------------------------------
    Atom  No    Charge         Core      Valence    Rydberg      Total
 -----------------------------------------------------------------------
      C    1   -0.30456      0.99963     2.29903    0.00590     3.30456
      C    2    0.17777      0.99953     1.81124    0.01147     2.82223
      C    3   -0.23234      0.99945     2.22267    0.01022     3.23234
      C    4    0.39828      0.99961     1.57764    0.02448     2.60172
      O    5   -0.29439      0.99987     3.28841    0.00612     4.29439
      O    6   -0.27105      0.99984     3.26476    0.00645     4.27105
      C    7    0.22833      0.99932     1.75615    0.01620     2.77167
      C    8    0.00069      0.99949     1.98428    0.01554     2.99931
      C    9   -0.10161      0.99963     2.09265    0.00933     3.10161
      N   10   -0.31221      0.99977     2.79911    0.01333     3.81221
      N   11   -0.29791      0.99963     2.78816    0.01012     3.79791
      H   12    0.10510      0.00000     0.39380    0.00110     0.39490
      H   13    0.10673      0.00000     0.39237    0.00090     0.39327
      H   14    0.11876      0.00000     0.37019    0.01106     0.38124
      H   15    0.10916      0.00000     0.38993    0.00091     0.39084
      H   16    0.09165      0.00000     0.40727    0.00108     0.40835
      H   17    0.09311      0.00000     0.40560    0.00129     0.40689
      H   18    0.17823      0.00000     0.31363    0.00814     0.32177
      H   19    0.20629      0.00000     0.29075    0.00296     0.29371
 =======================================================================
   * Total *    0.00000     10.99576    28.84763    0.15661    40.00000

 Normal termination of Gaussian 16 at Tue Dec  8 21:22:58 2020.
