 Gaussian 16, Revision A.03,

 -----------------------------------------------------------
 # opt freq B3LYP/6-31G(d) empiricaldispersion=gd3bj scf=xqc
 -----------------------------------------------------------

 -------------------------------
 CID_130993329_JID_2941_neutraal
 -------------------------------
 Symbolic Z-matrix:
 Charge =  0 Multiplicity = 1

 SCF Done:  E(RB3LYP) =  -875.136398307     A.U. after   15 cycles
 SCF Done:  E(RB3LYP) =  -875.141362062     A.U. after   12 cycles
 SCF Done:  E(RB3LYP) =  -875.142091779     A.U. after   12 cycles
 SCF Done:  E(RB3LYP) =  -875.142291147     A.U. after   12 cycles
 SCF Done:  E(RB3LYP) =  -875.142345074     A.U. after   11 cycles
 SCF Done:  E(RB3LYP) =  -875.142364548     A.U. after   10 cycles
 SCF Done:  E(RB3LYP) =  -875.142367637     A.U. after    9 cycles
 SCF Done:  E(RB3LYP) =  -875.142368783     A.U. after    8 cycles
 SCF Done:  E(RB3LYP) =  -875.142369385     A.U. after    8 cycles
 SCF Done:  E(RB3LYP) =  -875.142369557     A.U. after    8 cycles
 SCF Done:  E(RB3LYP) =  -875.142369594     A.U. after    7 cycles
 Optimization completed.
    -- Stationary point found.
 Normal termination of Gaussian 16 at Wed Dec  9 18:16:33 2020.

 --------------------------------------------------------------------
 #N Geom=AllCheck Guess=TCheck SCRF=Check GenChk RB3LYP/6-31G(d) Freq
 --------------------------------------------------------------------

 Structure from the checkpoint file:  "JID_2941.chk"
 -------------------------------
 CID_130993329_JID_2941_neutraal
 -------------------------------
 Charge =  0 Multiplicity = 1

 SCF Done:  E(RB3LYP) =  -875.142369594     A.U. after    1 cycles

  Exact polarizability: 141.063  -3.683 116.361 -14.465  -0.501  83.040
 Approx polarizability: 203.432 -14.914 197.691 -33.564   7.325 128.836

                      1                      2                      3
                      A                      A                      A
 Frequencies --     58.1184                65.5229               107.7061
 Red. masses --      4.2497                 5.4685                 2.9232
 Frc consts  --      0.0085                 0.0138                 0.0200
 IR Inten    --      0.0561                 0.7897                 0.6455

                      4                      5                      6
                      A                      A                      A
 Frequencies --    155.6478               213.2451               261.4753
 Red. masses --      2.2644                 5.2649                 2.7924
 Frc consts  --      0.0323                 0.1411                 0.1125
 IR Inten    --      1.7739                 1.7227                 0.9582

                      7                      8                      9
                      A                      A                      A
 Frequencies --    308.6679               340.4394               362.4616
 Red. masses --      3.5516                 3.2174                 3.3621
 Frc consts  --      0.1994                 0.2197                 0.2602
 IR Inten    --      1.7517                 6.7091                12.5865

                     10                     11                     12
                      A                      A                      A
 Frequencies --    407.2908               480.7014               493.0147
 Red. masses --      2.2385                 4.7233                 2.6984
 Frc consts  --      0.2188                 0.6431                 0.3864
 IR Inten    --      4.5215                 3.0308                 4.7093

                     13                     14                     15
                      A                      A                      A
 Frequencies --    532.2406               576.5818               610.6598
 Red. masses --      3.8578                 1.8271                 2.3034
 Frc consts  --      0.6439                 0.3579                 0.5061
 IR Inten    --      3.6791                 6.3963                 7.2345

                     16                     17                     18
                      A                      A                      A
 Frequencies --    628.7459               669.5516               710.8500
 Red. masses --      1.3122                 5.3838                 4.6385
 Frc consts  --      0.3056                 1.4220                 1.3810
 IR Inten    --     30.2322                 2.7580                51.2781

                     19                     20                     21
                      A                      A                      A
 Frequencies --    714.5555               759.8238               803.7936
 Red. masses --      2.7050                 1.2784                 1.2456
 Frc consts  --      0.8137                 0.4349                 0.4741
 IR Inten    --     76.4373                13.9638                38.8429

                     22                     23                     24
                      A                      A                      A
 Frequencies --    822.0641               848.7028               866.3576
 Red. masses --      4.7132                 2.7745                 2.8900
 Frc consts  --      1.8766                 1.1775                 1.2780
 IR Inten    --     13.7248                15.6651                10.8716

                     25                     26                     27
                      A                      A                      A
 Frequencies --    887.9370               900.4024               949.5563
 Red. masses --      4.5596                 2.9150                 2.2519
 Frc consts  --      2.1181                 1.3924                 1.1963
 IR Inten    --     25.3277                 4.8617                11.3392

                     28                     29                     30
                      A                      A                      A
 Frequencies --    962.3094               992.7412              1038.6195
 Red. masses --      1.9126                 2.0811                 2.7316
 Frc consts  --      1.0435                 1.2084                 1.7361
 IR Inten    --     10.7576                19.0179                 5.1305

                     31                     32                     33
                      A                      A                      A
 Frequencies --   1071.0388              1098.9238              1149.4861
 Red. masses --      2.7171                 1.5986                 1.8217
 Frc consts  --      1.8364                 1.1374                 1.4182
 IR Inten    --     14.8270                 2.7655                 8.2782

                     34                     35                     36
                      A                      A                      A
 Frequencies --   1176.3216              1195.9060              1216.3353
 Red. masses --      2.9098                 1.6527                 2.0932
 Frc consts  --      2.3723                 1.3927                 1.8246
 IR Inten    --     23.4254                39.9556                24.5685

                     37                     38                     39
                      A                      A                      A
 Frequencies --   1259.2178              1275.8650              1301.4631
 Red. masses --      1.3390                 1.4662                 1.3206
 Frc consts  --      1.2510                 1.4063                 1.3179
 IR Inten    --      1.9885                26.7153                 2.4891

                     40                     41                     42
                      A                      A                      A
 Frequencies --   1326.7518              1342.9866              1359.0382
 Red. masses --      1.3040                 1.3507                 1.6947
 Frc consts  --      1.3524                 1.4353                 1.8442
 IR Inten    --      7.8918                 6.6935                 7.8515

                     43                     44                     45
                      A                      A                      A
 Frequencies --   1381.3224              1393.5851              1410.0823
 Red. masses --      1.5451                 1.4326                 1.2558
 Frc consts  --      1.7370                 1.6393                 1.4712
 IR Inten    --     25.8257                18.2199                17.0550

                     46                     47                     48
                      A                      A                      A
 Frequencies --   1416.3896              1422.4630              1437.1659
 Red. masses --      1.5327                 1.4754                 1.3603
 Frc consts  --      1.8117                 1.7589                 1.6553
 IR Inten    --      3.2230                48.4052                 4.7159

                     49                     50                     51
                      A                      A                      A
 Frequencies --   1502.2004              1503.0696              1508.1118
 Red. masses --      1.4383                 1.1268                 1.3927
 Frc consts  --      1.9123                 1.4999                 1.8663
 IR Inten    --      7.5834                 4.7510                 3.0642

                     52                     53                     54
                      A                      A                      A
 Frequencies --   1509.6398              1520.8381              1528.2071
 Red. masses --      1.2107                 1.1953                 1.1682
 Frc consts  --      1.6257                 1.6289                 1.6074
 IR Inten    --     36.4942                 4.8738                 4.0189

                     55                     56                     57
                      A                      A                      A
 Frequencies --   1532.0748              1606.1531              3028.4350
 Red. masses --      1.4457                 5.8671                 1.0675
 Frc consts  --      1.9993                 8.9176                 5.7684
 IR Inten    --      8.5748               397.9198                17.9238

                     58                     59                     60
                      A                      A                      A
 Frequencies --   3032.2537              3038.3587              3042.6472
 Red. masses --      1.0616                 1.0645                 1.0633
 Frc consts  --      5.7509                 5.7900                 5.7995
 IR Inten    --     16.9794               116.8861                39.6338

                     61                     62                     63
                      A                      A                      A
 Frequencies --   3069.2955              3073.4844              3081.9682
 Red. masses --      1.0769                 1.0965                 1.0916
 Frc consts  --      5.9771                 6.1025                 6.1088
 IR Inten    --     17.7561                35.9177                16.6845

                     64                     65                     66
                      A                      A                      A
 Frequencies --   3092.1508              3097.7277              3126.8361
 Red. masses --      1.1023                 1.0975                 1.1022
 Frc consts  --      6.2099                 6.2048                 6.3491
 IR Inten    --      8.3999                97.0259                22.0755

                     67                     68                     69
                      A                      A                      A
 Frequencies --   3246.7945              3299.2063              3494.2995
 Red. masses --      1.0936                 1.0934                 1.0736
 Frc consts  --      6.7923                 7.0119                 7.7237
 IR Inten    --      1.6572                 7.5132                 1.8356

 - Thermochemistry -
 -------------------
 Temperature   298.150 Kelvin.  Pressure   1.00000 Atm.
 Atom     1 has atomic number  6 and mass  12.00000

 Molecular mass:   183.08302 amu.
 Principal axes and moments of inertia in atomic units:
                           1         2         3
     Eigenvalues --  1162.770043148.493073513.58531
           X            1.00000   0.00306   0.00076
           Y           -0.00303   0.99940  -0.03449
           Z           -0.00086   0.03449   0.99940
 This molecule is an asymmetric top.
 Rotational symmetry number  1.
 Warning -- assumption of classical behavior for rotation
           may cause significant error
 Rotational temperatures (Kelvin)      0.07449     0.02751     0.02465
 Rotational constants (GHZ):           1.55211     0.57321     0.51365
 Zero-point vibrational energy     560437.8 (Joules/Mol)
                                  133.94784 (Kcal/Mol)
 Warning -- explicit consideration of  15 degrees of freedom as
           vibrations may cause significant error
 Vibrational temperatures:     83.62    94.27   154.97   223.94   306.81
          (Kelvin)            376.20   444.10   489.82   521.50   586.00
                              691.62   709.34   765.78   829.57   878.60
                              904.63   963.34  1022.75  1028.09  1093.22
                             1156.48  1182.77  1221.09  1246.50  1277.54
                             1295.48  1366.20  1384.55  1428.33  1494.34
                             1540.99  1581.11  1653.85  1692.46  1720.64
                             1750.04  1811.73  1835.69  1872.52  1908.90
                             1932.26  1955.35  1987.41  2005.06  2028.79
                             2037.87  2046.61  2067.76  2161.33  2162.58
                             2169.84  2172.03  2188.15  2198.75  2204.31
                             2310.90  4357.24  4362.74  4371.52  4377.69
                             4416.03  4422.06  4434.26  4448.92  4456.94
                             4498.82  4671.41  4746.82  5027.52

 Zero-point correction=                           0.213459 (Hartree/Particle)
 Thermal correction to Energy=                    0.224094
 Thermal correction to Enthalpy=                  0.225038
 Thermal correction to Gibbs Free Energy=         0.176578
 Sum of electronic and zero-point Energies=           -874.928910
 Sum of electronic and thermal Energies=              -874.918276
 Sum of electronic and thermal Enthalpies=            -874.917332
 Sum of electronic and thermal Free Energies=         -874.965792

                     E (Thermal)             CV                S
                      KCal/Mol        Cal/Mol-Kelvin    Cal/Mol-Kelvin
 Total                  140.621             42.037            101.992
 Electronic               0.000              0.000              0.000
 Translational            0.889              2.981             41.521
 Rotational               0.889              2.981             30.932
 Vibrational            138.843             36.075             29.540
 Vibration     1          0.596              1.974              4.520
 Vibration     2          0.597              1.971              4.284
 Vibration     3          0.606              1.943              3.310
 Vibration     4          0.620              1.896              2.602
 Vibration     5          0.644              1.821              2.016
 Vibration     6          0.669              1.743              1.652
 Vibration     7          0.698              1.657              1.369
 Vibration     8          0.720              1.595              1.210
 Vibration     9          0.736              1.550              1.112
 Vibration    10          0.772              1.454              0.936
 Vibration    11          0.837              1.293              0.708
 Vibration    12          0.849              1.266              0.676
 Vibration    13          0.887              1.179              0.582
 Vibration    14          0.933              1.082              0.492
 Vibration    15          0.970              1.009              0.432

 Optimization completed.
    -- Stationary point found.
 Normal termination of Gaussian 16 at Wed Dec  9 18:22:36 2020.

 ----------------------------------------------------------------------
 # B3LYP/6-311++G(d,p) empiricaldispersion=gd3bj scf=xqc pop=npa geom=c
 heck
 ----------------------------------------------------------------------

 ---------------------------------------
 CID_130993329_JID_2941_Energie_neutraal
 ---------------------------------------
 Structure from the checkpoint file:  "JID_2941.chk"
 Charge =  0 Multiplicity = 1

 SCF Done:  E(RB3LYP) =  -875.300175758     A.U. after   15 cycles
 Normal termination of Gaussian 16 at Wed Dec  9 18:25:26 2020.

 ----------------------------------------------------------------------
 # B3LYP/6-311++G(d,p) empiricaldispersion=gd3bj scf=xqc pop=npa geom=c
 heck
 ----------------------------------------------------------------------

 -------------------------------------
 CID_130993329_JID_2941_Energie_kation
 -------------------------------------
 Structure from the checkpoint file:  "JID_2941.chk"
 Charge =  1 Multiplicity = 2

 SCF Done:  E(UB3LYP) =  -875.040165252     A.U. after   22 cycles
 Normal termination of Gaussian 16 at Wed Dec  9 18:30:03 2020.
 Gaussian 16:  ES64L-G16RevA.03 25-Dec-2016

 ----------------------------------------------------------------------
 # B3LYP/6-311++G(d,p) empiricaldispersion=gd3bj scf=xqc pop=npa geom=c
 heck
 ----------------------------------------------------------------------

 ------------------------------------
 CID_130993329_JID_2941_Energie_anion
 ------------------------------------
 Structure from the checkpoint file:  "JID_2941.chk"
 Charge = -1 Multiplicity = 2

                         Standard orientation:
 ---------------------------------------------------------------------
 Center     Atomic      Atomic             Coordinates (Angstroms)
 Number     Number       Type             X           Y           Z
 ---------------------------------------------------------------------
      1          6           0       -1.768663    1.703356   -0.295152
      2          6           0       -2.022194    0.592793   -1.335284
      3          7           0       -2.722791   -0.615273   -0.894681
      4          6           0       -1.884848   -1.638039   -0.281521
      5          6           0       -1.251471   -1.275599    1.075720
      6          7           0       -0.505964   -0.026225    1.072378
      7          6           0       -1.297025    1.202761    1.086199
      8          6           0        0.752387    0.000451    0.503168
      9          6           0        1.512916   -1.077750    0.095857
     10         16           0        3.059068   -0.530923   -0.483640
     11          6           0        2.555972    1.102189   -0.163875
     12          7           0        1.362137    1.233680    0.334512
     13          1           0       -2.682948    2.295108   -0.147892
     14          1           0       -1.017747    2.385214   -0.710727
     15          1           0       -2.579045    1.032478   -2.173738
     16          1           0       -1.061868    0.261833   -1.746369
     17          1           0       -3.517189   -0.385246   -0.300935
     18          1           0       -1.090179   -1.874835   -0.998770
     19          1           0       -2.480377   -2.552617   -0.156443
     20          1           0       -0.592143   -2.084681    1.416835
     21          1           0       -2.040916   -1.177538    1.831165
     22          1           0       -0.715990    1.986573    1.577934
     23          1           0       -2.161951    0.990985    1.723094
     24          1           0        1.267538   -2.127543    0.101907
     25          1           0        3.211609    1.938786   -0.373970
 ---------------------------------------------------------------------

 SCF Done:  E(UB3LYP) =  -875.283801169     A.U. after   33 cycles
 SCF Done:  E(UB3LYP) =  -875.283801169     a.u. after    1 cycles

 The electronic state is 2-A.
 Alpha  occ. eigenvalues --  -88.77092 -14.21781 -14.20378 -14.18453 -10.12800
 Alpha  occ. eigenvalues --  -10.12142 -10.08928 -10.08740 -10.08185 -10.08059
 Alpha  occ. eigenvalues --  -10.07542 -10.05415  -7.85728  -5.82001  -5.81657
 Alpha  occ. eigenvalues --   -5.81347  -0.87385  -0.82396  -0.78575  -0.68982
 Alpha  occ. eigenvalues --   -0.67064  -0.63978  -0.58856  -0.57217  -0.51442
 Alpha  occ. eigenvalues --   -0.49068  -0.47768  -0.42871  -0.41123  -0.38233
 Alpha  occ. eigenvalues --   -0.37141  -0.35427  -0.34396  -0.32179  -0.31571
 Alpha  occ. eigenvalues --   -0.30658  -0.30030  -0.29688  -0.27216  -0.26782
 Alpha  occ. eigenvalues --   -0.25222  -0.25043  -0.23606  -0.22516  -0.18904
 Alpha  occ. eigenvalues --   -0.17306  -0.17131  -0.11490  -0.08546   0.05009
 Alpha virt. eigenvalues --    0.06759   0.07161   0.07643   0.08501   0.09175
 Alpha virt. eigenvalues --    0.10316   0.10677   0.10998   0.11491   0.12084
 Alpha virt. eigenvalues --    0.12278   0.13095   0.13628   0.14047   0.14397

  Beta  occ. eigenvalues --  -88.77074 -14.21795 -14.20340 -14.18428 -10.12799
  Beta  occ. eigenvalues --  -10.12009 -10.08903 -10.08721 -10.08178 -10.08034
  Beta  occ. eigenvalues --  -10.07452 -10.05402  -7.85711  -5.81994  -5.81650
  Beta  occ. eigenvalues --   -5.81285  -0.87311  -0.82342  -0.78531  -0.68870
  Beta  occ. eigenvalues --   -0.67022  -0.63863  -0.58790  -0.57152  -0.51348
  Beta  occ. eigenvalues --   -0.48915  -0.47672  -0.42792  -0.41061  -0.38186
  Beta  occ. eigenvalues --   -0.37071  -0.35390  -0.34326  -0.32127  -0.31444
  Beta  occ. eigenvalues --   -0.30606  -0.29818  -0.29611  -0.27151  -0.26694
  Beta  occ. eigenvalues --   -0.25178  -0.24992  -0.23562  -0.22481  -0.18706
  Beta  occ. eigenvalues --   -0.17213  -0.16762  -0.11402  -0.08310
  Beta virt. eigenvalues --    0.07300   0.07841   0.08062   0.08360   0.09091
  Beta virt. eigenvalues --    0.09662   0.10593   0.11075   0.11293   0.11788
  Beta virt. eigenvalues --    0.12284   0.12693   0.13362   0.14041   0.14237

 Mulliken charges and spin densities:
               1          2
     1  C   -0.753493   0.462511
     2  C    0.790216  -1.087376
     3  N   -0.309473   0.182766
     4  C    0.810424  -1.190165
     5  C    0.171458  -0.386317
     6  N    0.150803   0.051576
     7  C    0.634974  -1.002165
     8  C   -1.432686  -0.259359
     9  C    1.056441   0.048546
    10  S   -0.026669  -0.451888
    11  C    0.003907   0.203572
    12  N   -0.066095   0.069362
    13  H   -0.414911   0.559868
    14  H    0.203994  -0.067274
    15  H   -0.112788   0.306434
    16  H    0.068778   0.061034
    17  H   -0.019661   0.245665
    18  H    0.191821  -0.031919
    19  H   -0.773820   0.938754
    20  H    0.016270   0.119115
    21  H   -0.595526   0.773247
    22  H    0.015745   0.181456
    23  H   -0.254117   0.414055
    24  H   -0.134737   0.391725
    25  H   -0.220854   0.466777
 Sum of Mulliken charges =  -1.00000   1.00000

 Dipole moment (field-independent basis, Debye):
    X=              6.3610    Y=              1.2016    Z=             -1.5828  Tot=              6.6641
 Quadrupole moment (field-independent basis, Debye-Ang):
   XX=           -145.0826   YY=           -119.9294   ZZ=           -110.6953
   XY=             -8.1837   XZ=              4.0566   YZ=              1.4047

 Summary of Natural Population Analysis:

                                       Natural Population
                Natural  -----------------------------------------------
    Atom  No    Charge         Core      Valence    Rydberg      Total
 -----------------------------------------------------------------------
      C    1   -0.20816      0.99962     2.20002    0.00851     3.20816
      C    2   -0.08969      0.99962     2.07806    0.01202     3.08969
      N    3   -0.34150      0.99975     2.82900    0.01274     3.84150
      C    4   -0.09467      0.99961     2.08226    0.01280     3.09467
      C    5   -0.09061      0.99961     2.07836    0.01265     3.09061
      N    6   -0.25852      0.99965     2.74646    0.01241     3.75852
      C    7   -0.08424      0.99961     2.07195    0.01268     3.08424
      C    8    0.16795      0.99946     1.81761    0.01497     2.83205
      C    9   -0.24162      0.99950     2.23311    0.00901     3.24162
      S   10    0.17637      4.99948     2.80148    0.02267     7.82363
      C   11   -0.03303      0.99966     2.01679    0.01657     3.03303
      N   12   -0.24923      0.99966     2.73791    0.01166     3.74923
      H   13    0.09482      0.00000     0.40328    0.00190     0.40518
      H   14    0.10175      0.00000     0.39681    0.00144     0.39825
      H   15    0.09114      0.00000     0.40784    0.00102     0.40886
      H   16    0.09267      0.00000     0.40566    0.00166     0.40733
      H   17    0.17351      0.00000     0.32185    0.00464     0.32649
      H   18    0.09085      0.00000     0.40753    0.00162     0.40915
      H   19    0.09716      0.00000     0.40062    0.00222     0.40284
      H   20    0.09655      0.00000     0.40178    0.00167     0.40345
      H   21    0.09825      0.00000     0.39927    0.00248     0.40175
      H   22    0.10526      0.00000     0.39304    0.00171     0.39474
      H   23    0.09657      0.00000     0.40171    0.00172     0.40343
      H   24    0.11230      0.00000     0.38647    0.00123     0.38770
      H   25    0.09610      0.00000     0.40264    0.00126     0.40390
 =======================================================================
   * Total *   -0.00000     15.99523    32.82150    0.18327    49.00000

 Normal termination of Gaussian 16 at Wed Dec  9 18:36:41 2020.
