 Gaussian 16, Revision A.03,

 -----------------------------------------------------------
 # opt freq B3LYP/6-31G(d) empiricaldispersion=gd3bj scf=xqc
 -----------------------------------------------------------

 ------------------------------
 CID_11263634_JID_1742_neutraal
 ------------------------------
 Symbolic Z-matrix:
 Charge =  0 Multiplicity = 1

 SCF Done:  E(RB3LYP) =  -503.077161549     A.U. after   14 cycles
 SCF Done:  E(RB3LYP) =  -503.079174092     A.U. after   13 cycles
 SCF Done:  E(RB3LYP) =  -503.076058882     A.U. after   13 cycles
 SCF Done:  E(RB3LYP) =  -503.079957509     A.U. after   12 cycles
 SCF Done:  E(RB3LYP) =  -503.080017924     A.U. after   12 cycles
 SCF Done:  E(RB3LYP) =  -503.080037460     A.U. after   12 cycles
 SCF Done:  E(RB3LYP) =  -503.080041638     A.U. after   10 cycles
 SCF Done:  E(RB3LYP) =  -503.080044206     A.U. after    9 cycles
 SCF Done:  E(RB3LYP) =  -503.080045239     A.U. after    9 cycles
 SCF Done:  E(RB3LYP) =  -503.080046228     A.U. after    9 cycles
 SCF Done:  E(RB3LYP) =  -503.080047475     A.U. after    9 cycles
 SCF Done:  E(RB3LYP) =  -503.080048535     A.U. after    9 cycles
 SCF Done:  E(RB3LYP) =  -503.080048840     A.U. after    8 cycles
 Optimization completed.
    -- Stationary point found.

 1\1\GINC-NODE308\FOpt\RB3LYP\6-31G(d)\C9H16O2\VSC10255\08-Dec-2020\0\\
 # opt freq B3LYP/6-31G(d) empiricaldispersion=gd3bj scf=xqc\\CID_11263
 634_JID_1742_neutraal\\0,1\C,1.0187413696,0.1311377301,-0.0440099652\C
 ,0.5453122947,-1.1252561781,-0.8002062772\C,1.108558953,-2.3520904454,
 -0.1175108968\O,0.4579830646,-3.2662831974,0.3421765549\C,-0.974548198
 5,-1.1821991307,-0.9396846779\C,-1.5191233881,-2.301363776,-1.83076739
 35\C,-2.8449501547,-1.7005408682,-2.3059224164\C,-2.5219509885,-0.1973
 73906,-2.4539463004\O,-1.4124814285,0.0378343503,-1.5496458041\C,-2.04

 Normal termination of Gaussian 16 at Tue Dec  8 20:56:59 2020.

 --------------------------------------------------------------------
 #N Geom=AllCheck Guess=TCheck SCRF=Check GenChk RB3LYP/6-31G(d) Freq
 --------------------------------------------------------------------

 Structure from the checkpoint file:  "JID_1742.chk"
 ------------------------------
 CID_11263634_JID_1742_neutraal
 ------------------------------
 Charge =  0 Multiplicity = 1

 SCF Done:  E(RB3LYP) =  -503.080048840     A.U. after    1 cycles

  Exact polarizability: 111.614  -0.692  94.222  -1.165   3.493  84.283
 Approx polarizability: 135.488   1.660 139.611   1.064   9.948 127.229

                      1                      2                      3
                      A                      A                      A
 Frequencies --     26.1250                70.1496               104.6841
 Red. masses --      3.9019                 4.0641                 2.8780
 Frc consts  --      0.0016                 0.0118                 0.0186
 IR Inten    --      0.2070                 4.4414                 3.5856

                      4                      5                      6
                      A                      A                      A
 Frequencies --    140.1387               163.8727               220.9171
 Red. masses --      3.4622                 2.6224                 2.7854
 Frc consts  --      0.0401                 0.0415                 0.0801
 IR Inten    --      3.3432                 2.6086                 1.9737

                      7                      8                      9
                      A                      A                      A
 Frequencies --    230.7067               231.7955               264.9897
 Red. masses --      1.0604                 1.1308                 1.1096
 Frc consts  --      0.0333                 0.0358                 0.0459
 IR Inten    --      0.2709                 0.1384                 0.1914

                     10                     11                     12
                      A                      A                      A
 Frequencies --    310.8763               326.2818               346.9010
 Red. masses --      2.2507                 2.3598                 2.4180
 Frc consts  --      0.1282                 0.1480                 0.1714
 IR Inten    --      1.4001                 1.4138                 1.2995

                     13                     14                     15
                      A                      A                      A
 Frequencies --    377.5978               433.3776               443.8629
 Red. masses --      2.3062                 2.7276                 2.7577
 Frc consts  --      0.1937                 0.3018                 0.3201
 IR Inten    --      1.6792                 0.4090                 1.2085

                     16                     17                     18
                      A                      A                      A
 Frequencies --    467.8553               568.9581               595.8782
 Red. masses --      3.0958                 2.4370                 3.6713
 Frc consts  --      0.3992                 0.4648                 0.7680
 IR Inten    --      5.1102                 2.6186                 1.9356

                     19                     20                     21
                      A                      A                      A
 Frequencies --    707.6841               767.7431               830.7220
 Red. masses --      3.7654                 2.9458                 2.5295
 Frc consts  --      1.1111                 1.0230                 1.0285
 IR Inten    --     14.0892                 3.3938                 9.2878

                     22                     23                     24
                      A                      A                      A
 Frequencies --    883.3531               909.5165               920.5509
 Red. masses --      2.7805                 1.7390                 1.5794
 Frc consts  --      1.2783                 0.8476                 0.7886
 IR Inten    --     49.5895                 5.2662                 5.3633

                     25                     26                     27
                      A                      A                      A
 Frequencies --    934.8439               940.5692               969.0001
 Red. masses --      1.5984                 1.5929                 1.7596
 Frc consts  --      0.8230                 0.8302                 0.9735
 IR Inten    --      6.1068                 6.9519                 2.0256

                     28                     29                     30
                      A                      A                      A
 Frequencies --    978.7753               994.5149              1023.0321
 Red. masses --      1.8287                 1.8024                 1.3918
 Frc consts  --      1.0322                 1.0503                 0.8582
 IR Inten    --     17.5002                 1.9089                 2.3875

                     31                     32                     33
                      A                      A                      A
 Frequencies --   1055.1354              1085.2827              1102.2332
 Red. masses --      1.9282                 2.1056                 2.2813
 Frc consts  --      1.2648                 1.4612                 1.6330
 IR Inten    --      5.7301                57.8102                54.2931

                     34                     35                     36
                      A                      A                      A
 Frequencies --   1123.8498              1164.7149              1179.5569
 Red. masses --      2.1253                 2.0503                 1.8793
 Frc consts  --      1.5815                 1.6387                 1.5406
 IR Inten    --      1.7521                11.7204                74.1621

                     37                     38                     39
                      A                      A                      A
 Frequencies --   1214.8464              1248.4238              1271.7919
 Red. masses --      2.0155                 1.6639                 2.0562
 Frc consts  --      1.7526                 1.5279                 1.9595
 IR Inten    --      2.0839                 4.6006                10.4265

                     40                     41                     42
                      A                      A                      A
 Frequencies --   1289.8602              1314.8262              1321.3359
 Red. masses --      2.0116                 1.3915                 1.5858
 Frc consts  --      1.9719                 1.4174                 1.6313
 IR Inten    --     14.6138                 1.1725                 6.6345

                     43                     44                     45
                      A                      A                      A
 Frequencies --   1339.7750              1365.6558              1381.9811
 Red. masses --      1.5464                 1.4070                 1.3463
 Frc consts  --      1.6354                 1.5461                 1.5149
 IR Inten    --      6.4979                 6.8467                 3.9274

                     46                     47                     48
                      A                      A                      A
 Frequencies --   1422.8770              1425.5658              1427.1727
 Red. masses --      1.4093                 1.2264                 1.3127
 Frc consts  --      1.6811                 1.4685                 1.5753
 IR Inten    --     22.1245                 3.8595                12.5880

                     49                     50                     51
                      A                      A                      A
 Frequencies --   1442.6110              1452.3915              1507.0261
 Red. masses --      1.2441                 1.3311                 1.0541
 Frc consts  --      1.5254                 1.6544                 1.4105
 IR Inten    --      4.2451                 1.1756                 0.0791

                     52                     53                     54
                      A                      A                      A
 Frequencies --   1513.4682              1522.7778              1523.4599
 Red. masses --      1.0569                 1.0667                 1.0510
 Frc consts  --      1.4264                 1.4574                 1.4372
 IR Inten    --      0.2495                 4.9352                 6.8254

                     55                     56                     57
                      A                      A                      A
 Frequencies --   1528.3267              1531.6232              1536.9766
 Red. masses --      1.0659                 1.0821                 1.0552
 Frc consts  --      1.4669                 1.4957                 1.4687
 IR Inten    --      2.7165                 5.9932                 7.4588

                     58                     59                     60
                      A                      A                      A
 Frequencies --   1538.2194              1824.6132              2888.3614
 Red. masses --      1.0786                10.2676                 1.0834
 Frc consts  --      1.5036                20.1401                 5.3250
 IR Inten    --      0.4214               140.3681               157.8619

                     61                     62                     63
                      A                      A                      A
 Frequencies --   2994.9501              3011.4888              3047.8743
 Red. masses --      1.0818                 1.0833                 1.0367
 Frc consts  --      5.7171                 5.7887                 5.6742
 IR Inten    --     23.8204                26.2764                12.0161

                     64                     65                     66
                      A                      A                      A
 Frequencies --   3050.8474              3054.6677              3055.3662
 Red. masses --      1.0553                 1.0515                 1.0378
 Frc consts  --      5.7874                 5.7807                 5.7081
 IR Inten    --     17.4299                26.7107                27.9322

                     67                     68                     69
                      A                      A                      A
 Frequencies --   3062.5945              3114.0259              3117.1482
 Red. masses --      1.0616                 1.1011                 1.1027
 Frc consts  --      5.8669                 6.2908                 6.3128
 IR Inten    --     38.3274                17.9886                18.2303

                     70                     71                     72
                      A                      A                      A
 Frequencies --   3117.5543              3122.2771              3128.2963
 Red. masses --      1.1022                 1.1023                 1.1030
 Frc consts  --      6.3117                 6.3313                 6.3596
 IR Inten    --     18.2346                43.6812                31.1495

                     73                     74                     75
                      A                      A                      A
 Frequencies --   3130.4186              3152.8196              3161.8970
 Red. masses --      1.1025                 1.0948                 1.0997
 Frc consts  --      6.3653                 6.4121                 6.4777
 IR Inten    --     42.2058                11.9675                 8.9629

 - Thermochemistry -
 -------------------
 Temperature   298.150 Kelvin.  Pressure   1.00000 Atm.
 Atom     1 has atomic number  6 and mass  12.00000

 Molecular mass:   156.11503 amu.
 Principal axes and moments of inertia in atomic units:
                           1         2         3
     Eigenvalues --   892.444172625.970023011.98706
           X            0.99967  -0.02519  -0.00411
           Y            0.02517   0.99967  -0.00603
           Z            0.00426   0.00592   0.99997
 This molecule is an asymmetric top.
 Rotational symmetry number  1.
 Warning -- assumption of classical behavior for rotation
           may cause significant error
 Rotational temperatures (Kelvin)      0.09705     0.03298     0.02876
 Rotational constants (GHZ):           2.02225     0.68727     0.59919
 Zero-point vibrational energy     628351.9 (Joules/Mol)
                                  150.17972 (Kcal/Mol)
 Warning -- explicit consideration of  18 degrees of freedom as
           vibrations may cause significant error
 Vibrational temperatures:     37.59   100.93   150.62   201.63   235.78
          (Kelvin)            317.85   331.94   333.50   381.26   447.28
                              469.45   499.11   543.28   623.53   638.62
                              673.14   818.60   857.34  1018.20  1104.61
                             1195.22  1270.95  1308.59  1324.47  1345.03
                             1353.27  1394.17  1408.24  1430.89  1471.91
                             1518.10  1561.48  1585.87  1616.97  1675.76
                             1697.12  1747.89  1796.20  1829.82  1855.82
                             1891.74  1901.11  1927.64  1964.87  1988.36
                             2047.20  2051.07  2053.38  2075.60  2089.67
                             2168.27  2177.54  2190.94  2191.92  2198.92
                             2203.66  2211.37  2213.15  2625.21  4155.71
                             4309.07  4332.86  4385.21  4389.49  4394.99
                             4395.99  4406.39  4480.39  4484.88  4485.47
                             4492.26  4500.92  4503.97  4536.20  4549.26

 Zero-point correction=                           0.239327 (Hartree/Particle)
 Thermal correction to Energy=                    0.251478
 Thermal correction to Enthalpy=                  0.252422
 Thermal correction to Gibbs Free Energy=         0.200928
 Sum of electronic and zero-point Energies=           -502.840722
 Sum of electronic and thermal Energies=              -502.828571
 Sum of electronic and thermal Enthalpies=            -502.827627
 Sum of electronic and thermal Free Energies=         -502.879121

                     E (Thermal)             CV                S
                      KCal/Mol        Cal/Mol-Kelvin    Cal/Mol-Kelvin
 Total                  157.805             45.426            108.379
 Electronic               0.000              0.000              0.000
 Translational            0.889              2.981             41.046
 Rotational               0.889              2.981             30.335
 Vibrational            156.027             39.465             36.998
 Vibration     1          0.593              1.985              6.104
 Vibration     2          0.598              1.968              4.149
 Vibration     3          0.605              1.945              3.365
 Vibration     4          0.615              1.913              2.802
 Vibration     5          0.623              1.887              2.505
 Vibration     6          0.648              1.809              1.952
 Vibration     7          0.652              1.794              1.873
 Vibration     8          0.653              1.792              1.865
 Vibration     9          0.671              1.737              1.629
 Vibration    10          0.700              1.653              1.358
 Vibration    11          0.710              1.623              1.278
 Vibration    12          0.725              1.582              1.180
 Vibration    13          0.748              1.518              1.049
 Vibration    14          0.794              1.397              0.848
 Vibration    15          0.803              1.374              0.815
 Vibration    16          0.825              1.321              0.744
 Vibration    17          0.925              1.098              0.506
 Vibration    18          0.954              1.041              0.457

 Optimization completed.
    -- Stationary point found.

 1\1\GINC-NODE308\Freq\RB3LYP\6-31G(d)\C9H16O2\VSC10255\08-Dec-2020\0\\
 #N Geom=AllCheck Guess=TCheck SCRF=Check GenChk RB3LYP/6-31G(d) Freq\\
 CID_11263634_JID_1742_neutraal\\0,1\C,1.0187413696,0.1311377301,-0.044
 0099652\C,0.5453122947,-1.1252561781,-0.8002062772\C,1.108558953,-2.35
 20904454,-0.1175108968\O,0.4579830646,-3.2662831974,0.3421765549\C,-0.
 9745481985,-1.1821991307,-0.9396846779\C,-1.5191233881,-2.301363776,-1
 .8307673935\C,-2.8449501547,-1.7005408682,-2.3059224164\C,-2.521950988
 5,-0.197373906,-2.4539463004\O,-1.4124814285,0.0378343503,-1.549645804

 Normal termination of Gaussian 16 at Tue Dec  8 21:02:57 2020.

 ----------------------------------------------------------------------
 # B3LYP/6-311++G(d,p) empiricaldispersion=gd3bj scf=xqc pop=npa geom=c
 heck
 ----------------------------------------------------------------------

 --------------------------------------
 CID_11263634_JID_1742_Energie_neutraal
 --------------------------------------
 Structure from the checkpoint file:  "JID_1742.chk"
 Charge =  0 Multiplicity = 1

 SCF Done:  E(RB3LYP) =  -503.224988229     A.U. after   14 cycles
 Normal termination of Gaussian 16 at Tue Dec  8 21:06:15 2020.

 ----------------------------------------------------------------------
 # B3LYP/6-311++G(d,p) empiricaldispersion=gd3bj scf=xqc pop=npa geom=c
 heck
 ----------------------------------------------------------------------

 ------------------------------------
 CID_11263634_JID_1742_Energie_kation
 ------------------------------------
 Structure from the checkpoint file:  "JID_1742.chk"
 Charge =  1 Multiplicity = 2

 SCF Done:  E(UB3LYP) =  -502.904433954     A.U. after   19 cycles
 Normal termination of Gaussian 16 at Tue Dec  8 21:10:58 2020.
 Gaussian 16:  ES64L-G16RevA.03 25-Dec-2016

 -----------------------------------
 CID_11263634_JID_1742_Energie_anion
 -----------------------------------
 Structure from the checkpoint file:  "JID_1742.chk"
 Charge = -1 Multiplicity = 2

                         Standard orientation:
 ---------------------------------------------------------------------
 Center     Atomic      Atomic             Coordinates (Angstroms)
 Number     Number       Type             X           Y           Z
 ---------------------------------------------------------------------
      1          6           0       -1.922177    1.985614   -0.159386
      2          6           0       -1.646311    0.563824    0.366832
      3          6           0       -2.909880   -0.259235    0.246798
      4          8           0       -3.023560   -1.292399   -0.377670
      5          6           0       -0.455086   -0.092741   -0.327847
      6          6           0       -0.000282   -1.432557    0.256245
      7          6           0        1.480620   -1.452359   -0.132488
      8          6           0        1.899539    0.029659   -0.014666
      9          8           0        0.672860    0.781203   -0.200256
     10          6           0        2.435995    0.365938    1.379773
     11          6           0        2.882136    0.458400   -1.102295
     12          1           0       -2.150757    1.964555   -1.231095
     13          1           0       -1.035684    2.604873   -0.010425
     14          1           0       -2.768533    2.446735    0.361993
     15          1           0       -1.419714    0.644164    1.442350
     16          1           0       -3.788382    0.176213    0.777352
     17          1           0       -0.697508   -0.220394   -1.394805
     18          1           0       -0.575923   -2.270531   -0.139525
     19          1           0       -0.116565   -1.425153    1.347584
     20          1           0        1.592638   -1.793375   -1.168555
     21          1           0        2.088955   -2.105101    0.500720
     22          1           0        2.543857    1.450074    1.486918
     23          1           0        1.747777    0.015421    2.156378
     24          1           0        3.414067   -0.099081    1.548608
     25          1           0        2.452294    0.279536   -2.093164
     26          1           0        3.111543    1.525643   -1.015266
     27          1           0        3.820214   -0.103272   -1.023446
 ---------------------------------------------------------------------

 SCF Done:  E(UB3LYP) =  -503.212185084     A.U. after   33 cycles
 SCF Done:  E(UB3LYP) =  -503.212185084     a.u. after    1 cycles

 The electronic state is 2-A.
 Alpha  occ. eigenvalues --  -19.00071 -18.98542 -10.11785 -10.11690 -10.10488
 Alpha  occ. eigenvalues --  -10.06547 -10.05948 -10.05581 -10.04988 -10.04962
 Alpha  occ. eigenvalues --  -10.04649  -0.92208  -0.91754  -0.69951  -0.68264
 Alpha  occ. eigenvalues --   -0.64825  -0.58202  -0.56430  -0.52752  -0.49129
 Alpha  occ. eigenvalues --   -0.44379  -0.43176  -0.39399  -0.36571  -0.35212
 Alpha  occ. eigenvalues --   -0.32989  -0.32691  -0.31865  -0.30642  -0.29894
 Alpha  occ. eigenvalues --   -0.29672  -0.28005  -0.26978  -0.26609  -0.25697
 Alpha  occ. eigenvalues --   -0.25286  -0.23349  -0.23106  -0.21843  -0.21398
 Alpha  occ. eigenvalues --   -0.20041  -0.14530  -0.12556   0.04954
 Alpha virt. eigenvalues --    0.06882   0.08169   0.08417   0.09050   0.09784
 Alpha virt. eigenvalues --    0.10227   0.10917   0.11170   0.11321   0.12503
 Alpha virt. eigenvalues --    0.12988   0.13443   0.14221   0.14683   0.15006

  Beta  occ. eigenvalues --  -19.00062 -18.98273 -10.11690 -10.11543 -10.10483
  Beta  occ. eigenvalues --  -10.06568 -10.05927 -10.05575 -10.04931 -10.04924
  Beta  occ. eigenvalues --  -10.04612  -0.92119  -0.91319  -0.69887  -0.68221
  Beta  occ. eigenvalues --   -0.64743  -0.58139  -0.56364  -0.52441  -0.49048
  Beta  occ. eigenvalues --   -0.44195  -0.43019  -0.39333  -0.36489  -0.35073
  Beta  occ. eigenvalues --   -0.32848  -0.32516  -0.31796  -0.30451  -0.29816
  Beta  occ. eigenvalues --   -0.29613  -0.27757  -0.26768  -0.26496  -0.25379
  Beta  occ. eigenvalues --   -0.25122  -0.23095  -0.22787  -0.21798  -0.21277
  Beta  occ. eigenvalues --   -0.20020  -0.14459  -0.12392
  Beta virt. eigenvalues --    0.07393   0.08172   0.08744   0.09422   0.09754
  Beta virt. eigenvalues --    0.10418   0.10910   0.11266   0.11411   0.11564
  Beta virt. eigenvalues --    0.12880   0.13299   0.13760   0.14447   0.14939

 Mulliken charges and spin densities:
               1          2
     1  C    0.544243  -1.088334
     2  C   -0.316591   0.856791
     3  C   -0.275132   0.099445
     4  O   -0.302131   0.078723
     5  C    0.253372  -0.508338
     6  C   -0.154139  -0.405807
     7  C    0.507127  -0.814356
     8  C   -1.926046   1.994499
     9  O    0.017878   0.008354
    10  C    1.650268  -2.139139
    11  C    0.306726  -0.792478
    12  H   -0.055455   0.184204
    13  H   -0.110749   0.287895
    14  H   -0.271575   0.410610
    15  H    0.049827   0.116919
    16  H    0.016227   0.040878
    17  H    0.230013  -0.033182
    18  H    0.128185   0.057457
    19  H    0.156926   0.013269
    20  H   -0.063142   0.213610
    21  H   -0.245394   0.414887
    22  H   -0.113100   0.264857
    23  H   -0.285434   0.428327
    24  H   -0.249456   0.387106
    25  H   -0.097317   0.237743
    26  H   -0.132530   0.280429
    27  H   -0.262600   0.405632
 Sum of Mulliken charges =  -1.00000   1.00000

 Dipole moment (field-independent basis, Debye):
    X=             -1.4776    Y=             -0.9661    Z=             -0.2505  Tot=              1.7831
 Quadrupole moment (field-independent basis, Debye-Ang):
   XX=           -133.5180   YY=           -106.3806   ZZ=            -93.9120
   XY=              0.7372   XZ=             -5.7086   YZ=             -1.5232

 Summary of Natural Population Analysis:

                                       Natural Population
                Natural  -----------------------------------------------
    Atom  No    Charge         Core      Valence    Rydberg      Total
 -----------------------------------------------------------------------
      C    1   -0.28065      0.99965     2.27469    0.00631     3.28065
      C    2   -0.16655      0.99956     2.15562    0.01138     3.16655
      C    3    0.25861      0.99971     1.72115    0.02053     2.74139
      O    4   -0.26429      0.99988     3.25799    0.00642     4.26429
      C    5    0.07418      0.99953     1.91129    0.01500     2.92582
      C    6   -0.20163      0.99961     2.19311    0.00891     3.20163
      C    7   -0.19910      0.99958     2.19095    0.00857     3.19910
      C    8    0.13241      0.99955     1.85220    0.01583     2.86759
      O    9   -0.31867      0.99987     3.30872    0.01007     4.31867
      C   10   -0.29144      0.99960     2.28482    0.00702     3.29144
      C   11   -0.28936      0.99960     2.28300    0.00676     3.28936
      H   12    0.09654      0.00000     0.40244    0.00102     0.40346
      H   13    0.11258      0.00000     0.38575    0.00167     0.38742
      H   14    0.09689      0.00000     0.40187    0.00123     0.40311
      H   15    0.10631      0.00000     0.39195    0.00173     0.39369
      H   16    0.03635      0.00000     0.46090    0.00275     0.46365
      H   17    0.08259      0.00000     0.41582    0.00159     0.41741
      H   18    0.11302      0.00000     0.38608    0.00090     0.38698
      H   19    0.09494      0.00000     0.40386    0.00120     0.40506
      H   20    0.09751      0.00000     0.40139    0.00109     0.40249
      H   21    0.10493      0.00000     0.39395    0.00113     0.39507
      H   22    0.10339      0.00000     0.39537    0.00124     0.39661
      H   23    0.10011      0.00000     0.39852    0.00137     0.39989
      H   24    0.09909      0.00000     0.39940    0.00150     0.40091
      H   25    0.10020      0.00000     0.39873    0.00107     0.39980
      H   26    0.10199      0.00000     0.39693    0.00107     0.39801
      H   27    0.10002      0.00000     0.39869    0.00129     0.39998
 =======================================================================
   * Total *    0.00000     10.99615    31.86518    0.13867    43.00000

 Normal termination of Gaussian 16 at Tue Dec  8 21:18:54 2020.
