 Gaussian 16, Revision A.03,

 -----------------------------------------------------------
 # opt freq B3LYP/6-31G(d) empiricaldispersion=gd3bj scf=xqc
 -----------------------------------------------------------

 ------------------------------
 CID_89534500_JID_1576_neutraal
 ------------------------------
 Symbolic Z-matrix:
 Charge =  0 Multiplicity = 1

 SCF Done:  E(RB3LYP) =  -571.025511232     A.U. after   15 cycles
 SCF Done:  E(RB3LYP) =  -571.026363213     A.U. after   15 cycles
 SCF Done:  E(RB3LYP) =  -571.032657156     A.U. after   13 cycles
 SCF Done:  E(RB3LYP) =  -571.031797045     A.U. after   13 cycles
 SCF Done:  E(RB3LYP) =  -571.033495916     A.U. after   13 cycles
 SCF Done:  E(RB3LYP) =  -571.035108802     A.U. after   12 cycles
 SCF Done:  E(RB3LYP) =  -571.035358284     A.U. after   12 cycles
 SCF Done:  E(RB3LYP) =  -571.033065800     A.U. after   13 cycles
 SCF Done:  E(RB3LYP) =  -571.035651777     A.U. after   12 cycles
 SCF Done:  E(RB3LYP) =  -571.035923190     A.U. after   11 cycles
 SCF Done:  E(RB3LYP) =  -571.036129211     A.U. after    9 cycles
 SCF Done:  E(RB3LYP) =  -571.036130428     A.U. after    9 cycles
 SCF Done:  E(RB3LYP) =  -571.036130749     A.U. after    8 cycles
 SCF Done:  E(RB3LYP) =  -571.036130901     A.U. after    8 cycles
 SCF Done:  E(RB3LYP) =  -571.036130927     A.U. after    7 cycles
 Optimization completed.
    -- Stationary point found.
 Normal termination of Gaussian 16 at Tue Dec  8 20:31:00 2020.

 --------------------------------------------------------------------
 #N Geom=AllCheck Guess=TCheck SCRF=Check GenChk RB3LYP/6-31G(d) Freq
 --------------------------------------------------------------------

 Structure from the checkpoint file:  "JID_1576.chk"
 ------------------------------
 CID_89534500_JID_1576_neutraal
 ------------------------------
 Charge =  0 Multiplicity = 1

 SCF Done:  E(RB3LYP) =  -571.036130927     A.U. after    1 cycles

  Exact polarizability: 104.192  -2.541  83.140  -6.836   3.257  68.506
 Approx polarizability: 138.911 -15.748 128.436 -17.559  12.268 105.328

                      1                      2                      3
                      A                      A                      A
 Frequencies --     57.0000                67.6345               102.2159
 Red. masses --      5.1568                 5.6319                 5.0287
 Frc consts  --      0.0099                 0.0152                 0.0310
 IR Inten    --      5.6356                 5.0729                 6.2420

                      4                      5                      6
                      A                      A                      A
 Frequencies --    110.2056               143.5781               161.2715
 Red. masses --      4.3009                 4.0922                 1.5030
 Frc consts  --      0.0308                 0.0497                 0.0230
 IR Inten    --      2.3422                 3.3217                 3.1494

                      7                      8                      9
                      A                      A                      A
 Frequencies --    175.5517               204.3505               251.7908
 Red. masses --      2.4537                 4.9594                 2.6137
 Frc consts  --      0.0446                 0.1220                 0.0976
 IR Inten    --      0.2849                 4.3668                15.6900

                     10                     11                     12
                      A                      A                      A
 Frequencies --    316.2577               389.0395               411.9590
 Red. masses --      4.3678                 2.5342                 2.2589
 Frc consts  --      0.2574                 0.2260                 0.2259
 IR Inten    --      3.0691                 0.9298                 4.5784

                     13                     14                     15
                      A                      A                      A
 Frequencies --    477.1715               509.3918               533.6198
 Red. masses --      3.5782                 2.5762                 2.4606
 Frc consts  --      0.4800                 0.3939                 0.4128
 IR Inten    --      8.6615                22.2859                 1.9086

                     16                     17                     18
                      A                      A                      A
 Frequencies --    548.9030               578.6129               614.8635
 Red. masses --      2.8216                 2.3443                 1.1487
 Frc consts  --      0.5009                 0.4624                 0.2559
 IR Inten    --     13.6521                42.6897                89.7787

                     19                     20                     21
                      A                      A                      A
 Frequencies --    634.1356               700.0814               733.4965
 Red. masses --      1.9162                 2.6806                 1.4177
 Frc consts  --      0.4540                 0.7741                 0.4494
 IR Inten    --     81.9077                51.2479                98.5720

                     22                     23                     24
                      A                      A                      A
 Frequencies --    823.7627               843.9019               862.9831
 Red. masses --      2.7313                 3.0822                 2.3460
 Frc consts  --      1.0920                 1.2933                 1.0294
 IR Inten    --     11.6044                 1.5533                 4.0318

                     25                     26                     27
                      A                      A                      A
 Frequencies --    899.3016               933.0530              1040.9028
 Red. masses --      2.5773                 1.7316                 1.7838
 Frc consts  --      1.2281                 0.8882                 1.1387
 IR Inten    --     44.5025                 7.4854                11.2599

                     28                     29                     30
                      A                      A                      A
 Frequencies --   1063.0728              1080.8413              1107.4763
 Red. masses --      1.9420                 1.9735                 3.7800
 Frc consts  --      1.2930                 1.3584                 2.7315
 IR Inten    --      1.5278                 3.7316                48.6503

                     31                     32                     33
                      A                      A                      A
 Frequencies --   1148.0207              1163.1537              1200.6183
 Red. masses --      2.6876                 1.4521                 3.2172
 Frc consts  --      2.0870                 1.1575                 2.7324
 IR Inten    --      4.1946                 4.8286                57.3100

                     34                     35                     36
                      A                      A                      A
 Frequencies --   1253.2677              1265.2446              1297.2724
 Red. masses --      1.1203                 2.0695                 1.6090
 Frc consts  --      1.0367                 1.9519                 1.5954
 IR Inten    --     24.4694                67.2212                90.6394

                     37                     38                     39
                      A                      A                      A
 Frequencies --   1319.1323              1381.8479              1400.5108
 Red. masses --      1.2791                 2.3703                 1.3531
 Frc consts  --      1.3114                 2.6667                 1.5637
 IR Inten    --      5.4940                83.9771                18.7133

                     40                     41                     42
                      A                      A                      A
 Frequencies --   1411.1392              1420.0659              1451.4448
 Red. masses --      1.3099                 1.4022                 1.3043
 Frc consts  --      1.5368                 1.6660                 1.6189
 IR Inten    --     18.6747                33.1140                62.5420

                     43                     44                     45
                      A                      A                      A
 Frequencies --   1464.5756              1487.5001              1490.3951
 Red. masses --      1.2736                 1.0901                 1.0583
 Frc consts  --      1.6095                 1.4212                 1.3850
 IR Inten    --      4.2437                 2.1205                19.2180

                     46                     47                     48
                      A                      A                      A
 Frequencies --   1497.1834              1520.2614              1546.0033
 Red. masses --      1.0563                 1.1004                 1.0858
 Frc consts  --      1.3950                 1.4985                 1.5290
 IR Inten    --      7.7799                12.8215                 3.7450

                     49                     50                     51
                      A                      A                      A
 Frequencies --   1574.6732              1764.2169              1786.2475
 Red. masses --      1.1324                 9.6459                 8.1120
 Frc consts  --      1.6543                17.6888                15.2498
 IR Inten    --      2.1073               477.3495                35.1347

                     52                     53                     54
                      A                      A                      A
 Frequencies --   2987.4875              3051.6136              3059.2546
 Red. masses --      1.0727                 1.0383                 1.0606
 Frc consts  --      5.6409                 5.6968                 5.8486
 IR Inten    --     53.7680                 0.4171                25.6017

                     55                     56                     57
                      A                      A                      A
 Frequencies --   3090.8894              3109.0752              3110.3432
 Red. masses --      1.0896                 1.1064                 1.0977
 Frc consts  --      6.1334                 6.3013                 6.2569
 IR Inten    --     65.5937                25.6562                 1.5180

                     58                     59                     60
                      A                      A                      A
 Frequencies --   3123.2009              3175.1564              3192.5163
 Red. masses --      1.0610                 1.1032                 1.1036
 Frc consts  --      6.0978                 6.5527                 6.6274
 IR Inten    --      3.6123                 6.1072                 0.6023

                     61                     62                     63
                      A                      A                      A
 Frequencies --   3551.7068              3562.2933              3637.8860
 Red. masses --      1.0769                 1.0752                 1.0677
 Frc consts  --      8.0038                 8.0392                 8.3249
 IR Inten    --      5.8723                43.3529               208.3915

 - Thermochemistry -
 -------------------
 Temperature   298.150 Kelvin.  Pressure   1.00000 Atm.
 Atom     1 has atomic number  6 and mass  12.00000

 Molecular mass:   160.08479 amu.
 Principal axes and moments of inertia in atomic units:
                           1         2         3
     Eigenvalues --  1288.568242057.190992742.27572
           X            0.99845   0.05564   0.00139
           Y           -0.05562   0.99839  -0.01107
           Z           -0.00200   0.01098   0.99994
 This molecule is an asymmetric top.
 Rotational symmetry number  1.
 Warning -- assumption of classical behavior for rotation
           may cause significant error
 Rotational temperatures (Kelvin)      0.06722     0.04210     0.03158
 Rotational constants (GHZ):           1.40058     0.87728     0.65812
 Zero-point vibrational energy     507639.1 (Joules/Mol)
                                  121.32865 (Kcal/Mol)
 Warning -- explicit consideration of  18 degrees of freedom as
           vibrations may cause significant error
 Vibrational temperatures:     82.01    97.31   147.07   158.56   206.58
          (Kelvin)            232.03   252.58   294.01   362.27   455.02
                              559.74   592.72   686.54   732.90   767.76
                              789.75   832.49   884.65   912.38  1007.26
                             1055.34  1185.21  1214.19  1241.64  1293.89
                             1342.46  1497.63  1529.52  1555.09  1593.41
                             1651.75  1673.52  1727.42  1803.17  1820.40
                             1866.49  1897.94  1988.17  2015.02  2030.31
                             2043.16  2088.31  2107.20  2140.18  2144.35
                             2154.11  2187.32  2224.35  2265.60  2538.31
                             2570.01  4298.33  4390.59  4401.59  4447.10
                             4473.27  4475.09  4493.59  4568.34  4593.32
                             5110.11  5125.35  5234.11

 Zero-point correction=                           0.193350 (Hartree/Particle)
 Thermal correction to Energy=                    0.205300
 Thermal correction to Enthalpy=                  0.206244
 Thermal correction to Gibbs Free Energy=         0.155153
 Sum of electronic and zero-point Energies=           -570.842781
 Sum of electronic and thermal Energies=              -570.830831
 Sum of electronic and thermal Enthalpies=            -570.829887
 Sum of electronic and thermal Free Energies=         -570.880978

                     E (Thermal)             CV                S
                      KCal/Mol        Cal/Mol-Kelvin    Cal/Mol-Kelvin
 Total                  128.827             43.418            107.529
 Electronic               0.000              0.000              0.000
 Translational            0.889              2.981             41.121
 Rotational               0.889              2.981             30.365
 Vibrational            127.050             37.456             36.044
 Vibration     1          0.596              1.975              4.558
 Vibration     2          0.598              1.970              4.221
 Vibration     3          0.604              1.947              3.412
 Vibration     4          0.606              1.941              3.265
 Vibration     5          0.616              1.910              2.756
 Vibration     6          0.622              1.890              2.535
 Vibration     7          0.628              1.873              2.375
 Vibration     8          0.640              1.834              2.094
 Vibration     9          0.664              1.760              1.718
 Vibration    10          0.703              1.643              1.329
 Vibration    11          0.757              1.494              1.004
 Vibration    12          0.776              1.444              0.920
 Vibration    13          0.834              1.301              0.718
 Vibration    14          0.865              1.229              0.635
 Vibration    15          0.889              1.176              0.579
 Vibration    16          0.904              1.142              0.546
 Vibration    17          0.935              1.078              0.488
 Vibration    18          0.974              1.000              0.425

 Optimization completed.
    -- Stationary point found.
 Normal termination of Gaussian 16 at Tue Dec  8 20:35:59 2020.

 ----------------------------------------------------------------------
 # B3LYP/6-311++G(d,p) empiricaldispersion=gd3bj scf=xqc pop=npa geom=c
 heck
 ----------------------------------------------------------------------

 --------------------------------------
 CID_89534500_JID_1576_Energie_neutraal
 --------------------------------------
 Structure from the checkpoint file:  "JID_1576.chk"
 Charge =  0 Multiplicity = 1

 SCF Done:  E(RB3LYP) =  -571.222633706     A.U. after   14 cycles
 Normal termination of Gaussian 16 at Tue Dec  8 20:41:43 2020.

 ----------------------------------------------------------------------
 # B3LYP/6-311++G(d,p) empiricaldispersion=gd3bj scf=xqc pop=npa geom=c
 heck
 ----------------------------------------------------------------------

 ------------------------------------
 CID_89534500_JID_1576_Energie_kation
 ------------------------------------
 Structure from the checkpoint file:  "JID_1576.chk"
 Charge =  1 Multiplicity = 2

 SCF Done:  E(UB3LYP) =  -570.895833251     A.U. after   25 cycles
 Normal termination of Gaussian 16 at Tue Dec  8 20:49:53 2020.
 Gaussian 16:  ES64L-G16RevA.03 25-Dec-2016

 ----------------------------------------------------------------------
 # B3LYP/6-311++G(d,p) empiricaldispersion=gd3bj scf=xqc pop=npa geom=c
 heck
 ----------------------------------------------------------------------

 -----------------------------------
 CID_89534500_JID_1576_Energie_anion
 -----------------------------------
 Structure from the checkpoint file:  "JID_1576.chk"
 Charge = -1 Multiplicity = 2

                         Standard orientation:
 ---------------------------------------------------------------------
 Center     Atomic      Atomic             Coordinates (Angstroms)
 Number     Number       Type             X           Y           Z
 ---------------------------------------------------------------------
      1          6           0       -2.952748   -1.075030   -0.302357
      2          6           0       -1.464772   -1.057360   -0.078247
      3          8           0       -0.694225   -1.760142   -0.722429
      4          6           0       -0.942220   -0.078383    0.961584
      5          6           0       -0.808103    1.323699    0.344181
      6          8           0       -1.637773    2.191620    0.578052
      7          7           0        0.246659    1.570197   -0.499730
      8          7           0        1.078014    0.661161   -1.176906
      9          6           0        2.403409    0.439920   -0.589267
     10          6           0        2.448502   -0.281220    0.755557
     11          8           0        1.967502   -1.615670    0.703826
     12          1           0       -3.201382   -1.647861   -1.197147
     13          1           0       -3.326889   -0.046876   -0.376962
     14          1           0       -3.444583   -1.526273    0.569126
     15          1           0       -1.660949    0.038502    1.774308
     16          1           0        0.000995   -0.456253    1.353277
     17          1           0        0.177715    2.476186   -0.951944
     18          1           0        0.583154   -0.200978   -1.379943
     19          1           0        2.962117   -0.143251   -1.330679
     20          1           0        2.891177    1.417329   -0.497559
     21          1           0        3.488324   -0.343086    1.094902
     22          1           0        1.903960    0.318361    1.504307
     23          1           0        1.165213   -1.661526    0.150466
 ---------------------------------------------------------------------

 SCF Done:  E(UB3LYP) =  -571.222484727     A.U. after   33 cycles
 SCF Done:  E(UB3LYP) =  -571.222484727     a.u. after    1 cycles

 The electronic state is 2-A.
 Alpha  occ. eigenvalues --  -18.99431 -18.96042 -18.94447 -14.23579 -14.22071
 Alpha  occ. eigenvalues --  -10.14070 -10.10025 -10.08879 -10.07662 -10.03917
 Alpha  occ. eigenvalues --  -10.03078  -0.91891  -0.89872  -0.88260  -0.85985
 Alpha  occ. eigenvalues --   -0.70897  -0.63493  -0.60831  -0.58142  -0.51134
 Alpha  occ. eigenvalues --   -0.47906  -0.41792  -0.39214  -0.38964  -0.37613
 Alpha  occ. eigenvalues --   -0.34695  -0.33591  -0.31958  -0.31253  -0.29720
 Alpha  occ. eigenvalues --   -0.29333  -0.27666  -0.26788  -0.26604  -0.25065
 Alpha  occ. eigenvalues --   -0.23343  -0.22306  -0.21304  -0.17529  -0.15769
 Alpha  occ. eigenvalues --   -0.13350  -0.11446  -0.10564   0.05550
 Alpha virt. eigenvalues --    0.07433   0.09151   0.09871   0.10260   0.11337
 Alpha virt. eigenvalues --    0.11847   0.12781   0.13386   0.14189   0.14586
 Alpha virt. eigenvalues --    0.15219   0.15641   0.16055   0.16821   0.18914

  Beta  occ. eigenvalues --  -18.99425 -18.95972 -18.93975 -14.23551 -14.22071
  Beta  occ. eigenvalues --  -10.13913 -10.10010 -10.08863 -10.07051 -10.03972
  Beta  occ. eigenvalues --  -10.03123  -0.91739  -0.89829  -0.87335  -0.85914
  Beta  occ. eigenvalues --   -0.70833  -0.62992  -0.60766  -0.57964  -0.51083
  Beta  occ. eigenvalues --   -0.47713  -0.41495  -0.39040  -0.38271  -0.37486
  Beta  occ. eigenvalues --   -0.34435  -0.33528  -0.31481  -0.30776  -0.29326
  Beta  occ. eigenvalues --   -0.29135  -0.27499  -0.26637  -0.26230  -0.24674
  Beta  occ. eigenvalues --   -0.23139  -0.22233  -0.19024  -0.17426  -0.15694
  Beta  occ. eigenvalues --   -0.13102  -0.11297  -0.10172
  Beta virt. eigenvalues --    0.07773   0.09367   0.09880   0.10289   0.11311
  Beta virt. eigenvalues --    0.11663   0.12836   0.13142   0.13863   0.14577
  Beta virt. eigenvalues --    0.14926   0.15235   0.16004   0.16579   0.16752

 Mulliken charges and spin densities:
               1          2
     1  C   -0.112043  -0.589101
     2  C   -0.070857   0.607590
     3  O   -0.414127   0.154496
     4  C    0.134765  -0.210718
     5  C    0.037575  -0.110132
     6  O   -0.362418   0.034981
     7  N   -0.362746   0.055378
     8  N   -0.147391   0.002149
     9  C    0.031562  -0.322403
    10  C   -0.064680  -0.280843
    11  O   -0.275733   0.008068
    12  H    0.124227  -0.005048
    13  H    0.176989  -0.008999
    14  H   -0.233447   0.392256
    15  H   -0.144024   0.385265
    16  H   -0.081029   0.214935
    17  H    0.289600   0.001250
    18  H    0.297986  -0.024376
    19  H    0.124313   0.051061
    20  H   -0.164917   0.289248
    21  H   -0.099992   0.251525
    22  H    0.065744   0.062434
    23  H    0.250644   0.040983
 Sum of Mulliken charges =  -1.00000   1.00000

 Dipole moment (field-independent basis, Debye):
    X=              2.7474    Y=              1.8300    Z=             -2.3291  Tot=              4.0400
 Quadrupole moment (field-independent basis, Debye-Ang):
   XX=           -104.4200   YY=            -98.6110   ZZ=            -84.3759
   XY=              2.9276   XZ=              4.1433   YZ=             -2.2428

 Summary of Natural Population Analysis:

                                       Natural Population
                Natural  -----------------------------------------------
    Atom  No    Charge         Core      Valence    Rydberg      Total
 -----------------------------------------------------------------------
      C    1   -0.33514      0.99962     2.33070    0.00482     3.33514
      C    2    0.36694      0.99969     1.61229    0.02108     2.63306
      O    3   -0.29242      0.99986     3.28626    0.00630     4.29242
      C    4   -0.28536      0.99955     2.27625    0.00957     3.28536
      C    5    0.35944      0.99967     1.61639    0.02449     2.64056
      O    6   -0.32521      0.99987     3.31929    0.00605     4.32521
      N    7   -0.23578      0.99964     2.72344    0.01270     3.73578
      N    8   -0.26160      0.99975     2.74708    0.01478     3.76160
      C    9   -0.10279      0.99962     2.08984    0.01333     3.10279
      C   10   -0.02292      0.99959     2.01062    0.01271     3.02292
      O   11   -0.38533      0.99990     3.37834    0.00709     4.38533
      H   12    0.10069      0.00000     0.39843    0.00088     0.39931
      H   13    0.10887      0.00000     0.39032    0.00081     0.39113
      H   14    0.11047      0.00000     0.38655    0.00298     0.38953
      H   15    0.11625      0.00000     0.38183    0.00191     0.38375
      H   16    0.11465      0.00000     0.38331    0.00205     0.38535
      H   17    0.18409      0.00000     0.31379    0.00211     0.31591
      H   18    0.19448      0.00000     0.30292    0.00260     0.30552
      H   19    0.09408      0.00000     0.40487    0.00105     0.40592
      H   20    0.09303      0.00000     0.40548    0.00149     0.40697
      H   21    0.08280      0.00000     0.41581    0.00139     0.41720
      H   22    0.07626      0.00000     0.42219    0.00154     0.42374
      H   23    0.24449      0.00000     0.25188    0.00362     0.25551
 =======================================================================
   * Total *   -0.00000     10.99678    31.84789    0.15534    43.00000

 Normal termination of Gaussian 16 at Tue Dec  8 20:58:47 2020.
