 Gaussian 16, Revision A.03,

 -----------------------------------------------------------
 # opt freq B3LYP/6-31G(d) empiricaldispersion=gd3bj scf=xqc
 -----------------------------------------------------------

 -------------------------------
 CID_84098347_JID_10062_neutraal
 -------------------------------
 Symbolic Z-matrix:
 Charge =  0 Multiplicity = 1

 SCF Done:  E(RB3LYP) =  -902.850775580     A.U. after   15 cycles
 SCF Done:  E(RB3LYP) =  -902.855218828     A.U. after   12 cycles
 SCF Done:  E(RB3LYP) =  -902.855698845     A.U. after   13 cycles
 SCF Done:  E(RB3LYP) =  -902.855450564     A.U. after   13 cycles
 SCF Done:  E(RB3LYP) =  -902.856395256     A.U. after   12 cycles
 SCF Done:  E(RB3LYP) =  -902.856473834     A.U. after   11 cycles
 SCF Done:  E(RB3LYP) =  -902.856496573     A.U. after   11 cycles
 SCF Done:  E(RB3LYP) =  -902.856514349     A.U. after   10 cycles
 SCF Done:  E(RB3LYP) =  -902.856519419     A.U. after   10 cycles
 SCF Done:  E(RB3LYP) =  -902.856519937     A.U. after    8 cycles
 SCF Done:  E(RB3LYP) =  -902.856520350     A.U. after    7 cycles
 SCF Done:  E(RB3LYP) =  -902.856520371     A.U. after    6 cycles
 Optimization completed.
    -- Stationary point found.
 Normal termination of Gaussian 16 at Sun Dec 13 12:46:49 2020.

 --------------------------------------------------------------------
 #N Geom=AllCheck Guess=TCheck SCRF=Check GenChk RB3LYP/6-31G(d) Freq
 --------------------------------------------------------------------

 Structure from the checkpoint file:  "JID_10062.chk"
 -------------------------------
 CID_84098347_JID_10062_neutraal
 -------------------------------
 Charge =  0 Multiplicity = 1

 SCF Done:  E(RB3LYP) =  -902.856520371     A.U. after    1 cycles

  Exact polarizability: 178.276 -13.007 162.762  -6.098  -2.974 153.401
 Approx polarizability: 230.656 -18.810 247.914 -11.529  -5.134 260.000

                      1                      2                      3
                      A                      A                      A
 Frequencies --     39.3576                42.3000                65.2015
 Red. masses --      4.6615                 4.2750                 6.2468
 Frc consts  --      0.0043                 0.0045                 0.0156
 IR Inten    --      0.1116                 0.4631                 0.2875

                      4                      5                      6
                      A                      A                      A
 Frequencies --     68.4127               114.9388               140.0590
 Red. masses --      6.4457                 4.3930                 5.6314
 Frc consts  --      0.0178                 0.0342                 0.0651
 IR Inten    --      1.2619                 1.3509                 0.0560

                      7                      8                      9
                      A                      A                      A
 Frequencies --    194.2981               221.0846               252.0009
 Red. masses --      3.9690                 2.6107                 1.8952
 Frc consts  --      0.0883                 0.0752                 0.0709
 IR Inten    --      2.8267                15.3522                15.5940

                     10                     11                     12
                      A                      A                      A
 Frequencies --    263.7078               293.6127               293.9471
 Red. masses --      2.4603                 4.4558                 5.1635
 Frc consts  --      0.1008                 0.2263                 0.2629
 IR Inten    --     20.7631                 1.5689                 0.7545

                     13                     14                     15
                      A                      A                      A
 Frequencies --    340.6556               354.9893               380.9291
 Red. masses --      2.0313                 2.9172                 2.3027
 Frc consts  --      0.1389                 0.2166                 0.1969
 IR Inten    --      1.2422                 1.2110                 1.2562

                     16                     17                     18
                      A                      A                      A
 Frequencies --    389.7257               401.8064               424.5323
 Red. masses --      3.4208                 4.3801                 4.5847
 Frc consts  --      0.3061                 0.4166                 0.4868
 IR Inten    --      1.0064                 0.4741                 0.2806

                     19                     20                     21
                      A                      A                      A
 Frequencies --    449.1957               462.3081               467.6789
 Red. masses --      3.1692                 1.9515                 2.1044
 Frc consts  --      0.3768                 0.2457                 0.2712
 IR Inten    --      1.1990                 0.1637                 1.7041

                     22                     23                     24
                      A                      A                      A
 Frequencies --    545.1004               586.3189               611.5289
 Red. masses --      4.4553                 1.7823                 3.4563
 Frc consts  --      0.7800                 0.3610                 0.7616
 IR Inten    --     17.3389                35.8792                 7.2433

                     25                     26                     27
                      A                      A                      A
 Frequencies --    639.8798               647.5436               654.2373
 Red. masses --      4.3354                 4.1117                 3.6174
 Frc consts  --      1.0459                 1.0158                 0.9122
 IR Inten    --     22.5996                 4.7904                 4.7639

                     28                     29                     30
                      A                      A                      A
 Frequencies --    675.4265               696.5736               713.7306
 Red. masses --      3.2775                 3.6575                 2.6840
 Frc consts  --      0.8809                 1.0456                 0.8056
 IR Inten    --     22.4248                20.7930                38.5197

                     31                     32                     33
                      A                      A                      A
 Frequencies --    732.7585               778.2489               798.4670
 Red. masses --      1.4456                 4.1377                 3.3661
 Frc consts  --      0.4573                 1.4766                 1.2644
 IR Inten    --     47.7761                 1.2413                 3.0310

                     34                     35                     36
                      A                      A                      A
 Frequencies --    816.6491               824.3265               832.2410
 Red. masses --      1.6586                 2.1529                 2.9942
 Frc consts  --      0.6517                 0.8619                 1.2219
 IR Inten    --     19.6992                 1.9667                 2.0248

                     37                     38                     39
                      A                      A                      A
 Frequencies --    836.7333               874.0882               885.2380
 Red. masses --      2.6111                 1.3181                 2.8553
 Frc consts  --      1.0771                 0.5934                 1.3183
 IR Inten    --     11.8934                 1.7925                 5.4002

                     40                     41                     42
                      A                      A                      A
 Frequencies --    904.1687               909.3883               909.9718
 Red. masses --      1.7423                 5.7912                 1.6156
 Frc consts  --      0.8392                 2.8217                 0.7882
 IR Inten    --      0.5607                 1.0445                 0.4011

                     43                     44                     45
                      A                      A                      A
 Frequencies --    917.6114               923.8602               945.5039
 Red. masses --      2.3158                 2.2159                 2.1305
 Frc consts  --      1.1489                 1.1143                 1.1222
 IR Inten    --      2.7067                 1.3022               131.4218

                     46                     47                     48
                      A                      A                      A
 Frequencies --    957.3574               971.3242               989.3244
 Red. masses --      2.4647                 2.1462                 2.0473
 Frc consts  --      1.3310                 1.1930                 1.1806
 IR Inten    --      0.6638                10.9808                60.3153

                     49                     50                     51
                      A                      A                      A
 Frequencies --   1013.2819              1020.9331              1043.9326
 Red. masses --      2.1140                 2.9850                 1.3938
 Frc consts  --      1.2788                 1.8331                 0.8950
 IR Inten    --      2.9955                 5.2415                26.4500

                     52                     53                     54
                      A                      A                      A
 Frequencies --   1054.5015              1056.6626              1070.1063
 Red. masses --      2.2728                 1.9265                 3.1943
 Frc consts  --      1.4891                 1.2673                 2.1552
 IR Inten    --      8.5172                 0.0622                 1.6614

                     55                     56                     57
                      A                      A                      A
 Frequencies --   1089.8977              1097.1291              1115.4903
 Red. masses --      1.7190                 1.7841                 2.9912
 Frc consts  --      1.2031                 1.2653                 2.1929
 IR Inten    --      1.1619                 7.9785                 0.6684

                     58                     59                     60
                      A                      A                      A
 Frequencies --   1130.4570              1132.4342              1143.0322
 Red. masses --      1.6199                 1.6281                 1.0360
 Frc consts  --      1.2197                 1.2301                 0.7975
 IR Inten    --      5.4226                10.8869                 2.0899

                     61                     62                     63
                      A                      A                      A
 Frequencies --   1144.8636              1161.0545              1166.9814
 Red. masses --      1.0424                 1.0552                 2.9015
 Frc consts  --      0.8050                 0.8381                 2.3281
 IR Inten    --      3.0023                 0.4858               141.5407

                     64                     65                     66
                      A                      A                      A
 Frequencies --   1182.0080              1211.4025              1225.2751
 Red. masses --      1.9162                 1.4636                 2.0750
 Frc consts  --      1.5774                 1.2655                 1.8354
 IR Inten    --     22.7333                13.2581                30.9345

                     67                     68                     69
                      A                      A                      A
 Frequencies --   1233.8807              1260.4732              1267.7450
 Red. masses --      4.1668                 1.1270                 1.5252
 Frc consts  --      3.7377                 1.0549                 1.4442
 IR Inten    --     10.8047                 2.3606                12.6207

                     70                     71                     72
                      A                      A                      A
 Frequencies --   1285.2193              1315.1989              1327.6327
 Red. masses --      1.4590                 1.6487                 1.5988
 Frc consts  --      1.4199                 1.6803                 1.6604
 IR Inten    --      0.0411                 4.8966                 2.3843

                     73                     74                     75
                      A                      A                      A
 Frequencies --   1334.2109              1343.3022              1355.2594
 Red. masses --      1.6226                 1.8366                 1.8310
 Frc consts  --      1.7018                 1.9526                 1.9815
 IR Inten    --      5.4933                 1.0575                 1.7064

                     76                     77                     78
                      A                      A                      A
 Frequencies --   1360.5285              1366.8404              1369.4679
 Red. masses --      1.9740                 1.3920                 1.3196
 Frc consts  --      2.1528                 1.5323                 1.4581
 IR Inten    --      0.3344                 0.8006                 0.1484

                     79                     80                     81
                      A                      A                      A
 Frequencies --   1374.0673              1391.3315              1399.3720
 Red. masses --      1.3542                 1.8408                 1.5930
 Frc consts  --      1.5065                 2.0995                 1.8379
 IR Inten    --      0.7159                 8.9672                 3.7858

                     82                     83                     84
                      A                      A                      A
 Frequencies --   1402.0538              1412.9076              1420.8208
 Red. masses --      1.4713                 1.4012                 1.5350
 Frc consts  --      1.7040                 1.6481                 1.8258
 IR Inten    --      2.7066                 0.3629                 0.1926

                     85                     86                     87
                      A                      A                      A
 Frequencies --   1423.3720              1429.1338              1439.1466
 Red. masses --      1.5017                 2.3669                 1.5462
 Frc consts  --      1.7925                 2.8482                 1.8868
 IR Inten    --      0.4827                 1.0813                 0.9984

                     88                     89                     90
                      A                      A                      A
 Frequencies --   1507.1838              1514.9690              1521.6725
 Red. masses --      1.0884                 1.0950                 1.0970
 Frc consts  --      1.4567                 1.4808                 1.4965
 IR Inten    --      1.5515                 0.8889                11.1238

                     91                     92                     93
                      A                      A                      A
 Frequencies --   1523.1771              1535.1340              1541.9181
 Red. masses --      1.0985                 5.4952                 1.0977
 Frc consts  --      1.5015                 7.6300                 1.5377
 IR Inten    --      6.0839                16.7931                 6.4249

                     94                     95                     96
                      A                      A                      A
 Frequencies --   1627.5902              1682.0424              1843.3880
 Red. masses --      5.4990                 1.1172                 8.2994
 Frc consts  --      8.5827                 1.8623                16.6162
 IR Inten    --      2.3479                82.6965               234.4404

                     97                     98                     99
                      A                      A                      A
 Frequencies --   3022.4062              3024.9338              3026.6005
 Red. masses --      1.0644                 1.0636                 1.0613
 Frc consts  --      5.7289                 5.7343                 5.7277
 IR Inten    --     10.9334                 8.6873                11.3940

                    100                    101                    102
                      A                      A                      A
 Frequencies --   3027.9968              3032.4256              3043.0436
 Red. masses --      1.0737                 1.0731                 1.0822
 Frc consts  --      5.8002                 5.8137                 5.9045
 IR Inten    --     17.3690                26.4472               109.7728

                    103                    104                    105
                      A                      A                      A
 Frequencies --   3044.7225              3050.4236              3053.2215
 Red. masses --      1.0820                 1.0819                 1.0835
 Frc consts  --      5.9100                 5.9313                 5.9513
 IR Inten    --    114.5193                83.7155                54.2923

                    106                    107                    108
                      A                      A                      A
 Frequencies --   3060.7426              3061.9286              3066.7996
 Red. masses --      1.1050                 1.0843                 1.1037
 Frc consts  --      6.0991                 5.9897                 6.1163
 IR Inten    --      9.7574                19.4785                79.6484

                    109                    110                    111
                      A                      A                      A
 Frequencies --   3069.3140              3122.7879              3135.4776
 Red. masses --      1.1019                 1.0903                 1.0921
 Frc consts  --      6.1160                 6.2642                 6.3260
 IR Inten    --     92.8943                27.7586                 9.1558

                    112                    113                    114
                      A                      A                      A
 Frequencies --   3267.6668              3291.7444              3306.0016
 Red. masses --      1.0914                 1.0967                 1.1048
 Frc consts  --      6.8662                 7.0016                 7.1141
 IR Inten    --      5.0742                 0.4048                 1.1111

                    115                    116                    117
                      A                      A                      A
 Frequencies --   3492.7879              3588.3235              3683.9906
 Red. masses --      1.0514                 1.0905                 1.0641
 Frc consts  --      7.5570                 8.2731                 8.5085
 IR Inten    --      8.6093                11.2902                66.7260

 - Thermochemistry -
 -------------------
 Temperature   298.150 Kelvin.  Pressure   1.00000 Atm.
 Atom     1 has atomic number  6 and mass  12.00000

 Molecular mass:   275.15214 amu.
 Principal axes and moments of inertia in atomic units:
                           1         2         3
     Eigenvalues --  3103.937546186.541517142.38537
           X            0.99999  -0.00464  -0.00277
           Y            0.00462   0.99997  -0.00634
           Z            0.00280   0.00633   0.99998
 This molecule is an asymmetric top.
 Rotational symmetry number  1.
 Warning -- assumption of classical behavior for rotation
           may cause significant error
 Rotational temperatures (Kelvin)      0.02790     0.01400     0.01213
 Rotational constants (GHZ):           0.58144     0.29172     0.25268
 Zero-point vibrational energy     936557.4 (Joules/Mol)
                                  223.84258 (Kcal/Mol)
 Warning -- explicit consideration of  24 degrees of freedom as
           vibrations may cause significant error
 Vibrational temperatures:     56.63    60.86    93.81    98.43   165.37
          (Kelvin)            201.51   279.55   318.09   362.57   379.42
                              422.44   422.92   490.13   510.75   548.07
                              560.73   578.11   610.81   646.29   665.16
                              672.89   784.28   843.58   879.85   920.64
                              931.67   941.30   971.79  1002.21  1026.90
                             1054.28  1119.73  1148.82  1174.98  1186.02
                             1197.41  1203.87  1257.62  1273.66  1300.90
                             1308.41  1309.25  1320.24  1329.23  1360.37
                             1377.42  1397.52  1423.42  1457.89  1468.90
                             1501.99  1517.19  1520.30  1539.64  1568.12
                             1578.52  1604.94  1626.48  1629.32  1644.57
                             1647.20  1670.50  1679.03  1700.65  1742.94
                             1762.90  1775.28  1813.54  1824.00  1849.14
                             1892.28  1910.17  1919.63  1932.71  1949.92
                             1957.50  1966.58  1970.36  1976.98  2001.82
                             2013.38  2017.24  2032.86  2044.24  2047.91
                             2056.20  2070.61  2168.50  2179.70  2189.35
                             2191.51  2208.72  2218.48  2341.74  2420.08
                             2652.22  4348.57  4352.21  4354.60  4356.61
                             4362.98  4378.26  4380.68  4388.88  4392.90
                             4403.73  4405.43  4412.44  4416.06  4493.00
                             4511.25  4701.44  4736.09  4756.60  5025.34
                             5162.80  5300.44

 Zero-point correction=                           0.356716 (Hartree/Particle)
 Thermal correction to Energy=                    0.372881
 Thermal correction to Enthalpy=                  0.373826
 Thermal correction to Gibbs Free Energy=         0.313078
 Sum of electronic and zero-point Energies=           -902.499805
 Sum of electronic and thermal Energies=              -902.483639
 Sum of electronic and thermal Enthalpies=            -902.482695
 Sum of electronic and thermal Free Energies=         -902.543442

                     E (Thermal)             CV                S
                      KCal/Mol        Cal/Mol-Kelvin    Cal/Mol-Kelvin
 Total                  233.987             67.538            127.854
 Electronic               0.000              0.000              0.000
 Translational            0.889              2.981             42.735
 Rotational               0.889              2.981             33.283
 Vibrational            232.209             61.576             51.836
 Vibration     1          0.594              1.981              5.291
 Vibration     2          0.595              1.980              5.148
 Vibration     3          0.597              1.971              4.293
 Vibration     4          0.598              1.969              4.199
 Vibration     5          0.608              1.937              3.184
 Vibration     6          0.615              1.913              2.803
 Vibration     7          0.635              1.848              2.186
 Vibration     8          0.648              1.809              1.950
 Vibration     9          0.664              1.759              1.717
 Vibration    10          0.670              1.739              1.637
 Vibration    11          0.688              1.686              1.453
 Vibration    12          0.689              1.685              1.451
 Vibration    13          0.720              1.594              1.209
 Vibration    14          0.731              1.565              1.144
 Vibration    15          0.751              1.511              1.035
 Vibration    16          0.758              1.492              1.001
 Vibration    17          0.767              1.466              0.956
 Vibration    18          0.787              1.417              0.877
 Vibration    19          0.808              1.363              0.798
 Vibration    20          0.820              1.334              0.759
 Vibration    21          0.825              1.322              0.744
 Vibration    22          0.900              1.150              0.554
 Vibration    23          0.943              1.061              0.474
 Vibration    24          0.971              1.007              0.430

 Optimization completed.
    -- Stationary point found.
 Normal termination of Gaussian 16 at Sun Dec 13 13:18:17 2020.

 ----------------------------------------------------------------------
 # B3LYP/6-311++G(d,p) empiricaldispersion=gd3bj scf=xqc pop=npa geom=c
 heck
 ----------------------------------------------------------------------

 ---------------------------------------
 CID_84098347_JID_10062_Energie_neutraal
 ---------------------------------------
 Structure from the checkpoint file:  "JID_10062.chk"
 Charge =  0 Multiplicity = 1

 SCF Done:  E(RB3LYP) =  -903.112334885     A.U. after   14 cycles
 Normal termination of Gaussian 16 at Sun Dec 13 13:31:10 2020.

 ----------------------------------------------------------------------
 # B3LYP/6-311++G(d,p) empiricaldispersion=gd3bj scf=xqc pop=npa geom=c
 heck
 ----------------------------------------------------------------------

 -------------------------------------
 CID_84098347_JID_10062_Energie_kation
 -------------------------------------
 Structure from the checkpoint file:  "JID_10062.chk"
 Charge =  1 Multiplicity = 2

 SCF Done:  E(UB3LYP) =  -902.813054173     A.U. after   25 cycles
 Normal termination of Gaussian 16 at Sun Dec 13 14:04:02 2020.
 Gaussian 16:  ES64L-G16RevA.03 25-Dec-2016

 ----------------------------------------------------------------------
 # B3LYP/6-311++G(d,p) empiricaldispersion=gd3bj scf=xqc pop=npa geom=c
 heck
 ----------------------------------------------------------------------

 ------------------------------------
 CID_84098347_JID_10062_Energie_anion
 ------------------------------------
 Structure from the checkpoint file:  "JID_10062.chk"
 Charge = -1 Multiplicity = 2

                         Standard orientation:
 ---------------------------------------------------------------------
 Center     Atomic      Atomic             Coordinates (Angstroms)
 Number     Number       Type             X           Y           Z
 ---------------------------------------------------------------------
      1          6           0       -3.716120   -0.743951    0.128470
      2          6           0       -2.989066   -0.616847   -1.223592
      3          6           0       -1.797438   -1.594373   -1.249445
      4          6           0       -0.808409   -1.246757   -0.115477
      5          6           0       -1.548295   -1.376375    1.231506
      6          6           0       -2.740378   -0.402487    1.270075
      7          6           0       -2.224520    1.037930    1.096885
      8          6           0       -1.494582    1.170244   -0.254138
      9          6           0       -2.481765    0.829382   -1.390879
     10          6           0       -0.301195    0.191600   -0.380143
     11          6           0        0.993461    0.595407    0.400185
     12          6           0        2.118588   -0.349643   -0.004085
     13          6           0        2.843338   -0.544483   -1.144110
     14          6           0        3.695387   -1.674682   -0.904672
     15          6           0        3.428056   -2.090830    0.361666
     16          8           0        2.469155   -1.294326    0.925401
     17          6           0        1.438119    2.000874   -0.040145
     18          8           0        1.814792    2.871493    0.711586
     19          8           0        1.400922    2.172601   -1.381810
     20          7           0        0.810164    0.658093    1.850710
     21          1           0       -4.102603   -1.764929    0.252521
     22          1           0       -4.580281   -0.066362    0.155618
     23          1           0       -3.680439   -0.860154   -2.040862
     24          1           0       -1.286736   -1.546702   -2.220474
     25          1           0       -2.157572   -2.624409   -1.124773
     26          1           0        0.035534   -1.946312   -0.145987
     27          1           0       -0.880038   -1.174929    2.072087
     28          1           0       -1.904961   -2.409791    1.342279
     29          1           0       -3.255873   -0.494040    2.234749
     30          1           0       -3.070106    1.739707    1.116039
     31          1           0       -1.547181    1.297178    1.912973
     32          1           0       -1.143172    2.202234   -0.380988
     33          1           0       -1.991357    0.950101   -2.366212
     34          1           0       -3.330259    1.526236   -1.367259
     35          1           0        0.016051    0.214385   -1.429052
     36          1           0        2.777004    0.047566   -2.044182
     37          1           0        4.412274   -2.109051   -1.587272
     38          1           0        3.804785   -2.882612    0.990014
     39          1           0        1.735411    3.074963   -1.543277
     40          1           0        1.053071   -0.239155    2.259324
     41          1           0        1.455265    1.351234    2.225739
 ---------------------------------------------------------------------

 SCF Done:  E(UB3LYP) =  -903.102045380     A.U. after   33 cycles
 SCF Done:  E(UB3LYP) =  -903.102045381     a.u. after    1 cycles

 The electronic state is 2-A.
 Alpha  occ. eigenvalues --  -19.10475 -19.08101 -19.03176 -14.20317 -10.22048
 Alpha  occ. eigenvalues --  -10.14633 -10.14110 -10.13494 -10.08661 -10.08089
 Alpha  occ. eigenvalues --  -10.08034 -10.07571 -10.07474 -10.07340 -10.07246
 Alpha  occ. eigenvalues --  -10.06665 -10.06637 -10.06499 -10.06374 -10.05663
 Alpha  occ. eigenvalues --   -1.02864  -1.02476  -0.93693  -0.81682  -0.77303
 Alpha  occ. eigenvalues --   -0.71721  -0.69280  -0.67388  -0.67122  -0.66586
 Alpha  occ. eigenvalues --   -0.62229  -0.56923  -0.56479  -0.52419  -0.51158
 Alpha  occ. eigenvalues --   -0.49195  -0.48886  -0.48387  -0.46607  -0.45768
 Alpha  occ. eigenvalues --   -0.43432  -0.41684  -0.39991  -0.38473  -0.37387
 Alpha  occ. eigenvalues --   -0.36555  -0.35959  -0.35841  -0.35189  -0.34576
 Alpha  occ. eigenvalues --   -0.34039  -0.32381  -0.31970  -0.31460  -0.31014
 Alpha  occ. eigenvalues --   -0.30549  -0.30175  -0.29694  -0.29578  -0.29078
 Alpha  occ. eigenvalues --   -0.28824  -0.24759  -0.24060  -0.23427  -0.23167
 Alpha  occ. eigenvalues --   -0.22965  -0.22773  -0.20412  -0.19744  -0.19638
 Alpha  occ. eigenvalues --   -0.18849  -0.18614  -0.15439  -0.14067   0.03922
 Alpha virt. eigenvalues --    0.05885   0.05951   0.07047   0.07315   0.07761
 Alpha virt. eigenvalues --    0.07843   0.08505   0.09189   0.09651   0.09875
 Alpha virt. eigenvalues --    0.10195   0.10331   0.11185   0.11631   0.12274

  Beta  occ. eigenvalues --  -19.10461 -19.08044 -19.03157 -14.20309 -10.22031
  Beta  occ. eigenvalues --  -10.14627 -10.14106 -10.13478 -10.08652 -10.08073
  Beta  occ. eigenvalues --  -10.08026 -10.07567 -10.07470 -10.07334 -10.07243
  Beta  occ. eigenvalues --  -10.06653 -10.06625 -10.06486 -10.06365 -10.05658
  Beta  occ. eigenvalues --   -1.02831  -1.02408  -0.93627  -0.81664  -0.77285
  Beta  occ. eigenvalues --   -0.71696  -0.69254  -0.67370  -0.67105  -0.66563
  Beta  occ. eigenvalues --   -0.62185  -0.56899  -0.56432  -0.52365  -0.51104
  Beta  occ. eigenvalues --   -0.49164  -0.48866  -0.48359  -0.46563  -0.45728
  Beta  occ. eigenvalues --   -0.43389  -0.41656  -0.39949  -0.38424  -0.37354
  Beta  occ. eigenvalues --   -0.36524  -0.35922  -0.35815  -0.35165  -0.34554
  Beta  occ. eigenvalues --   -0.33997  -0.32348  -0.31941  -0.31433  -0.30998
  Beta  occ. eigenvalues --   -0.30536  -0.30151  -0.29674  -0.29556  -0.29055
  Beta  occ. eigenvalues --   -0.28798  -0.24733  -0.24014  -0.23404  -0.23148
  Beta  occ. eigenvalues --   -0.22944  -0.22758  -0.20374  -0.19717  -0.19614
  Beta  occ. eigenvalues --   -0.18827  -0.18589  -0.15426  -0.14033
  Beta virt. eigenvalues --    0.05823   0.06538   0.07149   0.07284   0.07662
  Beta virt. eigenvalues --    0.08108   0.08303   0.08777   0.09380   0.09861
  Beta virt. eigenvalues --    0.10004   0.10318   0.10623   0.11475   0.11919

 Mulliken charges and spin densities:
               1          2
     1  C    0.582679  -1.247317
     2  C   -0.249230   0.721012
     3  C   -0.599173  -0.345083
     4  C   -0.721947   0.780645
     5  C    0.162757  -0.773937
     6  C   -0.477566   0.710436
     7  C   -0.157036  -0.628818
     8  C    0.388863   0.246792
     9  C   -0.658128  -0.246979
    10  C    0.857274  -0.828551
    11  C    0.773641  -1.485883
    12  C    1.892092  -2.034325
    13  C   -3.273631   3.648245
    14  C    2.044275  -2.576871
    15  C   -1.070879   1.119207
    16  O    0.023858   0.032438
    17  C    0.608461  -0.877682
    18  O   -0.250496   0.050513
    19  O   -0.151669   0.066190
    20  N   -0.327539   0.080429
    21  H    0.055508   0.080207
    22  H   -0.009699   0.146812
    23  H   -0.055360   0.279180
    24  H   -0.132513   0.268138
    25  H   -0.104885   0.259277
    26  H    0.498631  -0.233631
    27  H    0.012635   0.056460
    28  H   -0.169906   0.340241
    29  H    0.043481   0.166689
    30  H   -0.033883   0.168965
    31  H    0.211957   0.006906
    32  H    0.153203   0.121564
    33  H   -0.274883   0.416973
    34  H    0.038021   0.114900
    35  H    0.982742  -0.662998
    36  H   -0.633792   0.860771
    37  H   -0.397287   0.570197
    38  H   -0.634440   0.811939
    39  H   -0.378150   0.694679
    40  H    0.232302   0.055804
    41  H    0.199711   0.066464
 Sum of Mulliken charges =  -1.00000   1.00000

 Dipole moment (field-independent basis, Debye):
    X=             -2.7136    Y=             -1.5207    Z=              3.1641  Tot=              4.4371
 Quadrupole moment (field-independent basis, Debye-Ang):
   XX=           -190.8528   YY=           -176.2394   ZZ=           -161.5631
   XY=             -3.7051   XZ=              5.1627   YZ=              5.0899

 Summary of Natural Population Analysis:

                                       Natural Population
                Natural  -----------------------------------------------
    Atom  No    Charge         Core      Valence    Rydberg      Total
 -----------------------------------------------------------------------
      C    1   -0.18771      0.99960     2.17851    0.00960     3.18771
      C    2   -0.11143      0.99959     2.10074    0.01110     3.11143
      C    3   -0.18418      0.99961     2.17476    0.00981     3.18418
      C    4   -0.11265      0.99957     2.10129    0.01178     3.11265
      C    5   -0.18862      0.99960     2.17938    0.00963     3.18862
      C    6   -0.11046      0.99959     2.10009    0.01077     3.11046
      C    7   -0.19239      0.99960     2.18476    0.00803     3.19239
      C    8   -0.11090      0.99957     2.09921    0.01212     3.11090
      C    9   -0.18482      0.99961     2.17541    0.00981     3.18482
      C   10   -0.10126      0.99954     2.08708    0.01465     3.10126
      C   11    0.00316      0.99945     1.97997    0.01743     2.99684
      C   12    0.15042      0.99942     1.83221    0.01795     2.84958
      C   13   -0.14360      0.99947     2.13527    0.00886     3.14360
      C   14   -0.14404      0.99956     2.13590    0.00857     3.14404
      C   15    0.05671      0.99950     1.92943    0.01435     2.94329
      O   16   -0.24241      0.99985     3.23425    0.00831     4.24241
      C   17    0.42269      0.99966     1.55095    0.02670     2.57731
      O   18   -0.30550      0.99986     3.29949    0.00615     4.30550
      O   19   -0.34260      0.99987     3.33465    0.00808     4.34260
      N   20   -0.42208      0.99976     2.91293    0.00940     3.92208
      H   21    0.09668      0.00000     0.40234    0.00099     0.40332
      H   22    0.09688      0.00000     0.40214    0.00098     0.40312
      H   23    0.09819      0.00000     0.40042    0.00139     0.40181
      H   24    0.09975      0.00000     0.39917    0.00108     0.40025
      H   25    0.09789      0.00000     0.40108    0.00102     0.40211
      H   26    0.10479      0.00000     0.39362    0.00159     0.39521
      H   27    0.10209      0.00000     0.39656    0.00135     0.39791
      H   28    0.09627      0.00000     0.40272    0.00101     0.40373
      H   29    0.09633      0.00000     0.40236    0.00131     0.40367
      H   30    0.09385      0.00000     0.40521    0.00094     0.40615
      H   31    0.11519      0.00000     0.38350    0.00131     0.38481
      H   32    0.10222      0.00000     0.39621    0.00156     0.39778
      H   33    0.10057      0.00000     0.39827    0.00116     0.39943
      H   34    0.09764      0.00000     0.40132    0.00103     0.40236
      H   35    0.11027      0.00000     0.38675    0.00298     0.38973
      H   36    0.11935      0.00000     0.37883    0.00182     0.38065
      H   37    0.10998      0.00000     0.38892    0.00109     0.39002
      H   38    0.09662      0.00000     0.40209    0.00130     0.40338
      H   39    0.24687      0.00000     0.23635    0.01678     0.25313
      H   40    0.18163      0.00000     0.31635    0.00201     0.31837
      H   41    0.18860      0.00000     0.30974    0.00165     0.31140
 =======================================================================
   * Total *   -0.00000     19.99229    53.73025    0.27747    74.00000

 Normal termination of Gaussian 16 at Sun Dec 13 14:45:46 2020.
