 Gaussian 16, Revision A.03,

 -----------------------------------------------------------
 # opt freq B3LYP/6-31G(d) empiricaldispersion=gd3bj scf=xqc
 -----------------------------------------------------------

 ------------------------------
 CID_107066083_JID_652_neutraal
 ------------------------------
 Symbolic Z-matrix:
 Charge =  0 Multiplicity = 1

 SCF Done:  E(RB3LYP) =  -470.850702861     A.U. after   14 cycles
 SCF Done:  E(RB3LYP) =  -470.856560351     A.U. after   13 cycles
 SCF Done:  E(RB3LYP) =  -470.857728901     A.U. after   12 cycles
 SCF Done:  E(RB3LYP) =  -470.857856227     A.U. after   12 cycles
 SCF Done:  E(RB3LYP) =  -470.857896583     A.U. after   12 cycles
 SCF Done:  E(RB3LYP) =  -470.857978767     A.U. after   10 cycles
 SCF Done:  E(RB3LYP) =  -470.858063559     A.U. after   12 cycles
 SCF Done:  E(RB3LYP) =  -470.858085723     A.U. after   11 cycles
 SCF Done:  E(RB3LYP) =  -470.858088552     A.U. after    9 cycles
 SCF Done:  E(RB3LYP) =  -470.858090107     A.U. after    9 cycles
 SCF Done:  E(RB3LYP) =  -470.862646806     A.U. after    9 cycles
 SCF Done:  E(RB3LYP) =  -470.862648399     A.U. after    7 cycles
 SCF Done:  E(RB3LYP) =  -470.862651960     A.U. after    9 cycles
 SCF Done:  E(RB3LYP) =  -470.862655870     A.U. after   10 cycles
 SCF Done:  E(RB3LYP) =  -470.862658183     A.U. after   10 cycles
 SCF Done:  E(RB3LYP) =  -470.862658559     A.U. after    8 cycles
 Optimization completed.
    -- Stationary point found.

 1\1\GINC-NODE310\FOpt\RB3LYP\6-31G(d)\C5H11N5\VSC10255\08-Dec-2020\0\\
 # opt freq B3LYP/6-31G(d) empiricaldispersion=gd3bj scf=xqc\\CID_10706
 6083_JID_652_neutraal\\0,1\C,2.1505690678,-0.1607719327,0.1482691344\N
 ,0.7235344555,0.0653545495,0.0198575647\C,0.0352791704,1.2363938756,0.
 0070104817\C,-1.2865048749,0.8677907364,-0.1363179486\N,-1.3258768331,
 -0.4992711416,-0.204681867\N,-0.11575928,-0.982801194,-0.1125346705\C,
 -2.521405705,1.7139576371,-0.2273870756\C,-3.4558675917,1.3100642042,-
 1.3773948698\N,-4.1431399116,0.0652911738,-1.0537135852\N,-4.944834714

 Normal termination of Gaussian 16 at Tue Dec  8 12:41:57 2020.

 --------------------------------------------------------------------
 #N Geom=AllCheck Guess=TCheck SCRF=Check GenChk RB3LYP/6-31G(d) Freq
 --------------------------------------------------------------------

 Structure from the checkpoint file:  "JID_652.chk"
 ------------------------------
 CID_107066083_JID_652_neutraal
 ------------------------------
 Charge =  0 Multiplicity = 1

 SCF Done:  E(RB3LYP) =  -470.862658559     A.U. after    1 cycles

  Exact polarizability: 113.692   1.742  81.922  -5.273  -1.769  57.321
 Approx polarizability: 145.991   3.874 132.614 -11.544  -6.939  86.922

                      1                      2                      3
                      A                      A                      A
 Frequencies --     29.5681                80.2851                91.3666
 Red. masses --      4.5287                 1.1467                 3.7197
 Frc consts  --      0.0023                 0.0044                 0.0183
 IR Inten    --      4.9367                 0.3848                10.7223

                      4                      5                      6
                      A                      A                      A
 Frequencies --    139.5522               156.9602               224.1547
 Red. masses --      2.3494                 3.1226                 2.6833
 Frc consts  --      0.0270                 0.0453                 0.0794
 IR Inten    --      3.0324                 6.3993                 9.2266

                      7                      8                      9
                      A                      A                      A
 Frequencies --    233.7073               272.8907               322.8376
 Red. masses --      3.6823                 1.4342                 1.8089
 Frc consts  --      0.1185                 0.0629                 0.1111
 IR Inten    --      4.8010                27.3774                10.6657

                     10                     11                     12
                      A                      A                      A
 Frequencies --    360.3553               409.8134               538.8578
 Red. masses --      3.5703                 3.4364                 2.8721
 Frc consts  --      0.2732                 0.3400                 0.4914
 IR Inten    --      1.0572                11.5184                 5.7417

                     13                     14                     15
                      A                      A                      A
 Frequencies --    613.4715               665.1600               726.0331
 Red. masses --      3.6274                 4.8879                 3.8816
 Frc consts  --      0.8043                 1.2742                 1.2055
 IR Inten    --      0.7650                 1.0653                 3.6680

                     16                     17                     18
                      A                      A                      A
 Frequencies --    754.5372               779.0765               822.0889
 Red. masses --      3.4500                 1.5700                 2.3014
 Frc consts  --      1.1573                 0.5615                 0.9164
 IR Inten    --      9.1747                19.1482                19.8287

                     19                     20                     21
                      A                      A                      A
 Frequencies --    897.1830               950.6078              1026.3633
 Red. masses --      1.6460                 1.6801                 2.4955
 Frc consts  --      0.7806                 0.8945                 1.5488
 IR Inten    --     47.8814                28.6816                33.5185

                     22                     23                     24
                      A                      A                      A
 Frequencies --   1041.4398              1067.8093              1070.0489
 Red. masses --      2.5083                 3.2555                 2.0227
 Frc consts  --      1.6028                 2.1870                 1.3645
 IR Inten    --     51.5780                19.8723                 6.2020

                     25                     26                     27
                      A                      A                      A
 Frequencies --   1084.8367              1132.3673              1159.9156
 Red. masses --      2.3334                 1.8114                 1.3061
 Frc consts  --      1.6180                 1.3685                 1.0354
 IR Inten    --      6.0616                 6.7738                 0.0428

                     28                     29                     30
                      A                      A                      A
 Frequencies --   1165.8857              1187.0771              1221.1412
 Red. masses --      1.7504                 2.1280                 1.2537
 Frc consts  --      1.4018                 1.7668                 1.1015
 IR Inten    --     10.7759                 6.5253                 2.2104

                     31                     32                     33
                      A                      A                      A
 Frequencies --   1281.5143              1297.2764              1327.0001
 Red. masses --      1.9051                 4.9479                 1.8809
 Frc consts  --      1.8434                 4.9061                 1.9514
 IR Inten    --      5.7566                35.1048                 7.8219

                     34                     35                     36
                      A                      A                      A
 Frequencies --   1337.4259              1369.5580              1397.3750
 Red. masses --      1.2714                 1.6166                 3.6826
 Frc consts  --      1.3398                 1.7866                 4.2367
 IR Inten    --      9.7861                23.0841                 4.7082

                     37                     38                     39
                      A                      A                      A
 Frequencies --   1406.5178              1460.3335              1492.9379
 Red. masses --      1.4312                 1.5178                 1.5607
 Frc consts  --      1.6682                 1.9071                 2.0496
 IR Inten    --      7.2435                15.3460                20.4219

                     40                     41                     42
                      A                      A                      A
 Frequencies --   1507.1788              1513.2501              1536.7332
 Red. masses --      1.4272                 1.0423                 1.1759
 Frc consts  --      1.9102                 1.4062                 1.6361
 IR Inten    --      3.6064                 9.3421                13.6675

                     43                     44                     45
                      A                      A                      A
 Frequencies --   1541.9948              1569.4762              1602.3321
 Red. masses --      1.1085                 1.1297                 5.7558
 Frc consts  --      1.5529                 1.6395                 8.7069
 IR Inten    --      3.2436                33.0986                 8.4593

                     46                     47                     48
                      A                      A                      A
 Frequencies --   1704.7688              2942.4379              3050.1904
 Red. masses --      1.0842                 1.0740                 1.0625
 Frc consts  --      1.8564                 5.4788                 5.8240
 IR Inten    --     10.8571                79.0808                18.1049

                     49                     50                     51
                      A                      A                      A
 Frequencies --   3072.2067              3090.6418              3097.5615
 Red. masses --      1.0340                 1.0922                 1.0965
 Frc consts  --      5.7498                 6.1468                 6.1986
 IR Inten    --     41.8339                34.8343                33.1146

                     52                     53                     54
                      A                      A                      A
 Frequencies --   3137.7167              3185.6968              3293.8018
 Red. masses --      1.1066                 1.1024                 1.0991
 Frc consts  --      6.4191                 6.5916                 7.0255
 IR Inten    --     15.1102                 1.3678                 0.2338

                     55                     56                     57
                      A                      A                      A
 Frequencies --   3378.1498              3437.7763              3531.9378
 Red. masses --      1.0562                 1.0749                 1.0858
 Frc consts  --      7.1015                 7.4847                 7.9808
 IR Inten    --     27.6428                28.4535                 0.6211

 - Thermochemistry -
 -------------------
 Temperature   298.150 Kelvin.  Pressure   1.00000 Atm.
 Atom     1 has atomic number  6 and mass  12.00000

 Molecular mass:   141.10145 amu.
 Principal axes and moments of inertia in atomic units:
                           1         2         3
     Eigenvalues --   486.197422812.340663153.92188
           X            0.99999   0.00472  -0.00188
           Y           -0.00470   0.99994   0.00954
           Z            0.00193  -0.00953   0.99995
 This molecule is an asymmetric top.
 Rotational symmetry number  1.
 Warning -- assumption of classical behavior for rotation
           may cause significant error
 Rotational temperatures (Kelvin)      0.17815     0.03080     0.02746
 Rotational constants (GHZ):           3.71195     0.64172     0.57222
 Zero-point vibrational energy     471264.0 (Joules/Mol)
                                  112.63479 (Kcal/Mol)
 Warning -- explicit consideration of  13 degrees of freedom as
           vibrations may cause significant error
 Vibrational temperatures:     42.54   115.51   131.46   200.78   225.83
          (Kelvin)            322.51   336.25   392.63   464.49   518.47
                              589.63   775.30   882.65   957.02  1044.60
                             1085.61  1120.92  1182.80  1290.85  1367.71
                             1476.71  1498.40  1536.34  1539.56  1560.84
                             1629.22  1668.86  1677.45  1707.94  1756.95
                             1843.81  1866.49  1909.26  1924.26  1970.49
                             2010.51  2023.67  2101.09  2148.00  2168.49
                             2177.23  2211.02  2218.59  2258.13  2305.40
                             2452.78  4233.51  4388.54  4420.22  4446.74
                             4456.70  4514.47  4583.51  4739.05  4860.40
                             4946.19  5081.67

 Zero-point correction=                           0.179495 (Hartree/Particle)
 Thermal correction to Energy=                    0.189828
 Thermal correction to Enthalpy=                  0.190772
 Thermal correction to Gibbs Free Energy=         0.142570
 Sum of electronic and zero-point Energies=           -470.683164
 Sum of electronic and thermal Energies=              -470.672831
 Sum of electronic and thermal Enthalpies=            -470.671887
 Sum of electronic and thermal Free Energies=         -470.720089

                     E (Thermal)             CV                S
                      KCal/Mol        Cal/Mol-Kelvin    Cal/Mol-Kelvin
 Total                  119.119             36.631            101.450
 Electronic               0.000              0.000              0.000
 Translational            0.889              2.981             40.744
 Rotational               0.889              2.981             29.846
 Vibrational            117.341             30.670             30.860
 Vibration     1          0.593              1.984              5.858
 Vibration     2          0.600              1.963              3.884
 Vibration     3          0.602              1.955              3.631
 Vibration     4          0.615              1.914              2.810
 Vibration     5          0.621              1.895              2.586
 Vibration     6          0.649              1.804              1.925
 Vibration     7          0.654              1.789              1.850
 Vibration     8          0.676              1.723              1.578
 Vibration     9          0.708              1.630              1.296
 Vibration    10          0.735              1.554              1.121
 Vibration    11          0.774              1.449              0.927
 Vibration    12          0.894              1.164              0.568
 Vibration    13          0.973              1.003              0.427

 Optimization completed.
    -- Stationary point found.

 1\1\GINC-NODE310\Freq\RB3LYP\6-31G(d)\C5H11N5\VSC10255\08-Dec-2020\0\\
 #N Geom=AllCheck Guess=TCheck SCRF=Check GenChk RB3LYP/6-31G(d) Freq\\
 CID_107066083_JID_652_neutraal\\0,1\C,2.1505690678,-0.1607719327,0.148
 2691344\N,0.7235344555,0.0653545495,0.0198575647\C,0.0352791704,1.2363
 938756,0.0070104817\C,-1.2865048749,0.8677907364,-0.1363179486\N,-1.32
 58768331,-0.4992711416,-0.204681867\N,-0.11575928,-0.982801194,-0.1125
 346705\C,-2.521405705,1.7139576371,-0.2273870756\C,-3.4558675917,1.310
 0642042,-1.3773948698\N,-4.1431399116,0.0652911738,-1.0537135852\N,-4.

 Normal termination of Gaussian 16 at Tue Dec  8 12:48:44 2020.

 ----------------------------------------------------------------------
 # B3LYP/6-311++G(d,p) empiricaldispersion=gd3bj scf=xqc pop=npa geom=c
 heck
 ----------------------------------------------------------------------

 --------------------------------------
 CID_107066083_JID_652_Energie_neutraal
 --------------------------------------
 Structure from the checkpoint file:  "JID_652.chk"
 Charge =  0 Multiplicity = 1

 SCF Done:  E(RB3LYP) =  -471.003977572     A.U. after   14 cycles
 Normal termination of Gaussian 16 at Tue Dec  8 13:04:04 2020.

 ----------------------------------------------------------------------
 # B3LYP/6-311++G(d,p) empiricaldispersion=gd3bj scf=xqc pop=npa geom=c
 heck
 ----------------------------------------------------------------------

 ------------------------------------
 CID_107066083_JID_652_Energie_kation
 ------------------------------------
 Structure from the checkpoint file:  "JID_652.chk"
 Charge =  1 Multiplicity = 2

 SCF Done:  E(UB3LYP) =  -470.694508189     A.U. after   26 cycles
 Normal termination of Gaussian 16 at Tue Dec  8 13:12:37 2020.
 Gaussian 16:  ES64L-G16RevA.03 25-Dec-2016

 -----------------------------------
 CID_107066083_JID_652_Energie_anion
 -----------------------------------
 Structure from the checkpoint file:  "JID_652.chk"
 Charge = -1 Multiplicity = 2

                         Standard orientation:
 ---------------------------------------------------------------------
 Center     Atomic      Atomic             Coordinates (Angstroms)
 Number     Number       Type             X           Y           Z
 ---------------------------------------------------------------------
      1          6           0        3.755943   -0.373967   -0.322701
      2          7           0        2.343407   -0.162470   -0.069598
      3          6           0        1.624317    0.989188   -0.111856
      4          6           0        0.337225    0.614217    0.214207
      5          7           0        0.346781   -0.737585    0.432433
      6          7           0        1.554055   -1.205986    0.259904
      7          6           0       -0.911193    1.438136    0.323211
      8          6           0       -2.117187    0.819216   -0.398858
      9          7           0       -2.619756   -0.325650    0.351661
     10          7           0       -3.689758   -0.940604   -0.379947
     11          1           0        3.946612   -1.440208   -0.198916
     12          1           0        4.011920   -0.070603   -1.342049
     13          1           0        4.362415    0.192739    0.389829
     14          1           0        2.065625    1.941807   -0.361943
     15          1           0       -1.181020    1.572263    1.378827
     16          1           0       -0.712386    2.433995   -0.087875
     17          1           0       -2.926681    1.553258   -0.467441
     18          1           0       -1.825132    0.561728   -1.434958
     19          1           0       -1.844707   -0.976658    0.493744
     20          1           0       -3.324248   -1.625954   -1.048770
     21          1           0       -4.250139   -1.457046    0.294367
 ---------------------------------------------------------------------

 SCF Done:  E(UB3LYP) =  -470.992561721     A.U. after   31 cycles

 The electronic state is 2-A.
 Alpha  occ. eigenvalues --  -14.30040 -14.26495 -14.23472 -14.22968 -14.22395
 Alpha  occ. eigenvalues --  -10.10631 -10.10431 -10.09979 -10.09696 -10.08259
 Alpha  occ. eigenvalues --   -0.99457  -0.86982  -0.81355  -0.72908  -0.69485
 Alpha  occ. eigenvalues --   -0.63631  -0.61688  -0.53454  -0.50199  -0.48425
 Alpha  occ. eigenvalues --   -0.42413  -0.41607  -0.39749  -0.38846  -0.37308
 Alpha  occ. eigenvalues --   -0.34882  -0.34684  -0.31261  -0.30960  -0.28474
 Alpha  occ. eigenvalues --   -0.27608  -0.27461  -0.23060  -0.18711  -0.18083
 Alpha  occ. eigenvalues --   -0.17030  -0.15276  -0.14293   0.04685
 Alpha virt. eigenvalues --    0.06513   0.07577   0.08109   0.09279   0.09461
 Alpha virt. eigenvalues --    0.10666   0.11004   0.11182   0.12013   0.12880
 Alpha virt. eigenvalues --    0.12966   0.13946   0.14809   0.15962   0.17199

  Beta  occ. eigenvalues --  -14.30040 -14.26484 -14.23467 -14.22963 -14.22392
  Beta  occ. eigenvalues --  -10.10590 -10.10345 -10.09980 -10.09690 -10.08246
  Beta  occ. eigenvalues --   -0.99448  -0.86976  -0.81338  -0.72891  -0.69465
  Beta  occ. eigenvalues --   -0.63565  -0.61640  -0.53431  -0.50139  -0.48379
  Beta  occ. eigenvalues --   -0.42382  -0.41531  -0.39731  -0.38813  -0.37282
  Beta  occ. eigenvalues --   -0.34838  -0.34626  -0.31205  -0.30886  -0.28451
  Beta  occ. eigenvalues --   -0.27581  -0.27445  -0.23037  -0.18686  -0.18073
  Beta  occ. eigenvalues --   -0.17021  -0.15259  -0.14279
  Beta virt. eigenvalues --    0.06442   0.07846   0.08459   0.08523   0.09348
  Beta virt. eigenvalues --    0.10300   0.10839   0.11779   0.12024   0.12563
  Beta virt. eigenvalues --    0.12984   0.13667   0.14049   0.15152   0.15854

 Mulliken charges and spin densities:
               1          2
     1  C    2.434239  -2.708954
     2  N   -0.181744   0.279667
     3  C    1.135822  -1.513209
     4  C   -0.565214   0.785609
     5  N   -0.425865  -0.002430
     6  N   -0.043108   0.256556
     7  C    0.221025  -0.663529
     8  C   -0.136583  -0.368186
     9  N   -0.254305   0.055105
    10  N   -0.376208  -0.028285
    11  H   -0.286067   0.457640
    12  H   -0.929990   1.120174
    13  H   -0.877147   1.068911
    14  H   -1.467252   1.672245
    15  H    0.123602   0.050151
    16  H   -0.138114   0.289303
    17  H    0.107257   0.053201
    18  H    0.027503   0.095651
    19  H    0.240189   0.043589
    20  H    0.164712   0.035923
    21  H    0.227248   0.020869
 Sum of Mulliken charges =  -1.00000   1.00000

 Dipole moment (field-independent basis, Debye):
    X=            -10.9731    Y=             -3.5830    Z=              1.7871  Tot=             11.6808
 Quadrupole moment (field-independent basis, Debye-Ang):
   XX=           -151.0131   YY=            -95.4195   ZZ=            -89.6700
   XY=             -6.7327   XZ=              7.3302   YZ=              4.3735

 Summary of Natural Population Analysis:

                                       Natural Population
                Natural  -----------------------------------------------
    Atom  No    Charge         Core      Valence    Rydberg      Total
 -----------------------------------------------------------------------
      C    1   -0.17613      0.99963     2.16790    0.00860     3.17613
      N    2   -0.09740      0.99968     2.58372    0.01400     3.59740
      C    3   -0.01470      0.99947     2.00360    0.01164     3.01470
      C    4    0.04362      0.99957     1.94182    0.01499     2.95638
      N    5   -0.16417      0.99970     2.65019    0.01428     3.66417
      N    6   -0.04336      0.99978     2.52735    0.01624     3.54336
      C    7   -0.21200      0.99959     2.20126    0.01116     3.21200
      C    8   -0.08263      0.99964     2.06960    0.01339     3.08263
      N    9   -0.26443      0.99973     2.75174    0.01295     3.76443
      N   10   -0.33192      0.99978     2.82129    0.01085     3.83192
      H   11    0.10868      0.00000     0.38901    0.00231     0.39132
      H   12    0.10819      0.00000     0.38477    0.00704     0.39181
      H   13    0.10751      0.00000     0.38643    0.00606     0.39249
      H   14    0.11786      0.00000     0.37456    0.00758     0.38214
      H   15    0.10657      0.00000     0.39178    0.00165     0.39343
      H   16    0.10895      0.00000     0.39000    0.00105     0.39105
      H   17    0.09339      0.00000     0.40502    0.00160     0.40661
      H   18    0.08038      0.00000     0.41838    0.00124     0.41962
      H   19    0.18043      0.00000     0.31517    0.00440     0.31957
      H   20    0.16064      0.00000     0.33756    0.00179     0.33936
      H   21    0.17053      0.00000     0.32795    0.00153     0.32947
 =======================================================================
   * Total *   -0.00000      9.99656    27.83909    0.16434    38.00000

 Normal termination of Gaussian 16 at Tue Dec  8 13:23:55 2020.
