 Gaussian 16, Revision A.03,

 -----------------------------------------------------------
 # opt freq B3LYP/6-31G(d) empiricaldispersion=gd3bj scf=xqc
 -----------------------------------------------------------

 ------------------------------
 CID_90288071_JID_3314_neutraal
 ------------------------------
 Symbolic Z-matrix:
 Charge =  0 Multiplicity = 1

 SCF Done:  E(RB3LYP) =  -612.564327371     A.U. after   15 cycles
 SCF Done:  E(RB3LYP) =  -612.569190783     A.U. after   13 cycles
 SCF Done:  E(RB3LYP) =  -612.570800319     A.U. after   13 cycles
 SCF Done:  E(RB3LYP) =  -612.571439630     A.U. after   12 cycles
 SCF Done:  E(RB3LYP) =  -612.572814665     A.U. after   13 cycles
 SCF Done:  E(RB3LYP) =  -612.573604807     A.U. after   12 cycles
 SCF Done:  E(RB3LYP) =  -612.573915949     A.U. after   12 cycles
 SCF Done:  E(RB3LYP) =  -612.574130029     A.U. after   12 cycles
 SCF Done:  E(RB3LYP) =  -612.574220116     A.U. after   11 cycles
 SCF Done:  E(RB3LYP) =  -612.574260400     A.U. after   11 cycles
 SCF Done:  E(RB3LYP) =  -612.574273716     A.U. after    9 cycles
 SCF Done:  E(RB3LYP) =  -612.574274598     A.U. after    8 cycles
 SCF Done:  E(RB3LYP) =  -612.574274685     A.U. after    7 cycles
 SCF Done:  E(RB3LYP) =  -612.574274756     A.U. after    7 cycles
 SCF Done:  E(RB3LYP) =  -612.574274812     A.U. after    7 cycles
 Optimization completed.
    -- Stationary point found.
 Normal termination of Gaussian 16 at Wed Dec  9 22:55:16 2020.

 --------------------------------------------------------------------
 #N Geom=AllCheck Guess=TCheck SCRF=Check GenChk RB3LYP/6-31G(d) Freq
 --------------------------------------------------------------------

 Structure from the checkpoint file:  "JID_3314.chk"
 ------------------------------
 CID_90288071_JID_3314_neutraal
 ------------------------------
 Charge =  0 Multiplicity = 1

 SCF Done:  E(RB3LYP) =  -612.574274812     A.U. after    1 cycles

  Exact polarizability: 129.230   3.975 145.055   1.320   5.574  83.140
 Approx polarizability: 166.595   8.814 230.003   3.284   6.734 123.187

                      1                      2                      3
                      A                      A                      A
 Frequencies --     25.1388                52.1924                77.1817
 Red. masses --      3.3099                 3.0619                 3.6559
 Frc consts  --      0.0012                 0.0049                 0.0128
 IR Inten    --      0.2582                 0.5461                 1.1314

                      4                      5                      6
                      A                      A                      A
 Frequencies --     94.1444                95.4525               109.7543
 Red. masses --      2.9457                 3.0961                 2.9683
 Frc consts  --      0.0154                 0.0166                 0.0211
 IR Inten    --      2.2661                 1.0884                 0.1489

                      7                      8                      9
                      A                      A                      A
 Frequencies --    146.1787               181.6270               209.6150
 Red. masses --      3.0340                 2.9814                 1.2872
 Frc consts  --      0.0382                 0.0579                 0.0333
 IR Inten    --      2.8195                10.9347                 6.7508

                     10                     11                     12
                      A                      A                      A
 Frequencies --    213.7883               218.6126               251.6856
 Red. masses --      1.9775                 1.3290                 1.6504
 Frc consts  --      0.0533                 0.0374                 0.0616
 IR Inten    --      2.5713                 4.6403               136.5555

                     13                     14                     15
                      A                      A                      A
 Frequencies --    269.9601               275.1421               292.0197
 Red. masses --      1.3776                 1.6718                 3.3154
 Frc consts  --      0.0592                 0.0746                 0.1666
 IR Inten    --     52.4897                32.2823                22.5118

                     16                     17                     18
                      A                      A                      A
 Frequencies --    332.9066               361.2127               403.5159
 Red. masses --      3.3415                 4.1951                 3.5228
 Frc consts  --      0.2182                 0.3225                 0.3380
 IR Inten    --      2.6064                 3.1911                 7.9044

                     19                     20                     21
                      A                      A                      A
 Frequencies --    420.5535               492.9268               500.7371
 Red. masses --      3.2909                 4.0439                 1.9622
 Frc consts  --      0.3429                 0.5789                 0.2899
 IR Inten    --      5.7587                 1.1335                 7.7983

                     22                     23                     24
                      A                      A                      A
 Frequencies --    532.5793               602.9518               693.7166
 Red. masses --      1.4360                 2.9056                 4.5197
 Frc consts  --      0.2400                 0.6224                 1.2815
 IR Inten    --      9.4755                 1.0524                24.3887

                     25                     26                     27
                      A                      A                      A
 Frequencies --    709.8136               780.6502               810.7341
 Red. masses --      5.6282                 4.9541                 1.1809
 Frc consts  --      1.6707                 1.7788                 0.4573
 IR Inten    --      2.4857                17.2007                 1.7813

                     28                     29                     30
                      A                      A                      A
 Frequencies --    819.4618               854.1932               895.8447
 Red. masses --      1.1126                 4.3968                 2.2058
 Frc consts  --      0.4402                 1.8902                 1.0430
 IR Inten    --      0.1468                23.3606                 3.6327

                     31                     32                     33
                      A                      A                      A
 Frequencies --    913.1045               944.6390               987.0759
 Red. masses --      2.8689                 1.8712                 3.1649
 Frc consts  --      1.4093                 0.9838                 1.8168
 IR Inten    --     10.2623                15.1342                14.3889

                     34                     35                     36
                      A                      A                      A
 Frequencies --   1027.6606              1059.5094              1094.9568
 Red. masses --      2.4953                 3.2058                 1.4019
 Frc consts  --      1.5527                 2.1203                 0.9903
 IR Inten    --     13.1222                29.9732                33.2978

                     37                     38                     39
                      A                      A                      A
 Frequencies --   1099.7790              1143.0133              1145.5895
 Red. masses --      1.7516                 1.3770                 3.0441
 Frc consts  --      1.2483                 1.0600                 2.3538
 IR Inten    --      7.4373                 2.9327                90.8080

                     40                     41                     42
                      A                      A                      A
 Frequencies --   1150.7744              1173.8199              1193.9377
 Red. masses --      3.9299                 1.4648                 1.5392
 Frc consts  --      3.0663                 1.1891                 1.2928
 IR Inten    --    224.2114                 1.1746                 3.8985

                     43                     44                     45
                      A                      A                      A
 Frequencies --   1200.4886              1288.0541              1302.9776
 Red. masses --      1.9368                 1.4643                 1.1044
 Frc consts  --      1.6446                 1.4314                 1.1047
 IR Inten    --      4.5371                29.6044                 0.5098

                     46                     47                     48
                      A                      A                      A
 Frequencies --   1321.5033              1364.9733              1401.1415
 Red. masses --      3.1757                 1.4038                 1.7104
 Frc consts  --      3.2676                 1.5411                 1.9784
 IR Inten    --    280.7119                16.5122                58.9472

                     49                     50                     51
                      A                      A                      A
 Frequencies --   1422.9389              1431.6668              1441.5383
 Red. masses --      1.7687                 1.2303                 1.4315
 Frc consts  --      2.1100                 1.4858                 1.7527
 IR Inten    --     82.0434                 6.4443                23.8035

                     52                     53                     54
                      A                      A                      A
 Frequencies --   1450.0661              1452.1896              1501.5080
 Red. masses --      1.3846                 1.1971                 1.0485
 Frc consts  --      1.7153                 1.4874                 1.3927
 IR Inten    --      4.0067                 7.5786                19.1681

                     55                     56                     57
                      A                      A                      A
 Frequencies --   1517.0607              1520.2832              1524.7511
 Red. masses --      1.0410                 1.0604                 1.0477
 Frc consts  --      1.4115                 1.4440                 1.4351
 IR Inten    --      5.7704                 3.2445                 8.2716

                     58                     59                     60
                      A                      A                      A
 Frequencies --   1529.2187              1533.0778              1542.0951
 Red. masses --      1.0671                 1.0618                 1.0742
 Frc consts  --      1.4703                 1.4703                 1.5051
 IR Inten    --      2.5985                 2.2095                10.9767

                     61                     62                     63
                      A                      A                      A
 Frequencies --   1548.9643              1629.1284              1689.6361
 Red. masses --      1.0877                 4.4735                 1.3003
 Frc consts  --      1.5376                 6.9953                 2.1871
 IR Inten    --      0.8368               203.7103               256.9200

                     64                     65                     66
                      A                      A                      A
 Frequencies --   1722.1420              1772.9857              3008.4162
 Red. masses --      8.3631                11.8785                 1.0449
 Frc consts  --     14.6135                22.0000                 5.5720
 IR Inten    --     47.8617               330.7660                48.1874

                     67                     68                     69
                      A                      A                      A
 Frequencies --   3039.0107              3052.8843              3057.2163
 Red. masses --      1.0735                 1.0850                 1.0376
 Frc consts  --      5.8413                 5.9582                 5.7138
 IR Inten    --     39.4567                45.4841                26.6050

                     70                     71                     72
                      A                      A                      A
 Frequencies --   3058.6751              3074.0582              3090.3062
 Red. masses --      1.0355                 1.0581                 1.0886
 Frc consts  --      5.7076                 5.8910                 6.1252
 IR Inten    --     22.0222                19.2254                44.2218

                     73                     74                     75
                      A                      A                      A
 Frequencies --   3109.2969              3117.5657              3118.1118
 Red. masses --      1.1072                 1.1024                 1.1017
 Frc consts  --      6.3066                 6.3127                 6.3110
 IR Inten    --      3.4311                18.5388                30.3850

                     76                     77                     78
                      A                      A                      A
 Frequencies --   3130.3716              3137.0155              3156.1394
 Red. masses --      1.1018                 1.1055                 1.0997
 Frc consts  --      6.3614                 6.4096                 6.4539
 IR Inten    --     32.0632                42.4116                16.8968

                     79                     80                     81
                      A                      A                      A
 Frequencies --   3178.5959              3604.4753              3715.4807
 Red. masses --      1.0907                 1.0463                 1.1032
 Frc consts  --      6.4927                 8.0089                 8.9730
 IR Inten    --      7.6390                66.3188                36.3352

 - Thermochemistry -
 -------------------
 Temperature   298.150 Kelvin.  Pressure   1.00000 Atm.
 Atom     1 has atomic number  6 and mass  12.00000

 Molecular mass:   184.12118 amu.
 Principal axes and moments of inertia in atomic units:
                           1         2         3
     Eigenvalues --  2025.729272745.088604253.10627
           X            0.99999  -0.00462   0.00112
           Y            0.00461   0.99995   0.00840
           Z           -0.00116  -0.00839   0.99996
 This molecule is an asymmetric top.
 Rotational symmetry number  1.
 Warning -- assumption of classical behavior for rotation
           may cause significant error
 Rotational temperatures (Kelvin)      0.04276     0.03155     0.02036
 Rotational constants (GHZ):           0.89091     0.65744     0.42433
 Zero-point vibrational energy     654442.0 (Joules/Mol)
                                  156.41539 (Kcal/Mol)
 Warning -- explicit consideration of  23 degrees of freedom as
           vibrations may cause significant error
 Vibrational temperatures:     36.17    75.09   111.05   135.45   137.33
          (Kelvin)            157.91   210.32   261.32   301.59   307.59
                              314.53   362.12   388.41   395.87   420.15
                              478.98   519.70   580.57   605.08   709.21
                              720.45   766.26   867.51   998.10  1021.26
                             1123.18  1166.47  1179.02  1228.99  1288.92
                             1313.75  1359.12  1420.18  1478.57  1524.40
                             1575.40  1582.34  1644.54  1648.25  1655.71
                             1688.86  1717.81  1727.24  1853.22  1874.69
                             1901.35  1963.89  2015.93  2047.29  2059.85
                             2074.05  2086.32  2089.38  2160.34  2182.71
                             2187.35  2193.78  2200.20  2205.76  2218.73
                             2228.61  2343.95  2431.01  2477.78  2550.93
                             4328.44  4372.46  4392.42  4398.65  4400.75
                             4422.88  4446.26  4473.58  4485.48  4486.27
                             4503.91  4513.47  4540.98  4573.29  5186.04
                             5345.75

 Zero-point correction=                           0.249264 (Hartree/Particle)
 Thermal correction to Energy=                    0.264683
 Thermal correction to Enthalpy=                  0.265627
 Thermal correction to Gibbs Free Energy=         0.206212
 Sum of electronic and zero-point Energies=           -612.325011
 Sum of electronic and thermal Energies=              -612.309592
 Sum of electronic and thermal Enthalpies=            -612.308647
 Sum of electronic and thermal Free Energies=         -612.368063

                     E (Thermal)             CV                S
                      KCal/Mol        Cal/Mol-Kelvin    Cal/Mol-Kelvin
 Total                  166.091             55.016            125.050
 Electronic               0.000              0.000              0.000
 Translational            0.889              2.981             41.538
 Rotational               0.889              2.981             31.537
 Vibrational            164.314             49.054             51.976
 Vibration     1          0.593              1.985              6.180
 Vibration     2          0.596              1.977              4.733
 Vibration     3          0.599              1.964              3.961
 Vibration     4          0.603              1.953              3.572
 Vibration     5          0.603              1.952              3.545
 Vibration     6          0.606              1.941              3.273
 Vibration     7          0.617              1.907              2.721
 Vibration     8          0.630              1.865              2.312
 Vibration     9          0.642              1.826              2.047
 Vibration    10          0.644              1.820              2.011
 Vibration    11          0.646              1.813              1.971
 Vibration    12          0.664              1.760              1.719
 Vibration    13          0.674              1.728              1.596
 Vibration    14          0.677              1.719              1.564
 Vibration    15          0.687              1.689              1.462
 Vibration    16          0.715              1.610              1.246
 Vibration    17          0.735              1.552              1.117
 Vibration    18          0.769              1.463              0.950
 Vibration    19          0.783              1.426              0.890
 Vibration    20          0.849              1.266              0.676
 Vibration    21          0.856              1.248              0.656
 Vibration    22          0.888              1.178              0.581
 Vibration    23          0.961              1.026              0.445

                           ! Non-Optimized Parameters !
 Normal termination of Gaussian 16 at Wed Dec  9 23:02:26 2020.

 ----------------------------------------------------------------------
 # B3LYP/6-311++G(d,p) empiricaldispersion=gd3bj scf=xqc pop=npa geom=c
 heck
 ----------------------------------------------------------------------

 --------------------------------------
 CID_90288071_JID_3314_Energie_neutraal
 --------------------------------------
 Structure from the checkpoint file:  "JID_3314.chk"
 Charge =  0 Multiplicity = 1

 SCF Done:  E(RB3LYP) =  -612.757458594     A.U. after   15 cycles
 Normal termination of Gaussian 16 at Wed Dec  9 23:05:21 2020.

 ----------------------------------------------------------------------
 # B3LYP/6-311++G(d,p) empiricaldispersion=gd3bj scf=xqc pop=npa geom=c
 heck
 ----------------------------------------------------------------------

 ------------------------------------
 CID_90288071_JID_3314_Energie_kation
 ------------------------------------
 Structure from the checkpoint file:  "JID_3314.chk"
 Charge =  1 Multiplicity = 2

 SCF Done:  E(UB3LYP) =  -612.460891178     A.U. after   27 cycles
 Normal termination of Gaussian 16 at Wed Dec  9 23:12:01 2020.
 Gaussian 16:  ES64L-G16RevA.03 25-Dec-2016

 ----------------------------------------------------------------------
 # B3LYP/6-311++G(d,p) empiricaldispersion=gd3bj scf=xqc pop=npa geom=c
 heck
 ----------------------------------------------------------------------

 -----------------------------------
 CID_90288071_JID_3314_Energie_anion
 -----------------------------------
 Structure from the checkpoint file:  "JID_3314.chk"
 Charge = -1 Multiplicity = 2

                         Standard orientation:
 ---------------------------------------------------------------------
 Center     Atomic      Atomic             Coordinates (Angstroms)
 Number     Number       Type             X           Y           Z
 ---------------------------------------------------------------------
      1          6           0        1.312258    2.473392   -0.988416
      2          6           0        0.726656    2.195874    0.405921
      3          6           0       -0.626439    1.527332    0.329016
      4          6           0       -0.890067    0.176923    0.368921
      5          6           0       -2.315387   -0.239867    0.475293
      6          7           0       -2.967244   -1.123744   -0.172806
      7          6           0       -2.305759   -1.880755   -1.219713
      8          6           0        0.118744   -0.884601    0.455259
      9          8           0       -0.114449   -2.028128    0.808652
     10          8           0        1.372948   -0.499728    0.072652
     11          6           0        2.387550   -1.517534    0.170734
     12          6           0        3.696879   -0.890797   -0.268947
     13          7           0       -1.659862    2.416720    0.216687
     14          1           0        1.482882    1.531798   -1.514923
     15          1           0        2.267703    3.001600   -0.902733
     16          1           0        0.635778    3.090505   -1.590694
     17          1           0        1.416454    1.576313    0.975278
     18          1           0        0.603585    3.141850    0.951047
     19          1           0       -2.894278    0.311649    1.227937
     20          1           0       -1.455984   -1.356820   -1.682880
     21          1           0       -1.929450   -2.819470   -0.798550
     22          1           0       -3.041304   -2.122022   -1.994644
     23          1           0        2.431680   -1.883069    1.201519
     24          1           0        2.103593   -2.363131   -0.463558
     25          1           0        3.964053   -0.047797    0.376943
     26          1           0        4.502202   -1.631450   -0.218234
     27          1           0        3.628579   -0.526260   -1.299075
     28          1           0       -1.458089    3.399723    0.120258
     29          1           0       -2.562266    2.108804   -0.113699
 ---------------------------------------------------------------------

 SCF Done:  E(UB3LYP) =  -612.751756115     A.U. after   33 cycles
 SCF Done:  E(UB3LYP) =  -612.751756115     a.u. after    1 cycles

 The electronic state is 2-A.
 Alpha  occ. eigenvalues --  -19.04457 -18.97765 -14.22437 -14.18596 -10.17296
 Alpha  occ. eigenvalues --  -10.12427 -10.11214 -10.09202 -10.07320 -10.07204
 Alpha  occ. eigenvalues --  -10.06151 -10.05136 -10.04842  -0.98311  -0.89263
 Alpha  occ. eigenvalues --   -0.82899  -0.79769  -0.68617  -0.66476  -0.64247
 Alpha  occ. eigenvalues --   -0.58978  -0.55200  -0.53406  -0.48705  -0.46688
 Alpha  occ. eigenvalues --   -0.43611  -0.43125  -0.38893  -0.38318  -0.36446
 Alpha  occ. eigenvalues --   -0.35110  -0.34617  -0.32620  -0.32161  -0.31822
 Alpha  occ. eigenvalues --   -0.30891  -0.30178  -0.29226  -0.28485  -0.26378
 Alpha  occ. eigenvalues --   -0.25881  -0.24827  -0.24332  -0.23417  -0.22387
 Alpha  occ. eigenvalues --   -0.19222  -0.18427  -0.15925  -0.13380  -0.10920
 Alpha  occ. eigenvalues --    0.04341
 Alpha virt. eigenvalues --    0.06659   0.06792   0.08361   0.08702   0.09466
 Alpha virt. eigenvalues --    0.09864   0.10311   0.10607   0.10833   0.11547
 Alpha virt. eigenvalues --    0.12152   0.12609   0.13107   0.14079   0.14225

  Beta  occ. eigenvalues --  -19.04438 -18.97701 -14.22351 -14.18557 -10.17234
  Beta  occ. eigenvalues --  -10.12423 -10.10964 -10.09167 -10.07321 -10.07182
  Beta  occ. eigenvalues --  -10.06149 -10.05157 -10.04779  -0.98242  -0.89168
  Beta  occ. eigenvalues --   -0.82631  -0.79681  -0.68499  -0.66358  -0.64166
  Beta  occ. eigenvalues --   -0.58921  -0.55016  -0.53298  -0.48546  -0.46575
  Beta  occ. eigenvalues --   -0.43546  -0.43039  -0.38819  -0.38185  -0.36368
  Beta  occ. eigenvalues --   -0.35034  -0.34508  -0.32514  -0.32055  -0.31754
  Beta  occ. eigenvalues --   -0.30749  -0.30133  -0.29180  -0.28196  -0.26315
  Beta  occ. eigenvalues --   -0.25751  -0.24743  -0.24198  -0.23349  -0.21992
  Beta  occ. eigenvalues --   -0.19031  -0.18227  -0.15861  -0.13326  -0.10503
  Beta virt. eigenvalues --    0.06686   0.07568   0.08062   0.08711   0.09007
  Beta virt. eigenvalues --    0.09927   0.10117   0.10676   0.11063   0.11132
  Beta virt. eigenvalues --    0.11900   0.12433   0.12795   0.13254   0.14144

 Mulliken charges and spin densities:
               1          2
     1  C    0.795329  -1.404174
     2  C   -1.928466   1.676405
     3  C   -0.506024   0.266487
     4  C    3.358574  -1.818077
     5  C   -0.101725  -0.403091
     6  N   -0.071032   0.030175
     7  C   -0.412012  -0.025020
     8  C   -0.623534  -0.365265
     9  O   -0.271057   0.018278
    10  O   -0.056818   0.004490
    11  C   -0.090188   0.128760
    12  C    0.102082  -0.736958
    13  N   -0.449435   0.170119
    14  H    0.160089  -0.023203
    15  H   -0.620612   0.770029
    16  H   -0.179573   0.310396
    17  H    0.153629   0.006050
    18  H   -0.834113   1.015074
    19  H    0.129727   0.063384
    20  H    0.115122   0.006311
    21  H    0.165911   0.021062
    22  H    0.119472   0.004822
    23  H    0.110405   0.067061
    24  H    0.134569   0.025851
    25  H   -0.063680   0.216353
    26  H    0.024116   0.104709
    27  H   -0.087242   0.238573
    28  H   -0.271176   0.555888
    29  H    0.197663   0.075510
 Sum of Mulliken charges =  -1.00000   1.00000

 Dipole moment (field-independent basis, Debye):
    X=              0.0493    Y=             -5.9515    Z=             -1.4967  Tot=              6.1370
 Quadrupole moment (field-independent basis, Debye-Ang):
   XX=           -125.6083   YY=           -145.9251   ZZ=           -100.4282
   XY=            -13.6497   XZ=              4.8558   YZ=              1.6961

 Summary of Natural Population Analysis:

                                       Natural Population
                Natural  -----------------------------------------------
    Atom  No    Charge         Core      Valence    Rydberg      Total
 -----------------------------------------------------------------------
      C    1   -0.27713      0.99965     2.27167    0.00581     3.27713
      C    2   -0.21413      0.99960     2.20391    0.01062     3.21413
      C    3    0.19722      0.99951     1.79008    0.01320     2.80278
      C    4   -0.18088      0.99938     2.17063    0.01087     3.18088
      C    5    0.06444      0.99961     1.91725    0.01870     2.93556
      N    6   -0.22766      0.99968     2.71588    0.01209     3.72766
      C    7   -0.19953      0.99964     2.19167    0.00822     3.19953
      C    8    0.40322      0.99961     1.57321    0.02396     2.59678
      O    9   -0.32270      0.99987     3.31735    0.00547     4.32270
      O   10   -0.29259      0.99986     3.28366    0.00906     4.29259
      C   11   -0.01403      0.99959     2.00364    0.01080     3.01403
      C   12   -0.29255      0.99966     2.28845    0.00444     3.29255
      N   13   -0.37444      0.99969     2.86577    0.00898     3.87444
      H   14    0.10143      0.00000     0.39702    0.00154     0.39857
      H   15    0.10148      0.00000     0.39595    0.00257     0.39852
      H   16    0.09405      0.00000     0.40453    0.00142     0.40595
      H   17    0.11245      0.00000     0.38598    0.00157     0.38755
      H   18    0.10380      0.00000     0.39127    0.00493     0.39620
      H   19    0.07799      0.00000     0.41944    0.00257     0.42201
      H   20    0.08560      0.00000     0.41281    0.00160     0.41440
      H   21    0.10471      0.00000     0.39358    0.00171     0.39529
      H   22    0.08643      0.00000     0.41228    0.00129     0.41357
      H   23    0.08760      0.00000     0.41087    0.00153     0.41240
      H   24    0.08707      0.00000     0.41130    0.00163     0.41293
      H   25    0.10204      0.00000     0.39651    0.00145     0.39796
      H   26    0.09636      0.00000     0.40266    0.00098     0.40364
      H   27    0.10093      0.00000     0.39768    0.00139     0.39907
      H   28    0.19639      0.00000     0.30048    0.00313     0.30361
      H   29    0.19241      0.00000     0.30592    0.00167     0.30759
 =======================================================================
   * Total *    0.00000     12.99535    36.83144    0.17321    50.00000

 Normal termination of Gaussian 16 at Wed Dec  9 23:20:20 2020.
