 Gaussian 16, Revision A.03,

 -----------------------------------------------------------
 # opt freq B3LYP/6-31G(d) empiricaldispersion=gd3bj scf=xqc
 -----------------------------------------------------------

 -------------------------------
 CID_131165919_JID_3416_neutraal
 -------------------------------
 Symbolic Z-matrix:
 Charge =  0 Multiplicity = 1

 SCF Done:  E(RB3LYP) =  -558.011594242     A.U. after   13 cycles
 SCF Done:  E(RB3LYP) =  -558.018384284     A.U. after   11 cycles
 SCF Done:  E(RB3LYP) =  -558.019017267     A.U. after   11 cycles
 SCF Done:  E(RB3LYP) =  -558.019137094     A.U. after   10 cycles
 SCF Done:  E(RB3LYP) =  -558.019204234     A.U. after   10 cycles
 SCF Done:  E(RB3LYP) =  -558.019231119     A.U. after    9 cycles
 SCF Done:  E(RB3LYP) =  -558.019254113     A.U. after    9 cycles
 SCF Done:  E(RB3LYP) =  -558.019260107     A.U. after    9 cycles
 SCF Done:  E(RB3LYP) =  -558.019263141     A.U. after    9 cycles
 SCF Done:  E(RB3LYP) =  -558.019267258     A.U. after    9 cycles
 SCF Done:  E(RB3LYP) =  -558.019268549     A.U. after    8 cycles
 SCF Done:  E(RB3LYP) =  -558.019268736     A.U. after    8 cycles
 SCF Done:  E(RB3LYP) =  -558.019268985     A.U. after    7 cycles
 SCF Done:  E(RB3LYP) =  -558.019269160     A.U. after    7 cycles
 SCF Done:  E(RB3LYP) =  -558.019269225     A.U. after    7 cycles
 SCF Done:  E(RB3LYP) =  -558.019269257     A.U. after    7 cycles
 Optimization completed.
    -- Stationary point found.
 Normal termination of Gaussian 16 at Wed Dec  9 23:16:27 2020.

 --------------------------------------------------------------------
 #N Geom=AllCheck Guess=TCheck SCRF=Check GenChk RB3LYP/6-31G(d) Freq
 --------------------------------------------------------------------

 Structure from the checkpoint file:  "JID_3416.chk"
 -------------------------------
 CID_131165919_JID_3416_neutraal
 -------------------------------
 Charge =  0 Multiplicity = 1

 SCF Done:  E(RB3LYP) =  -558.019269257     A.U. after    1 cycles

  Exact polarizability: 156.450  -1.404 114.784   7.068  -4.578 104.073
 Approx polarizability: 186.076  -4.095 166.075   9.020 -15.780 158.981

                      1                      2                      3
                      A                      A                      A
 Frequencies --     17.1136                49.8207                59.7380
 Red. masses --      3.6670                 3.1912                 3.2471
 Frc consts  --      0.0006                 0.0047                 0.0068
 IR Inten    --      0.5368                 0.4525                 2.6452

                      4                      5                      6
                      A                      A                      A
 Frequencies --    115.8646               123.2850               154.7396
 Red. masses --      1.9281                 1.5117                 2.7777
 Frc consts  --      0.0153                 0.0135                 0.0392
 IR Inten    --      4.7407                 2.0111                 2.3045

                      7                      8                      9
                      A                      A                      A
 Frequencies --    169.6502               197.2867               248.6037
 Red. masses --      2.5943                 2.8278                 2.2835
 Frc consts  --      0.0440                 0.0648                 0.0832
 IR Inten    --      2.3394                 1.1345                 2.0378

                     10                     11                     12
                      A                      A                      A
 Frequencies --    264.8953               298.7028               312.0535
 Red. masses --      1.9318                 2.8799                 2.7335
 Frc consts  --      0.0799                 0.1514                 0.1568
 IR Inten    --      1.2972                 0.3210                 1.2671

                     13                     14                     15
                      A                      A                      A
 Frequencies --    332.2951               366.9381               381.7382
 Red. masses --      2.6046                 2.0564                 1.2303
 Frc consts  --      0.1695                 0.1631                 0.1056
 IR Inten    --      1.7443                 4.5871                35.5884

                     16                     17                     18
                      A                      A                      A
 Frequencies --    394.2838               473.2658               489.3229
 Red. masses --      2.0038                 2.7488                 1.5976
 Frc consts  --      0.1835                 0.3627                 0.2254
 IR Inten    --      2.4725                24.0089                 9.3623

                     19                     20                     21
                      A                      A                      A
 Frequencies --    512.6470               544.9275               608.5242
 Red. masses --      1.9241                 2.0521                 1.9036
 Frc consts  --      0.2979                 0.3590                 0.4153
 IR Inten    --      8.3589                88.9517                80.2996

                     22                     23                     24
                      A                      A                      A
 Frequencies --    668.4943               680.9945               725.0880
 Red. masses --      1.4919                 2.7301                 2.4817
 Frc consts  --      0.3928                 0.7460                 0.7687
 IR Inten    --    161.4167                 6.6804                10.2708

                     25                     26                     27
                      A                      A                      A
 Frequencies --    748.9070               808.1830               826.3663
 Red. masses --      3.3697                 2.4548                 1.8556
 Frc consts  --      1.1135                 0.9447                 0.7466
 IR Inten    --    109.2366                 0.1314                 3.4083

                     28                     29                     30
                      A                      A                      A
 Frequencies --    845.1499               865.9489               900.1927
 Red. masses --      1.8700                 1.4494                 3.5996
 Frc consts  --      0.7870                 0.6403                 1.7186
 IR Inten    --      0.8011                 0.5545                 9.1512

                     31                     32                     33
                      A                      A                      A
 Frequencies --    930.7561               957.6684               984.1521
 Red. masses --      2.1293                 2.0560                 2.0798
 Frc consts  --      1.0868                 1.1110                 1.1868
 IR Inten    --      5.9090                 2.7959                 1.7311

                     34                     35                     36
                      A                      A                      A
 Frequencies --    999.2518              1006.0869              1048.3678
 Red. masses --      1.8266                 1.8995                 1.9124
 Frc consts  --      1.0746                 1.1328                 1.2384
 IR Inten    --      3.9889                 1.3883                 2.9923

                     37                     38                     39
                      A                      A                      A
 Frequencies --   1060.3386              1085.1279              1107.5982
 Red. masses --      1.7980                 1.9631                 1.9106
 Frc consts  --      1.1910                 1.3619                 1.3810
 IR Inten    --      4.2226                 2.0824                 0.3706

                     40                     41                     42
                      A                      A                      A
 Frequencies --   1125.6057              1127.2080              1141.0449
 Red. masses --      1.6156                 1.7702                 1.7038
 Frc consts  --      1.2060                 1.3252                 1.3070
 IR Inten    --      3.5214                 1.7397                 1.9114

                     43                     44                     45
                      A                      A                      A
 Frequencies --   1157.9630              1173.3299              1190.3195
 Red. masses --      1.5541                 2.0151                 1.7292
 Frc consts  --      1.2277                 1.6345                 1.4435
 IR Inten    --     13.4529                 2.7291                 2.1750

                     46                     47                     48
                      A                      A                      A
 Frequencies --   1219.8126              1239.9007              1251.9812
 Red. masses --      2.3149                 1.2241                 1.2980
 Frc consts  --      2.0294                 1.1088                 1.1988
 IR Inten    --     43.7356                 1.0191                 0.6568

                     49                     50                     51
                      A                      A                      A
 Frequencies --   1268.1249              1292.7024              1315.2205
 Red. masses --      1.1993                 1.1882                 1.2458
 Frc consts  --      1.1363                 1.1699                 1.2697
 IR Inten    --     26.7184                37.1228                 1.7910

                     52                     53                     54
                      A                      A                      A
 Frequencies --   1327.2874              1349.9238              1356.9239
 Red. masses --      1.2122                 1.5985                 1.3143
 Frc consts  --      1.2583                 1.7162                 1.4258
 IR Inten    --      7.2825                50.3081                 5.2235

                     55                     56                     57
                      A                      A                      A
 Frequencies --   1377.1313              1390.5317              1397.1473
 Red. masses --      1.3473                 1.5199                 1.4056
 Frc consts  --      1.5054                 1.7316                 1.6166
 IR Inten    --     10.5253                11.5049                 5.0050

                     58                     59                     60
                      A                      A                      A
 Frequencies --   1407.1683              1412.3302              1415.8596
 Red. masses --      1.4579                 1.4757                 1.4437
 Frc consts  --      1.7009                 1.7343                 1.7052
 IR Inten    --     12.9188                 5.3668                 4.1620

                     61                     62                     63
                      A                      A                      A
 Frequencies --   1421.7744              1430.6060              1469.6207
 Red. masses --      1.4361                 1.4477                 1.1895
 Frc consts  --      1.7103                 1.7457                 1.5136
 IR Inten    --      3.9593                 4.8172                66.1381

                     64                     65                     66
                      A                      A                      A
 Frequencies --   1510.8732              1516.9812              1517.9899
 Red. masses --      1.0851                 1.0910                 1.1000
 Frc consts  --      1.4593                 1.4792                 1.4934
 IR Inten    --      1.0172                 1.3738                 1.1003

                     67                     68                     69
                      A                      A                      A
 Frequencies --   1518.7743              1522.0792              1530.0084
 Red. masses --      1.0939                 1.0680                 1.1099
 Frc consts  --      1.4867                 1.4579                 1.5309
 IR Inten    --      3.9417                 8.3400                 2.9927

                     70                     71                     72
                      A                      A                      A
 Frequencies --   1534.4026              1537.4280              1540.0495
 Red. masses --      1.1101                 1.1141                 1.0507
 Frc consts  --      1.5398                 1.5515                 1.4683
 IR Inten    --     11.1495                14.8715                 5.9606

                     73                     74                     75
                      A                      A                      A
 Frequencies --   1545.7743              1675.7461              1761.1894
 Red. masses --      1.5185                 1.1801                 5.5273
 Frc consts  --      2.1377                 1.9524                10.1013
 IR Inten    --    219.9086                98.8546               351.7743

                     76                     77                     78
                      A                      A                      A
 Frequencies --   2949.7157              2995.6078              3010.7088
 Red. masses --      1.0534                 1.0743                 1.0789
 Frc consts  --      5.4003                 5.6801                 5.7618
 IR Inten    --    107.3808                34.6376                12.0093

                     79                     80                     81
                      A                      A                      A
 Frequencies --   3011.5719              3014.1730              3016.7797
 Red. masses --      1.0886                 1.0704                 1.0621
 Frc consts  --      5.8171                 5.7300                 5.6951
 IR Inten    --     90.9834                10.9206                27.2449

                     82                     83                     84
                      A                      A                      A
 Frequencies --   3019.5146              3027.2033              3034.4689
 Red. masses --      1.0666                 1.0633                 1.0675
 Frc consts  --      5.7297                 5.7412                 5.7913
 IR Inten    --     27.0088                 9.7122                31.8174

                     85                     86                     87
                      A                      A                      A
 Frequencies --   3040.0230              3056.6921              3058.9774
 Red. masses --      1.0692                 1.0921                 1.1007
 Frc consts  --      5.8221                 6.0121                 6.0681
 IR Inten    --     21.8001               111.9324                 3.3906

                     88                     89                     90
                      A                      A                      A
 Frequencies --   3064.4134              3069.1352              3077.5220
 Red. masses --      1.0995                 1.0979                 1.0971
 Frc consts  --      6.0832                 6.0931                 6.1220
 IR Inten    --     77.8684                75.9988                25.4469

                     91                     92                     93
                      A                      A                      A
 Frequencies --   3083.3901              3103.8345              3136.2577
 Red. masses --      1.0992                 1.0916                 1.0886
 Frc consts  --      6.1572                 6.1959                 6.3087
 IR Inten    --    107.5489                44.5200                 9.3497

                     94                     95                     96
                      A                      A                      A
 Frequencies --   3545.8642              3570.8599              3651.9702
 Red. masses --      1.0494                 1.0741                 1.0957
 Frc consts  --      7.7741                 8.0691                 8.6095
 IR Inten    --      8.2184                 4.8380                11.0750

 - Thermochemistry -
 -------------------
 Temperature   298.150 Kelvin.  Pressure   1.00000 Atm.
 Atom     1 has atomic number  6 and mass  12.00000

 Molecular mass:   183.17355 amu.
 Principal axes and moments of inertia in atomic units:
                           1         2         3
     Eigenvalues --  1072.748625151.416785395.65410
           X            0.99999   0.00169   0.00339
           Y           -0.00173   0.99994   0.01109
           Z           -0.00337  -0.01109   0.99993
 This molecule is an asymmetric top.
 Rotational symmetry number  1.
 Warning -- assumption of classical behavior for rotation
           may cause significant error
 Rotational temperatures (Kelvin)      0.08074     0.01681     0.01605
 Rotational constants (GHZ):           1.68235     0.35034     0.33448
 Zero-point vibrational energy     824668.9 (Joules/Mol)
                                  197.10059 (Kcal/Mol)
 Warning -- explicit consideration of  21 degrees of freedom as
           vibrations may cause significant error
 Vibrational temperatures:     24.62    71.68    85.95   166.70   177.38
          (Kelvin)            222.64   244.09   283.85   357.69   381.13
                              429.77   448.98   478.10   527.94   549.24
                              567.29   680.92   704.03   737.58   784.03
                              875.53   961.81   979.80  1043.24  1077.51
                             1162.80  1188.96  1215.98  1245.91  1295.18
                             1339.15  1377.87  1415.98  1437.70  1447.53
                             1508.37  1525.59  1561.26  1593.59  1619.50
                             1621.80  1641.71  1666.05  1688.16  1712.60
                             1755.04  1783.94  1801.32  1824.55  1859.91
                             1892.31  1909.67  1942.24  1952.31  1981.38
                             2000.66  2010.18  2024.60  2032.03  2037.11
                             2045.62  2058.32  2114.46  2173.81  2182.60
                             2184.05  2185.18  2189.93  2201.34  2207.66
                             2212.02  2215.79  2224.02  2411.02  2533.96
                             4243.98  4310.01  4331.74  4332.98  4336.72
                             4340.47  4344.41  4355.47  4365.92  4373.92
                             4397.90  4401.19  4409.01  4415.80  4427.87
                             4436.31  4465.73  4512.38  5101.71  5137.67
                             5254.37

 Zero-point correction=                           0.314100 (Hartree/Particle)
 Thermal correction to Energy=                    0.328308
 Thermal correction to Enthalpy=                  0.329252
 Thermal correction to Gibbs Free Energy=         0.272152
 Sum of electronic and zero-point Energies=           -557.705169
 Sum of electronic and thermal Energies=              -557.690961
 Sum of electronic and thermal Enthalpies=            -557.690017
 Sum of electronic and thermal Free Energies=         -557.747117

                     E (Thermal)             CV                S
                      KCal/Mol        Cal/Mol-Kelvin    Cal/Mol-Kelvin
 Total                  206.016             54.198            120.177
 Electronic               0.000              0.000              0.000
 Translational            0.889              2.981             41.522
 Rotational               0.889              2.981             31.767
 Vibrational            204.239             48.236             46.888
 Vibration     1          0.593              1.986              6.944
 Vibration     2          0.595              1.978              4.824
 Vibration     3          0.597              1.973              4.466
 Vibration     4          0.608              1.936              3.168
 Vibration     5          0.610              1.930              3.048
 Vibration     6          0.620              1.897              2.613
 Vibration     7          0.625              1.880              2.439
 Vibration     8          0.637              1.844              2.158
 Vibration     9          0.662              1.765              1.740
 Vibration    10          0.671              1.737              1.629
 Vibration    11          0.692              1.676              1.424
 Vibration    12          0.700              1.651              1.351
 Vibration    13          0.714              1.611              1.249
 Vibration    14          0.740              1.540              1.093
 Vibration    15          0.751              1.509              1.032
 Vibration    16          0.761              1.482              0.984
 Vibration    17          0.830              1.309              0.728
 Vibration    18          0.845              1.274              0.685
 Vibration    19          0.868              1.222              0.627
 Vibration    20          0.900              1.151              0.555
 Vibration    21          0.967              1.014              0.435

 Optimization completed.
    -- Stationary point found.
 Normal termination of Gaussian 16 at Wed Dec  9 23:26:22 2020.

 ----------------------------------------------------------------------
 # B3LYP/6-311++G(d,p) empiricaldispersion=gd3bj scf=xqc pop=npa geom=c
 heck
 ----------------------------------------------------------------------

 ---------------------------------------
 CID_131165919_JID_3416_Energie_neutraal
 ---------------------------------------
 Structure from the checkpoint file:  "JID_3416.chk"
 Charge =  0 Multiplicity = 1

 SCF Done:  E(RB3LYP) =  -558.184471727     A.U. after   13 cycles
 Normal termination of Gaussian 16 at Wed Dec  9 23:31:00 2020.

 ----------------------------------------------------------------------
 # B3LYP/6-311++G(d,p) empiricaldispersion=gd3bj scf=xqc pop=npa geom=c
 heck
 ----------------------------------------------------------------------

 -------------------------------------
 CID_131165919_JID_3416_Energie_kation
 -------------------------------------
 Structure from the checkpoint file:  "JID_3416.chk"
 Charge =  1 Multiplicity = 2

 SCF Done:  E(UB3LYP) =  -557.889053747     A.U. after   22 cycles
 Normal termination of Gaussian 16 at Wed Dec  9 23:41:58 2020.
 Gaussian 16:  ES64L-G16RevA.03 25-Dec-2016

 ----------------------------------------------------------------------
 # B3LYP/6-311++G(d,p) empiricaldispersion=gd3bj scf=xqc pop=npa geom=c
 heck
 ----------------------------------------------------------------------

 ------------------------------------
 CID_131165919_JID_3416_Energie_anion
 ------------------------------------
 Structure from the checkpoint file:  "JID_3416.chk"
 Charge = -1 Multiplicity = 2

                         Standard orientation:
 ---------------------------------------------------------------------
 Center     Atomic      Atomic             Coordinates (Angstroms)
 Number     Number       Type             X           Y           Z
 ---------------------------------------------------------------------
      1          6           0        4.722624   -0.092688    0.404557
      2          7           0        3.332732   -0.494141    0.323963
      3          6           0        2.529287    0.234789   -0.357475
      4          7           0        2.860009    1.332789   -1.165064
      5          7           0        1.160698   -0.019698   -0.372102
      6          6           0        0.654761   -1.219962    0.285201
      7          6           0       -0.857233   -1.137502    0.547529
      8          6           0       -1.213501    0.066457    1.456184
      9          6           0       -1.687632    1.361230    0.773458
     10          6           0       -3.180523    1.364443    0.409508
     11          6           0       -3.586083    0.466937   -0.765351
     12          6           0       -3.168830   -1.006903   -0.656175
     13          6           0       -1.650712   -1.228025   -0.769976
     14          1           0        5.220782   -0.676695    1.184794
     15          1           0        4.864376    0.973646    0.661587
     16          1           0        5.267605   -0.277395   -0.535425
     17          1           0        2.178417    2.082851   -1.130377
     18          1           0        3.800048    1.680154   -1.026093
     19          1           0        0.745535    0.158995   -1.279001
     20          1           0        0.890734   -2.125456   -0.297038
     21          1           0        1.197850   -1.309911    1.227707
     22          1           0       -1.098423   -2.047778    1.115338
     23          1           0       -1.996640   -0.239635    2.162709
     24          1           0       -0.331591    0.292200    2.066962
     25          1           0       -1.074162    1.573665   -0.110656
     26          1           0       -1.509799    2.192447    1.468112
     27          1           0       -3.492172    2.392064    0.178461
     28          1           0       -3.751546    1.067615    1.301783
     29          1           0       -3.157061    0.874954   -1.692852
     30          1           0       -4.676269    0.523777   -0.885300
     31          1           0       -3.666340   -1.560220   -1.462723
     32          1           0       -3.542346   -1.438257    0.283556
     33          1           0       -1.262552   -0.504629   -1.501974
     34          1           0       -1.453465   -2.217701   -1.201898
 ---------------------------------------------------------------------

 SCF Done:  E(UB3LYP) =  -558.172316189     A.U. after   31 cycles

 The electronic state is 2-A.
 Alpha  occ. eigenvalues --  -14.21482 -14.21349 -14.16599 -10.15533 -10.09156
 Alpha  occ. eigenvalues --  -10.08185 -10.07656 -10.06986 -10.06935 -10.06555
 Alpha  occ. eigenvalues --  -10.06414 -10.06383 -10.05998  -0.87356  -0.78591
 Alpha  occ. eigenvalues --   -0.75639  -0.72797  -0.67517  -0.66207  -0.59830
 Alpha  occ. eigenvalues --   -0.57953  -0.55354  -0.52598  -0.47319  -0.45962
 Alpha  occ. eigenvalues --   -0.44385  -0.42317  -0.40811  -0.38237  -0.37535
 Alpha  occ. eigenvalues --   -0.35733  -0.34478  -0.33220  -0.32784  -0.32536
 Alpha  occ. eigenvalues --   -0.31125  -0.30608  -0.29431  -0.28986  -0.27722
 Alpha  occ. eigenvalues --   -0.27052  -0.25665  -0.23238  -0.22677  -0.22491
 Alpha  occ. eigenvalues --   -0.21599  -0.21017  -0.20753  -0.15628  -0.14485
 Alpha  occ. eigenvalues --   -0.12168   0.04325
 Alpha virt. eigenvalues --    0.06038   0.07172   0.07429   0.08010   0.08837
 Alpha virt. eigenvalues --    0.09632   0.09972   0.10123   0.10657   0.10952
 Alpha virt. eigenvalues --    0.11073   0.12158   0.12824   0.13163   0.13440

  Beta  occ. eigenvalues --  -14.21464 -14.21280 -14.16595 -10.15528 -10.09151
  Beta  occ. eigenvalues --  -10.08153 -10.07656 -10.06972 -10.06920 -10.06536
  Beta  occ. eigenvalues --  -10.06400 -10.06377 -10.05980  -0.87321  -0.78547
  Beta  occ. eigenvalues --   -0.75574  -0.72772  -0.67489  -0.66179  -0.59790
  Beta  occ. eigenvalues --   -0.57904  -0.55317  -0.52559  -0.47266  -0.45897
  Beta  occ. eigenvalues --   -0.44345  -0.42237  -0.40759  -0.38198  -0.37504
  Beta  occ. eigenvalues --   -0.35707  -0.34431  -0.33194  -0.32752  -0.32505
  Beta  occ. eigenvalues --   -0.31099  -0.30579  -0.29402  -0.28963  -0.27690
  Beta  occ. eigenvalues --   -0.27020  -0.25628  -0.23213  -0.22644  -0.22468
  Beta  occ. eigenvalues --   -0.21573  -0.20990  -0.20726  -0.15582  -0.14462
  Beta  occ. eigenvalues --   -0.12144
  Beta virt. eigenvalues --    0.06337   0.07129   0.07558   0.07777   0.08466
  Beta virt. eigenvalues --    0.09376   0.09946   0.10132   0.10441   0.10897
  Beta virt. eigenvalues --    0.11221   0.11516   0.12483   0.12981   0.13289

 Mulliken charges and spin densities:
               1          2
     1  C    0.610862  -1.050741
     2  N   -0.219443   0.035282
     3  C    0.120678  -0.320363
     4  N   -0.270293  -0.041574
     5  N   -0.072273   0.023453
     6  C   -0.080344  -0.710349
     7  C    0.097667   0.302781
     8  C    0.379946  -0.572591
     9  C   -0.302311   0.070507
    10  C   -0.281220  -0.163530
    11  C    0.779611  -1.170727
    12  C   -0.835464   0.662378
    13  C    0.133154  -0.540767
    14  H    0.039363   0.083578
    15  H   -0.303184   0.427176
    16  H   -0.191939   0.344719
    17  H   -0.437120   0.691859
    18  H   -0.239156   0.496140
    19  H    0.027359   0.246793
    20  H    0.165831  -0.018258
    21  H    0.171560   0.028452
    22  H    0.119476   0.065346
    23  H    0.052534   0.073232
    24  H    0.197169  -0.025822
    25  H    0.287817  -0.136953
    26  H   -0.189477   0.343967
    27  H   -0.189277   0.345115
    28  H    0.024777   0.101216
    29  H   -0.287404   0.443382
    30  H   -0.135331   0.283173
    31  H   -0.175189   0.339827
    32  H    0.010603   0.103091
    33  H   -0.018305   0.092213
    34  H    0.009325   0.147996
 Sum of Mulliken charges =  -1.00000   1.00000

 Dipole moment (field-independent basis, Debye):
    X=             -3.2645    Y=             -4.9924    Z=              3.0291  Tot=              6.6900
 Quadrupole moment (field-independent basis, Debye-Ang):
   XX=           -170.0791   YY=           -125.8371   ZZ=           -115.2150
   XY=             -5.7757   XZ=             -2.8337   YZ=              2.7984

 Summary of Natural Population Analysis:

                                       Natural Population
                Natural  -----------------------------------------------
    Atom  No    Charge         Core      Valence    Rydberg      Total
 -----------------------------------------------------------------------
      C    1   -0.19167      0.99965     2.18326    0.00877     3.19167
      N    2   -0.30919      0.99964     2.79846    0.01109     3.80919
      C    3    0.31140      0.99960     1.67251    0.01649     2.68860
      N    4   -0.41682      0.99972     2.90660    0.01050     3.91682
      N    5   -0.33109      0.99967     2.82098    0.01044     3.83109
      C    6   -0.08191      0.99959     2.07159    0.01072     3.08191
      C    7   -0.10908      0.99958     2.10005    0.00946     3.10908
      C    8   -0.19054      0.99961     2.18150    0.00943     3.19054
      C    9   -0.19544      0.99962     2.18620    0.00961     3.19544
      C   10   -0.18732      0.99962     2.17905    0.00864     3.18732
      C   11   -0.18659      0.99962     2.17872    0.00824     3.18659
      C   12   -0.19152      0.99963     2.18288    0.00902     3.19152
      C   13   -0.19174      0.99961     2.18325    0.00888     3.19174
      H   14    0.09139      0.00000     0.40740    0.00120     0.40861
      H   15    0.08303      0.00000     0.41492    0.00205     0.41697
      H   16    0.08684      0.00000     0.41179    0.00136     0.41316
      H   17    0.19424      0.00000     0.29975    0.00601     0.30576
      H   18    0.19246      0.00000     0.30252    0.00502     0.30754
      H   19    0.18535      0.00000     0.31104    0.00362     0.31465
      H   20    0.08590      0.00000     0.41265    0.00145     0.41410
      H   21    0.10815      0.00000     0.39016    0.00169     0.39185
      H   22    0.09364      0.00000     0.40503    0.00133     0.40636
      H   23    0.09205      0.00000     0.40674    0.00121     0.40795
      H   24    0.10265      0.00000     0.39623    0.00112     0.39735
      H   25    0.10003      0.00000     0.39784    0.00214     0.39997
      H   26    0.09874      0.00000     0.40024    0.00102     0.40126
      H   27    0.09873      0.00000     0.40020    0.00107     0.40127
      H   28    0.08789      0.00000     0.41089    0.00122     0.41211
      H   29    0.09374      0.00000     0.40464    0.00161     0.40626
      H   30    0.09632      0.00000     0.40257    0.00111     0.40368
      H   31    0.09885      0.00000     0.40014    0.00101     0.40115
      H   32    0.09149      0.00000     0.40740    0.00110     0.40851
      H   33    0.09135      0.00000     0.40682    0.00183     0.40865
      H   34    0.09867      0.00000     0.40020    0.00113     0.40133
 =======================================================================
   * Total *    0.00000     12.99516    37.83424    0.17059    51.00000

 Normal termination of Gaussian 16 at Wed Dec  9 23:57:15 2020.
