 Gaussian 16, Revision A.03,

 -----------------------------------------------------------
 # opt freq B3LYP/6-31G(d) empiricaldispersion=gd3bj scf=xqc
 -----------------------------------------------------------

 ------------------------------
 CID_60724847_JID_5919_neutraal
 ------------------------------
 Symbolic Z-matrix:
 Charge =  0 Multiplicity = 1

 SCF Done:  E(RB3LYP) =  -707.200556358     A.U. after   14 cycles
 SCF Done:  E(RB3LYP) =  -707.204555439     A.U. after   12 cycles
 SCF Done:  E(RB3LYP) =  -707.205378663     A.U. after   12 cycles
 SCF Done:  E(RB3LYP) =  -707.205867334     A.U. after   12 cycles
 SCF Done:  E(RB3LYP) =  -707.206373655     A.U. after   14 cycles
 SCF Done:  E(RB3LYP) =  -707.206766456     A.U. after   12 cycles
 SCF Done:  E(RB3LYP) =  -707.207031670     A.U. after   12 cycles
 SCF Done:  E(RB3LYP) =  -707.207170820     A.U. after   12 cycles
 SCF Done:  E(RB3LYP) =  -707.207179755     A.U. after   11 cycles
 SCF Done:  E(RB3LYP) =  -707.207214699     A.U. after   11 cycles
 SCF Done:  E(RB3LYP) =  -707.207921030     A.U. after    9 cycles
 SCF Done:  E(RB3LYP) =  -707.207921568     A.U. after    9 cycles
 SCF Done:  E(RB3LYP) =  -707.207921597     A.U. after    7 cycles
 SCF Done:  E(RB3LYP) =  -707.207921605     A.U. after    7 cycles
 SCF Done:  E(RB3LYP) =  -707.207921606     A.U. after    6 cycles
 Optimization completed.
    -- Stationary point found.
 Normal termination of Gaussian 16 at Thu Dec 10 17:51:43 2020.

 --------------------------------------------------------------------
 #N Geom=AllCheck Guess=TCheck SCRF=Check GenChk RB3LYP/6-31G(d) Freq
 --------------------------------------------------------------------

 Structure from the checkpoint file:  "JID_5919.chk"
 ------------------------------
 CID_60724847_JID_5919_neutraal
 ------------------------------
 Charge =  0 Multiplicity = 1

 SCF Done:  E(RB3LYP) =  -707.207921606     A.U. after    1 cycles

  Exact polarizability: 159.406   5.935 125.518   7.757   0.336 104.893
 Approx polarizability: 193.836   5.086 195.625  10.768  -0.606 150.598

                      1                      2                      3
                      A                      A                      A
 Frequencies --     14.4334                22.0368                33.5274
 Red. masses --      3.8702                 3.1356                 4.1169
 Frc consts  --      0.0005                 0.0009                 0.0027
 IR Inten    --      0.5490                 0.3223                 0.4083

                      4                      5                      6
                      A                      A                      A
 Frequencies --     47.9863                61.1417                82.2083
 Red. masses --      3.2885                 3.8631                 3.2895
 Frc consts  --      0.0045                 0.0085                 0.0131
 IR Inten    --      0.7489                 0.7758                 1.4038

                      7                      8                      9
                      A                      A                      A
 Frequencies --     88.1118               136.4288               175.0994
 Red. masses --      2.5642                 3.9400                 1.9823
 Frc consts  --      0.0117                 0.0432                 0.0358
 IR Inten    --      3.4669                 0.4882                 1.9259

                     10                     11                     12
                      A                      A                      A
 Frequencies --    215.5342               228.5713               237.1882
 Red. masses --      2.6355                 1.1193                 2.0726
 Frc consts  --      0.0721                 0.0345                 0.0687
 IR Inten    --      1.3767                 0.7015                 5.0116

                     13                     14                     15
                      A                      A                      A
 Frequencies --    252.0490               254.5208               299.9721
 Red. masses --      1.6424                 1.2973                 3.1861
 Frc consts  --      0.0615                 0.0495                 0.1689
 IR Inten    --      1.6319                 0.0498                 2.3456

                     16                     17                     18
                      A                      A                      A
 Frequencies --    309.7832               329.7149               363.5713
 Red. masses --      2.4576                 2.3026                 3.0640
 Frc consts  --      0.1390                 0.1475                 0.2386
 IR Inten    --      5.8642                 1.4714                 2.0036

                     19                     20                     21
                      A                      A                      A
 Frequencies --    407.5833               413.8315               426.8288
 Red. masses --      2.8834                 3.1617                 2.0330
 Frc consts  --      0.2822                 0.3190                 0.2182
 IR Inten    --      1.8164                 0.2092                 0.3823

                     22                     23                     24
                      A                      A                      A
 Frequencies --    454.1397               557.1170               668.4142
 Red. masses --      3.6189                 2.4730                 6.2929
 Frc consts  --      0.4397                 0.4522                 1.6565
 IR Inten    --      4.1689                 6.6450                 2.2564

                     25                     26                     27
                      A                      A                      A
 Frequencies --    683.8963               779.6609               784.8262
 Red. masses --      3.9769                 3.4068                 1.5949
 Frc consts  --      1.0959                 1.2201                 0.5788
 IR Inten    --      7.5458                12.4396               118.1560

                     28                     29                     30
                      A                      A                      A
 Frequencies --    813.6281               837.8539               859.6769
 Red. masses --      4.5376                 3.0037                 2.2013
 Frc consts  --      1.7698                 1.2423                 0.9585
 IR Inten    --     11.7147                 1.2685                20.5058

                     31                     32                     33
                      A                      A                      A
 Frequencies --    898.6005               911.1908               921.3607
 Red. masses --      2.0756                 3.4056                 2.1280
 Frc consts  --      0.9875                 1.6659                 1.0643
 IR Inten    --      5.5791                13.7905                 7.2441

                     34                     35                     36
                      A                      A                      A
 Frequencies --    947.3421               964.8713               981.0412
 Red. masses --      1.1974                 2.1156                 1.5169
 Frc consts  --      0.6331                 1.1604                 0.8602
 IR Inten    --      2.5403                 0.5043                 0.0064

                     37                     38                     39
                      A                      A                      A
 Frequencies --   1011.5444              1024.7914              1032.4984
 Red. masses --      2.0081                 3.3586                 5.4645
 Frc consts  --      1.2106                 2.0782                 3.4322
 IR Inten    --      4.9178                17.3458                 8.9542

                     40                     41                     42
                      A                      A                      A
 Frequencies --   1069.1907              1089.5976              1128.0541
 Red. masses --      7.1583                 1.9867                 1.7218
 Frc consts  --      4.8214                 1.3897                 1.2909
 IR Inten    --      1.8524                42.0580                 0.5150

                     43                     44                     45
                      A                      A                      A
 Frequencies --   1143.1981              1153.3249              1171.4323
 Red. masses --      2.1525                 2.0469                 3.1487
 Frc consts  --      1.6574                 1.6042                 2.5458
 IR Inten    --      6.5123                 2.2333                87.0562

                     46                     47                     48
                      A                      A                      A
 Frequencies --   1180.2655              1198.0015              1206.2498
 Red. masses --      2.7847                 1.4639                 1.7186
 Frc consts  --      2.2856                 1.2378                 1.4733
 IR Inten    --     61.3530                 0.5078                11.2380

                     49                     50                     51
                      A                      A                      A
 Frequencies --   1214.1575              1250.2796              1257.9779
 Red. masses --      1.4854                 1.7134                 1.5404
 Frc consts  --      1.2902                 1.5781                 1.4362
 IR Inten    --     11.8268                28.7005                12.8182

                     52                     53                     54
                      A                      A                      A
 Frequencies --   1272.7330              1301.2945              1329.1448
 Red. masses --      1.1910                 1.8175                 1.2545
 Frc consts  --      1.1366                 1.8133                 1.3058
 IR Inten    --      7.3235                46.1886                 7.7461

                     55                     56                     57
                      A                      A                      A
 Frequencies --   1334.3773              1378.7421              1388.6424
 Red. masses --      1.3731                 1.7151                 1.4307
 Frc consts  --      1.4405                 1.9209                 1.6255
 IR Inten    --      3.4160                46.4396                 4.3922

                     58                     59                     60
                      A                      A                      A
 Frequencies --   1400.3889              1408.8721              1431.2602
 Red. masses --      1.4526                 1.8021                 1.4113
 Frc consts  --      1.6784                 2.1075                 1.7034
 IR Inten    --     69.6717                33.0503                14.5847

                     61                     62                     63
                      A                      A                      A
 Frequencies --   1432.8084              1438.7515              1453.3621
 Red. masses --      1.2629                 1.9361                 1.2313
 Frc consts  --      1.5276                 2.3613                 1.5324
 IR Inten    --      3.7530                32.9668                 5.4744

                     64                     65                     66
                      A                      A                      A
 Frequencies --   1500.1244              1501.1479              1503.4221
 Red. masses --      1.0924                 1.1255                 1.1604
 Frc consts  --      1.4484                 1.4943                 1.5454
 IR Inten    --      3.6366                 6.1697                 3.6081

                     67                     68                     69
                      A                      A                      A
 Frequencies --   1515.2693              1518.1410              1524.0673
 Red. masses --      1.0488                 1.0453                 1.0539
 Frc consts  --      1.4189                 1.4195                 1.4424
 IR Inten    --      4.7380                 1.7161                 3.5506

                     70                     71                     72
                      A                      A                      A
 Frequencies --   1529.5564              1531.9671              1534.3350
 Red. masses --      1.0882                 1.0755                 1.0728
 Frc consts  --      1.5000                 1.4871                 1.4880
 IR Inten    --      7.5892                 7.8042                16.7380

                     73                     74                     75
                      A                      A                      A
 Frequencies --   1535.7008              1539.6129              1557.6414
 Red. masses --      1.2081                 1.0614                 1.1102
 Frc consts  --      1.6786                 1.4823                 1.5870
 IR Inten    --     27.5427                10.2723                 8.2257

                     76                     77                     78
                      A                      A                      A
 Frequencies --   1567.3436              1635.8307              2932.7492
 Red. masses --      6.5045                 9.3911                 1.0725
 Frc consts  --      9.4144                14.8062                 5.4352
 IR Inten    --      6.2587                96.1522                36.0734

                     79                     80                     81
                      A                      A                      A
 Frequencies --   2974.2749              2993.9676              3000.8629
 Red. masses --      1.0524                 1.0396                 1.1054
 Frc consts  --      5.4852                 5.4903                 5.8649
 IR Inten    --     34.6204                80.2011                82.1313

                     82                     83                     84
                      A                      A                      A
 Frequencies --   3030.9201              3036.0942              3039.0810
 Red. masses --      1.0827                 1.1051                 1.0363
 Frc consts  --      5.8599                 6.0017                 5.6391
 IR Inten    --      6.0579                65.9612                24.1321

                     85                     86                     87
                      A                      A                      A
 Frequencies --   3046.4298              3055.0978              3060.6340
 Red. masses --      1.0401                 1.0617                 1.0607
 Frc consts  --      5.6874                 5.8384                 5.8544
 IR Inten    --     26.7748                52.0978                21.7918

                     88                     89                     90
                      A                      A                      A
 Frequencies --   3077.6860              3100.2724              3102.3479
 Red. masses --      1.0855                 1.1051                 1.1013
 Frc consts  --      6.0581                 6.2584                 6.2451
 IR Inten    --     18.0647                31.1975                 7.8390

                     91                     92                     93
                      A                      A                      A
 Frequencies --   3106.3805              3113.6181              3115.8696
 Red. masses --      1.1017                 1.1019                 1.1022
 Frc consts  --      6.2637                 6.2940                 6.3047
 IR Inten    --     23.2416                49.1991                41.7127

                     94                     95                     96
                      A                      A                      A
 Frequencies --   3140.0146              3142.5825              3512.3320
 Red. masses --      1.0968                 1.0994                 1.0736
 Frc consts  --      6.3713                 6.3971                 7.8034
 IR Inten    --     27.6609                19.5218                 7.6804

 - Thermochemistry -
 -------------------
 Temperature   298.150 Kelvin.  Pressure   1.00000 Atm.
 Atom     1 has atomic number  6 and mass  12.00000

 Molecular mass:   213.14773 amu.
 Principal axes and moments of inertia in atomic units:
                           1         2         3
     Eigenvalues --  1897.341357429.716948308.74764
           X            0.99984   0.01694  -0.00638
           Y           -0.01681   0.99967   0.01942
           Z            0.00671  -0.01931   0.99979
 This molecule is an asymmetric top.
 Rotational symmetry number  1.
 Warning -- assumption of classical behavior for rotation
           may cause significant error
 Rotational temperatures (Kelvin)      0.04565     0.01166     0.01042
 Rotational constants (GHZ):           0.95119     0.24291     0.21721
 Zero-point vibrational energy     779008.5 (Joules/Mol)
                                  186.18751 (Kcal/Mol)
 Warning -- explicit consideration of  23 degrees of freedom as
           vibrations may cause significant error
 Vibrational temperatures:     20.77    31.71    48.24    69.04    87.97
          (Kelvin)            118.28   126.77   196.29   251.93   310.11
                              328.86   341.26   362.64   366.20   431.59
                              445.71   474.39   523.10   586.42   595.41
                              614.11   653.41   801.57   961.70   983.97
                             1121.76  1129.19  1170.63  1205.48  1236.88
                             1292.89  1311.00  1325.63  1363.01  1388.23
                             1411.50  1455.39  1474.45  1485.53  1538.33
                             1567.69  1623.02  1644.81  1659.38  1685.43
                             1698.14  1723.66  1735.52  1746.90  1798.87
                             1809.95  1831.18  1872.27  1912.34  1919.87
                             1983.70  1997.95  2014.85  2027.05  2059.26
                             2061.49  2070.04  2091.06  2158.34  2159.82
                             2163.09  2180.13  2184.27  2192.79  2200.69
                             2204.16  2207.57  2209.53  2215.16  2241.10
                             2255.06  2353.60  4219.57  4279.32  4307.65
                             4317.57  4360.82  4368.26  4372.56  4383.13
                             4395.60  4403.57  4428.10  4460.60  4463.59
                             4469.39  4479.80  4483.04  4517.78  4521.48
                             5053.46

 Zero-point correction=                           0.296709 (Hartree/Particle)
 Thermal correction to Energy=                    0.313465
 Thermal correction to Enthalpy=                  0.314409
 Thermal correction to Gibbs Free Energy=         0.248640
 Sum of electronic and zero-point Energies=           -706.911213
 Sum of electronic and thermal Energies=              -706.894457
 Sum of electronic and thermal Enthalpies=            -706.893513
 Sum of electronic and thermal Free Energies=         -706.959281

                     E (Thermal)             CV                S
                      KCal/Mol        Cal/Mol-Kelvin    Cal/Mol-Kelvin
 Total                  196.702             59.462            138.422
 Electronic               0.000              0.000              0.000
 Translational            0.889              2.981             41.974
 Rotational               0.889              2.981             33.126
 Vibrational            194.925             53.500             63.322
 Vibration     1          0.593              1.986              7.282
 Vibration     2          0.593              1.985              6.442
 Vibration     3          0.594              1.983              5.609
 Vibration     4          0.595              1.978              4.899
 Vibration     5          0.597              1.973              4.420
 Vibration     6          0.600              1.961              3.837
 Vibration     7          0.601              1.958              3.702
 Vibration     8          0.614              1.917              2.853
 Vibration     9          0.627              1.873              2.380
 Vibration    10          0.645              1.817              1.996
 Vibration    11          0.651              1.797              1.890
 Vibration    12          0.656              1.784              1.824
 Vibration    13          0.664              1.759              1.716
 Vibration    14          0.665              1.755              1.699
 Vibration    15          0.693              1.674              1.417
 Vibration    16          0.699              1.655              1.363
 Vibration    17          0.713              1.616              1.261
 Vibration    18          0.737              1.547              1.107
 Vibration    19          0.772              1.454              0.935
 Vibration    20          0.777              1.440              0.913
 Vibration    21          0.788              1.412              0.869
 Vibration    22          0.813              1.352              0.783
 Vibration    23          0.913              1.124              0.530

 Optimization completed.
    -- Stationary point found.
 Normal termination of Gaussian 16 at Thu Dec 10 18:01:03 2020.

 ----------------------------------------------------------------------
 # B3LYP/6-311++G(d,p) empiricaldispersion=gd3bj scf=xqc pop=npa geom=c
 heck
 ----------------------------------------------------------------------

 --------------------------------------
 CID_60724847_JID_5919_Energie_neutraal
 --------------------------------------
 Structure from the checkpoint file:  "JID_5919.chk"
 Charge =  0 Multiplicity = 1

 SCF Done:  E(RB3LYP) =  -707.409918769     A.U. after   14 cycles
 Normal termination of Gaussian 16 at Thu Dec 10 18:05:42 2020.

 ----------------------------------------------------------------------
 # B3LYP/6-311++G(d,p) empiricaldispersion=gd3bj scf=xqc pop=npa geom=c
 heck
 ----------------------------------------------------------------------

 ------------------------------------
 CID_60724847_JID_5919_Energie_kation
 ------------------------------------
 Structure from the checkpoint file:  "JID_5919.chk"
 Charge =  1 Multiplicity = 2

 SCF Done:  E(UB3LYP) =  -707.092627614     A.U. after   24 cycles
 Normal termination of Gaussian 16 at Thu Dec 10 18:17:01 2020.
 Gaussian 16:  ES64L-G16RevA.03 25-Dec-2016

 ----------------------------------------------------------------------
 # B3LYP/6-311++G(d,p) empiricaldispersion=gd3bj scf=xqc pop=npa geom=c
 heck
 ----------------------------------------------------------------------

 -----------------------------------
 CID_60724847_JID_5919_Energie_anion
 -----------------------------------
 Structure from the checkpoint file:  "JID_5919.chk"
 Charge = -1 Multiplicity = 2

                         Standard orientation:
 ---------------------------------------------------------------------
 Center     Atomic      Atomic             Coordinates (Angstroms)
 Number     Number       Type             X           Y           Z
 ---------------------------------------------------------------------
      1          6           0        2.821598    1.673883   -1.169098
      2          6           0        3.742332    0.740080   -0.375251
      3          6           0        5.047764    1.448952    0.003496
      4          6           0        3.061768    0.191578    0.902525
      5          6           0        1.889832   -0.691955    0.625217
      6          7           0        1.984863   -1.999329    0.654998
      7          8           0        0.684943   -2.428412    0.294390
      8          6           0       -0.038973   -1.317896    0.095333
      9          7           0        0.633356   -0.220617    0.284788
     10          6           0       -1.483743   -1.450358   -0.259940
     11          7           0       -1.875856   -0.354902   -1.133766
     12          6           0       -3.310576   -0.275192   -1.386132
     13          6           0       -4.159832    0.134401   -0.182728
     14          8           0       -3.675748    1.386711    0.262719
     15          6           0       -4.324910    1.847657    1.427130
     16          1           0        2.555231    2.553386   -0.568988
     17          1           0        1.890315    1.180756   -1.459797
     18          1           0        3.324476    2.027244   -2.076536
     19          1           0        3.989785   -0.125338   -1.005834
     20          1           0        4.848533    2.308114    0.656866
     21          1           0        5.732774    0.775990    0.532137
     22          1           0        5.562011    1.822748   -0.888920
     23          1           0        3.790554   -0.385122    1.481129
     24          1           0        2.727387    1.030915    1.524559
     25          1           0       -1.636636   -2.406815   -0.773508
     26          1           0       -2.050028   -1.511428    0.689866
     27          1           0       -1.562195    0.522052   -0.721308
     28          1           0       -3.464975    0.462167   -2.181994
     29          1           0       -3.660485   -1.243267   -1.766518
     30          1           0       -5.222459    0.202763   -0.472286
     31          1           0       -4.092649   -0.609780    0.629465
     32          1           0       -5.403597    1.995877    1.259607
     33          1           0       -4.198796    1.144946    2.266512
     34          1           0       -3.870917    2.805435    1.693222
 ---------------------------------------------------------------------

 SCF Done:  E(UB3LYP) =  -707.397636878     A.U. after   33 cycles
 SCF Done:  E(UB3LYP) =  -707.397636878     a.u. after    1 cycles

 The electronic state is 2-A.
 Alpha  occ. eigenvalues --  -19.11918 -19.03081 -14.26666 -14.22072 -14.20716
 Alpha  occ. eigenvalues --  -10.17659 -10.14613 -10.12197 -10.11579 -10.11256
 Alpha  occ. eigenvalues --  -10.10146 -10.09675 -10.09535 -10.07809 -10.06886
 Alpha  occ. eigenvalues --   -1.06616  -0.94454  -0.84568  -0.82312  -0.77764
 Alpha  occ. eigenvalues --   -0.72587  -0.66633  -0.63228  -0.61435  -0.60074
 Alpha  occ. eigenvalues --   -0.56950  -0.52599  -0.51048  -0.50002  -0.48012
 Alpha  occ. eigenvalues --   -0.42882  -0.41333  -0.39931  -0.39090  -0.38371
 Alpha  occ. eigenvalues --   -0.37340  -0.36244  -0.35211  -0.34819  -0.34764
 Alpha  occ. eigenvalues --   -0.33016  -0.31773  -0.30324  -0.30227  -0.29424
 Alpha  occ. eigenvalues --   -0.28575  -0.27882  -0.26990  -0.26377  -0.25377
 Alpha  occ. eigenvalues --   -0.24853  -0.24434  -0.23194  -0.22614  -0.20378
 Alpha  occ. eigenvalues --   -0.19024  -0.16842  -0.13879   0.04240
 Alpha virt. eigenvalues --    0.05339   0.06324   0.07248   0.07768   0.08029
 Alpha virt. eigenvalues --    0.08281   0.08683   0.09462   0.10217   0.10585
 Alpha virt. eigenvalues --    0.10770   0.10905   0.11207   0.12401   0.12614

  Beta  occ. eigenvalues --  -19.11846 -19.03069 -14.26599 -14.22076 -14.20714
  Beta  occ. eigenvalues --  -10.17539 -10.14598 -10.12188 -10.11534 -10.11212
  Beta  occ. eigenvalues --  -10.10134 -10.09667 -10.09530 -10.07785 -10.06879
  Beta  occ. eigenvalues --   -1.06494  -0.94436  -0.84505  -0.82276  -0.77657
  Beta  occ. eigenvalues --   -0.72559  -0.66575  -0.63189  -0.61348  -0.60044
  Beta  occ. eigenvalues --   -0.56865  -0.52533  -0.50945  -0.49924  -0.47967
  Beta  occ. eigenvalues --   -0.42831  -0.41106  -0.39833  -0.39018  -0.38297
  Beta  occ. eigenvalues --   -0.37298  -0.36196  -0.35156  -0.34768  -0.34692
  Beta  occ. eigenvalues --   -0.32960  -0.31717  -0.30301  -0.30171  -0.29384
  Beta  occ. eigenvalues --   -0.28543  -0.27826  -0.26945  -0.26311  -0.25343
  Beta  occ. eigenvalues --   -0.24823  -0.24358  -0.23108  -0.22445  -0.20335
  Beta  occ. eigenvalues --   -0.18634  -0.16807  -0.13855
  Beta virt. eigenvalues --    0.05876   0.06800   0.07231   0.07700   0.08071
  Beta virt. eigenvalues --    0.08425   0.08567   0.08953   0.09852   0.10485
  Beta virt. eigenvalues --    0.10727   0.11011   0.11117   0.11540   0.12554

 Mulliken charges and spin densities:
               1          2
     1  C   -0.261728  -0.410403
     2  C   -0.502472   1.033952
     3  C    0.372393  -0.968295
     4  C   -0.103022  -0.404425
     5  C    0.059919  -0.162959
     6  N   -0.279396   0.039437
     7  O    0.148957   0.018607
     8  C   -0.129097   0.065072
     9  N   -0.038779   0.001113
    10  C    0.219185  -0.605623
    11  N   -0.156024   0.094420
    12  C   -0.241228  -0.100905
    13  C    0.468762  -0.721771
    14  O   -0.234671   0.083988
    15  C    0.762668  -0.996281
    16  H    0.079937   0.056663
    17  H    0.127164   0.048289
    18  H    0.009310   0.112590
    19  H    0.100890   0.059380
    20  H    0.007803   0.126608
    21  H   -0.094119   0.217542
    22  H   -0.301108   0.449707
    23  H    0.174165  -0.019818
    24  H    0.069619   0.115753
    25  H    0.119407   0.075949
    26  H   -0.130979   0.313382
    27  H    0.290300  -0.061769
    28  H    0.106453   0.086424
    29  H   -0.100685   0.222873
    30  H   -0.528638   0.671657
    31  H   -0.209286   0.356605
    32  H   -0.367805   0.498413
    33  H   -0.250293   0.384847
    34  H   -0.187604   0.318981
 Sum of Mulliken charges =  -1.00000   1.00000

 Dipole moment (field-independent basis, Debye):
    X=              4.9727    Y=             -1.1696    Z=             -1.3708  Tot=              5.2891
 Quadrupole moment (field-independent basis, Debye-Ang):
   XX=           -214.0025   YY=           -131.5455   ZZ=           -122.1922
   XY=              2.7104   XZ=             11.9397   YZ=              2.1909

 Summary of Natural Population Analysis:

                                       Natural Population
                Natural  -----------------------------------------------
    Atom  No    Charge         Core      Valence    Rydberg      Total
 -----------------------------------------------------------------------
      C    1   -0.28762      0.99965     2.28297    0.00501     3.28762
      C    2   -0.10882      0.99962     2.09984    0.00936     3.10882
      C    3   -0.28438      0.99965     2.27902    0.00570     3.28438
      C    4   -0.20869      0.99956     2.20057    0.00856     3.20869
      C    5    0.18169      0.99964     1.80003    0.01863     2.81831
      N    6   -0.09088      0.99966     2.57931    0.01191     3.59088
      O    7   -0.16620      0.99985     3.15836    0.00799     4.16620
      C    8    0.31020      0.99962     1.67171    0.01846     2.68980
      N    9   -0.27972      0.99966     2.77068    0.00937     3.77972
      C   10   -0.11858      0.99958     2.10758    0.01142     3.11858
      N   11   -0.33573      0.99975     2.82541    0.01057     3.83573
      C   12   -0.09476      0.99963     2.08217    0.01296     3.09476
      C   13   -0.01861      0.99959     2.00673    0.01229     3.01861
      O   14   -0.30350      0.99988     3.29295    0.01067     4.30350
      C   15   -0.09533      0.99962     2.08659    0.00912     3.09533
      H   16    0.09634      0.00000     0.40278    0.00088     0.40366
      H   17    0.11039      0.00000     0.38851    0.00110     0.38961
      H   18    0.09663      0.00000     0.40251    0.00087     0.40337
      H   19    0.09387      0.00000     0.40415    0.00199     0.40613
      H   20    0.09602      0.00000     0.40305    0.00093     0.40398
      H   21    0.09815      0.00000     0.40095    0.00090     0.40185
      H   22    0.10124      0.00000     0.39766    0.00109     0.39876
      H   23    0.10907      0.00000     0.38964    0.00129     0.39093
      H   24    0.10793      0.00000     0.39090    0.00117     0.39207
      H   25    0.10239      0.00000     0.39609    0.00152     0.39761
      H   26    0.10116      0.00000     0.39697    0.00188     0.39884
      H   27    0.18561      0.00000     0.31016    0.00423     0.31439
      H   28    0.09630      0.00000     0.40246    0.00124     0.40370
      H   29    0.09264      0.00000     0.40640    0.00097     0.40736
      H   30    0.08359      0.00000     0.41369    0.00272     0.41641
      H   31    0.08029      0.00000     0.41704    0.00266     0.41971
      H   32    0.07968      0.00000     0.41817    0.00215     0.42032
      H   33    0.08087      0.00000     0.41728    0.00185     0.41913
      H   34    0.08876      0.00000     0.41008    0.00116     0.41124
 =======================================================================
   * Total *    0.00000     14.99497    42.81241    0.19262    58.00000

 Normal termination of Gaussian 16 at Thu Dec 10 18:32:21 2020.
