 Gaussian 16, Revision A.03,

 -----------------------------------------------------------
 # opt freq B3LYP/6-31G(d) empiricaldispersion=gd3bj scf=xqc
 -----------------------------------------------------------

 -------------------------------
 CID_114081437_JID_9804_neutraal
 -------------------------------
 Symbolic Z-matrix:
 Charge =  0 Multiplicity = 1

 SCF Done:  E(RB3LYP) =  -809.166453188     A.U. after   15 cycles
 SCF Done:  E(RB3LYP) =  -809.170883733     A.U. after   13 cycles
 SCF Done:  E(RB3LYP) =  -809.171030116     A.U. after   13 cycles
 SCF Done:  E(RB3LYP) =  -809.171281367     A.U. after   13 cycles
 SCF Done:  E(RB3LYP) =  -809.171532118     A.U. after   12 cycles
 SCF Done:  E(RB3LYP) =  -809.171624918     A.U. after   12 cycles
 SCF Done:  E(RB3LYP) =  -809.171694349     A.U. after   12 cycles
 SCF Done:  E(RB3LYP) =  -809.171698828     A.U. after   12 cycles
 SCF Done:  E(RB3LYP) =  -809.171774935     A.U. after   10 cycles
 SCF Done:  E(RB3LYP) =  -809.171539580     A.U. after   15 cycles
 SCF Done:  E(RB3LYP) =  -809.174278476     A.U. after   10 cycles
 SCF Done:  E(RB3LYP) =  -809.174283211     A.U. after   10 cycles
 SCF Done:  E(RB3LYP) =  -809.174283876     A.U. after    9 cycles
 SCF Done:  E(RB3LYP) =  -809.174284005     A.U. after    7 cycles
 SCF Done:  E(RB3LYP) =  -809.174284045     A.U. after    7 cycles
 SCF Done:  E(RB3LYP) =  -809.174284060     A.U. after    7 cycles
 Optimization completed.
    -- Stationary point found.
 Normal termination of Gaussian 16 at Sun Dec 13 16:41:54 2020.

 --------------------------------------------------------------------
 #N Geom=AllCheck Guess=TCheck SCRF=Check GenChk RB3LYP/6-31G(d) Freq
 --------------------------------------------------------------------

 Structure from the checkpoint file:  "JID_9804.chk"
 -------------------------------
 CID_114081437_JID_9804_neutraal
 -------------------------------
 Charge =  0 Multiplicity = 1

 SCF Done:  E(RB3LYP) =  -809.174284060     A.U. after    1 cycles

  Exact polarizability: 259.854  18.922 166.321  -9.491  21.064 125.774
 Approx polarizability: 355.150  28.029 263.409 -26.374  60.340 218.731

                      1                      2                      3
                      A                      A                      A
 Frequencies --     25.1270                33.9921                43.5036
 Red. masses --      4.5551                 3.6067                 4.1677
 Frc consts  --      0.0017                 0.0025                 0.0046
 IR Inten    --      1.6403                 1.5313                 4.5377

                      4                      5                      6
                      A                      A                      A
 Frequencies --     52.6249                57.6963                82.3964
 Red. masses --      3.5429                 3.5344                 3.7235
 Frc consts  --      0.0058                 0.0069                 0.0149
 IR Inten    --      1.4213                 0.2741                 0.4315

                      7                      8                      9
                      A                      A                      A
 Frequencies --     91.7099               114.3444               127.3778
 Red. masses --      3.9346                 4.5549                 1.0910
 Frc consts  --      0.0195                 0.0351                 0.0104
 IR Inten    --      1.1631                 1.2433                 0.0358

                     10                     11                     12
                      A                      A                      A
 Frequencies --    147.9451               202.0288               241.1775
 Red. masses --      2.5869                 3.3070                 3.8657
 Frc consts  --      0.0334                 0.0795                 0.1325
 IR Inten    --      0.9242                 0.4249                 0.9342

                     13                     14                     15
                      A                      A                      A
 Frequencies --    261.2118               277.2441               318.3634
 Red. masses --      2.2210                 2.3015                 2.9776
 Frc consts  --      0.0893                 0.1042                 0.1778
 IR Inten    --      0.8448                 0.7303                 2.5852

                     16                     17                     18
                      A                      A                      A
 Frequencies --    345.6449               368.8040               395.8074
 Red. masses --      3.8696                 4.3466                 2.0590
 Frc consts  --      0.2724                 0.3483                 0.1901
 IR Inten    --      1.0265                 1.1057                 1.3500

                     19                     20                     21
                      A                      A                      A
 Frequencies --    420.3309               430.9660               471.3650
 Red. masses --      3.0617                 3.1266                 4.1027
 Frc consts  --      0.3187                 0.3421                 0.5371
 IR Inten    --      0.0622                 3.5193                 4.7585

                     22                     23                     24
                      A                      A                      A
 Frequencies --    490.1451               521.9637               547.8372
 Red. masses --      4.1125                 3.7287                 3.5887
 Frc consts  --      0.5821                 0.5985                 0.6346
 IR Inten    --     12.6485                 2.2535                 7.5213

                     25                     26                     27
                      A                      A                      A
 Frequencies --    554.3161               581.6675               596.2995
 Red. masses --      4.0489                 3.3293                 3.6574
 Frc consts  --      0.7330                 0.6637                 0.7662
 IR Inten    --      2.0498                14.1551                 0.9868

                     28                     29                     30
                      A                      A                      A
 Frequencies --    634.1171               657.0253               707.2086
 Red. masses --      3.7203                 6.5360                 4.3163
 Frc consts  --      0.8814                 1.6624                 1.2719
 IR Inten    --      9.3282                 0.2556                 2.9382

                     31                     32                     33
                      A                      A                      A
 Frequencies --    744.2891               763.6459               779.0211
 Red. masses --      3.4743                 2.6112                 1.6068
 Frc consts  --      1.1340                 0.8972                 0.5745
 IR Inten    --      5.5990                17.8195                24.2826

                     34                     35                     36
                      A                      A                      A
 Frequencies --    797.3165               801.5747               830.1360
 Red. masses --      2.2935                 2.5316                 1.7198
 Frc consts  --      0.8590                 0.9584                 0.6983
 IR Inten    --      4.7071                 2.6613                 1.5732

                     37                     38                     39
                      A                      A                      A
 Frequencies --    838.5100               853.6017               861.1844
 Red. masses --      3.5648                 1.4076                 1.4189
 Frc consts  --      1.4767                 0.6043                 0.6200
 IR Inten    --      2.9555                 8.2967                 9.2083

                     40                     41                     42
                      A                      A                      A
 Frequencies --    885.3584               899.6988               913.4313
 Red. masses --      1.6256                 1.7394                 2.4354
 Frc consts  --      0.7508                 0.8296                 1.1972
 IR Inten    --      0.9080                10.8844                15.6047

                     43                     44                     45
                      A                      A                      A
 Frequencies --    950.9428               963.7721               975.3373
 Red. masses --      1.3624                 1.3288                 1.2976
 Frc consts  --      0.7259                 0.7272                 0.7273
 IR Inten    --      1.7040                 0.9607                 0.2212

                     46                     47                     48
                      A                      A                      A
 Frequencies --    979.4817              1027.5500              1033.7513
 Red. masses --      1.2531                 4.0069                 2.0948
 Frc consts  --      0.7083                 2.4927                 1.3190
 IR Inten    --      0.0308                11.7906                 2.6178

                     49                     50                     51
                      A                      A                      A
 Frequencies --   1053.5974              1056.3439              1059.3527
 Red. masses --      2.3942                 2.1022                 4.3977
 Frc consts  --      1.5659                 1.3821                 2.9077
 IR Inten    --      0.3730                 1.3999                58.6981

                     52                     53                     54
                      A                      A                      A
 Frequencies --   1080.1595              1125.3824              1140.8689
 Red. masses --      1.9580                 1.9315                 1.7376
 Frc consts  --      1.3460                 1.4412                 1.3325
 IR Inten    --      8.8705                32.0044                35.6408

                     55                     56                     57
                      A                      A                      A
 Frequencies --   1150.5655              1173.0295              1192.6453
 Red. masses --      1.4497                 1.3745                 1.1042
 Frc consts  --      1.1307                 1.1143                 0.9254
 IR Inten    --      2.6279                23.6646                 0.8931

                     58                     59                     60
                      A                      A                      A
 Frequencies --   1202.4908              1221.8011              1231.0512
 Red. masses --      1.6800                 1.5043                 1.6673
 Frc consts  --      1.4313                 1.3231                 1.4887
 IR Inten    --      3.5460                10.6710                 8.9842

                     61                     62                     63
                      A                      A                      A
 Frequencies --   1254.9672              1262.8560              1284.5321
 Red. masses --      2.7005                 2.2242                 1.8949
 Frc consts  --      2.5058                 2.0899                 1.8422
 IR Inten    --    103.0036                92.7705                37.1092

                     64                     65                     66
                      A                      A                      A
 Frequencies --   1308.0491              1315.5049              1337.5723
 Red. masses --      1.8966                 2.3061                 1.6426
 Frc consts  --      1.9120                 2.3514                 1.7315
 IR Inten    --     18.8322                 5.8404                13.0236

                     67                     68                     69
                      A                      A                      A
 Frequencies --   1344.9190              1350.7510              1367.8887
 Red. masses --      1.7595                 3.3266                 1.8003
 Frc consts  --      1.8752                 3.5760                 1.9847
 IR Inten    --      2.2764                 0.3377                 4.2787

                     70                     71                     72
                      A                      A                      A
 Frequencies --   1411.0019              1417.1363              1443.7089
 Red. masses --      1.3259                 1.2475                 1.2906
 Frc consts  --      1.5553                 1.4761                 1.5849
 IR Inten    --     45.0550                 4.9935                19.2262

                     73                     74                     75
                      A                      A                      A
 Frequencies --   1457.5626              1492.9634              1496.4223
 Red. masses --      2.5540                 1.0660                 2.2284
 Frc consts  --      3.1968                 1.3999                 2.9400
 IR Inten    --     14.4294                10.5455                11.1965

                     76                     77                     78
                      A                      A                      A
 Frequencies --   1503.6296              1507.3727              1515.8095
 Red. masses --      1.0822                 1.0696                 1.0528
 Frc consts  --      1.4416                 1.4319                 1.4253
 IR Inten    --      1.1041                11.3871                 7.0957

                     79                     80                     81
                      A                      A                      A
 Frequencies --   1520.9240              1530.1367              1541.4487
 Red. masses --      1.0986                 1.7637                 1.2966
 Frc consts  --      1.4974                 2.4329                 1.8151
 IR Inten    --      1.8592                34.7572                21.6617

                     82                     83                     84
                      A                      A                      A
 Frequencies --   1567.4570              1617.3862              1635.1144
 Red. masses --      2.6038                 5.8238                 6.5577
 Frc consts  --      3.7692                 8.9761                10.3300
 IR Inten    --     21.3716                 3.1423                 5.1309

                     85                     86                     87
                      A                      A                      A
 Frequencies --   1659.7042              1672.1107              1817.3919
 Red. masses --      5.9423                 5.7299                10.2136
 Frc consts  --      9.6442                 9.4390                19.8758
 IR Inten    --      6.1265                 0.7004               180.8727

                     88                     89                     90
                      A                      A                      A
 Frequencies --   3035.2786              3050.3937              3059.3515
 Red. masses --      1.0674                 1.0397                 1.0369
 Frc consts  --      5.7938                 5.7001                 5.7182
 IR Inten    --     49.5070                 2.0127                13.2019

                     91                     92                     93
                      A                      A                      A
 Frequencies --   3063.8896              3110.7797              3112.1849
 Red. masses --      1.0584                 1.0983                 1.0973
 Frc consts  --      5.8540                 6.2621                 6.2622
 IR Inten    --     21.3395                15.9064                11.9266

                     94                     95                     96
                      A                      A                      A
 Frequencies --   3119.5838              3128.8912              3148.1771
 Red. masses --      1.1050                 1.0995                 1.1039
 Frc consts  --      6.3360                 6.3418                 6.4460
 IR Inten    --      9.3991                47.7455                24.8799

                     97                     98                     99
                      A                      A                      A
 Frequencies --   3169.4918              3179.5179              3186.4573
 Red. masses --      1.1025                 1.0896                 1.0854
 Frc consts  --      6.5255                 6.4898                 6.4929
 IR Inten    --     11.8759                21.1294                 2.6918

                    100                    101                    102
                      A                      A                      A
 Frequencies --   3188.9323              3195.8207              3204.4623
 Red. masses --      1.0869                 1.0890                 1.0937
 Frc consts  --      6.5122                 6.5528                 6.6170
 IR Inten    --      8.2210                 7.3935                 6.8988

                    103                    104                    105
                      A                      A                      A
 Frequencies --   3206.2907              3214.6272              3238.7575
 Red. masses --      1.0933                 1.0976                 1.0922
 Frc consts  --      6.6223                 6.6830                 6.7501
 IR Inten    --     24.3212                23.4682                 3.2683

 - Thermochemistry -
 -------------------
 Temperature   298.150 Kelvin.  Pressure   1.00000 Atm.
 Atom     1 has atomic number  6 and mass  12.00000

 Molecular mass:   254.13068 amu.
 Principal axes and moments of inertia in atomic units:
                           1         2         3
     Eigenvalues --  2279.187419625.82209**********
           X            0.99992  -0.00252   0.01201
           Y            0.00273   0.99984  -0.01766
           Z           -0.01197   0.01769   0.99977
 This molecule is an asymmetric top.
 Rotational symmetry number  1.
 Warning -- assumption of classical behavior for rotation
           may cause significant error
 Rotational temperatures (Kelvin)      0.03800     0.00900     0.00807
 Rotational constants (GHZ):           0.79184     0.18749     0.16808
 Zero-point vibrational energy     811267.5 (Joules/Mol)
                                  193.89760 (Kcal/Mol)
 Warning -- explicit consideration of  27 degrees of freedom as
           vibrations may cause significant error
 Vibrational temperatures:     36.15    48.91    62.59    75.72    83.01
          (Kelvin)            118.55   131.95   164.52   183.27   212.86
                              290.67   347.00   375.83   398.89   458.05
                              497.31   530.63   569.48   604.76   620.06
                              678.19   705.21   750.99   788.22   797.54
                              836.89   857.94   912.35   945.31  1017.52
                             1070.87  1098.72  1120.84  1147.16  1153.29
                             1194.38  1206.43  1228.14  1239.05  1273.83
                             1294.47  1314.22  1368.19  1386.65  1403.29
                             1409.26  1478.42  1487.34  1515.89  1519.84
                             1524.17  1554.11  1619.17  1641.46  1655.41
                             1687.73  1715.95  1730.12  1757.90  1771.21
                             1805.62  1816.97  1848.16  1881.99  1892.72
                             1924.47  1935.04  1943.43  1968.09  2030.12
                             2038.94  2077.18  2097.11  2148.04  2153.02
                             2163.39  2168.77  2180.91  2188.27  2201.53
                             2217.80  2255.22  2327.06  2352.56  2387.94
                             2405.79  2614.82  4367.09  4388.84  4401.72
                             4408.25  4475.72  4477.74  4488.39  4501.78
                             4529.52  4560.19  4574.62  4584.60  4588.16
                             4598.07  4610.51  4613.14  4625.13  4659.85

 Zero-point correction=                           0.308995 (Hartree/Particle)
 Thermal correction to Energy=                    0.326910
 Thermal correction to Enthalpy=                  0.327854
 Thermal correction to Gibbs Free Energy=         0.260763
 Sum of electronic and zero-point Energies=           -808.865289
 Sum of electronic and thermal Energies=              -808.847374
 Sum of electronic and thermal Enthalpies=            -808.846430
 Sum of electronic and thermal Free Energies=         -808.913521

                     E (Thermal)             CV                S
                      KCal/Mol        Cal/Mol-Kelvin    Cal/Mol-Kelvin
 Total                  205.139             67.669            141.205
 Electronic               0.000              0.000              0.000
 Translational            0.889              2.981             42.498
 Rotational               0.889              2.981             33.821
 Vibrational            203.361             61.707             64.886
 Vibration     1          0.593              1.985              6.181
 Vibration     2          0.594              1.983              5.582
 Vibration     3          0.595              1.980              5.093
 Vibration     4          0.596              1.977              4.716
 Vibration     5          0.596              1.974              4.534
 Vibration     6          0.600              1.961              3.833
 Vibration     7          0.602              1.955              3.623
 Vibration     8          0.607              1.938              3.194
 Vibration     9          0.611              1.926              2.985
 Vibration    10          0.617              1.905              2.698
 Vibration    11          0.639              1.837              2.115
 Vibration    12          0.658              1.777              1.794
 Vibration    13          0.669              1.744              1.654
 Vibration    14          0.678              1.716              1.551
 Vibration    15          0.705              1.638              1.318
 Vibration    16          0.724              1.584              1.186
 Vibration    17          0.741              1.536              1.085
 Vibration    18          0.763              1.479              0.978
 Vibration    19          0.783              1.426              0.891
 Vibration    20          0.792              1.403              0.856
 Vibration    21          0.828              1.314              0.734
 Vibration    22          0.846              1.272              0.683
 Vibration    23          0.877              1.201              0.605
 Vibration    24          0.903              1.144              0.549
 Vibration    25          0.910              1.130              0.535
 Vibration    26          0.938              1.071              0.482
 Vibration    27          0.954              1.040              0.456

 Optimization completed.
    -- Stationary point found.
 Normal termination of Gaussian 16 at Sun Dec 13 17:01:13 2020.

 ----------------------------------------------------------------------
 # B3LYP/6-311++G(d,p) empiricaldispersion=gd3bj scf=xqc pop=npa geom=c
 heck
 ----------------------------------------------------------------------

 ---------------------------------------
 CID_114081437_JID_9804_Energie_neutraal
 ---------------------------------------
 Structure from the checkpoint file:  "JID_9804.chk"
 Charge =  0 Multiplicity = 1

 SCF Done:  E(RB3LYP) =  -809.389824830     A.U. after   16 cycles
 Normal termination of Gaussian 16 at Sun Dec 13 17:10:24 2020.

 ----------------------------------------------------------------------
 # B3LYP/6-311++G(d,p) empiricaldispersion=gd3bj scf=xqc pop=npa geom=c
 heck
 ----------------------------------------------------------------------

 -------------------------------------
 CID_114081437_JID_9804_Energie_kation
 -------------------------------------
 Structure from the checkpoint file:  "JID_9804.chk"
 Charge =  1 Multiplicity = 2

 SCF Done:  E(UB3LYP) =  -809.105872972     A.U. after   26 cycles
 Normal termination of Gaussian 16 at Sun Dec 13 17:32:14 2020.
 Gaussian 16:  ES64L-G16RevA.03 25-Dec-2016

 ----------------------------------------------------------------------
 # B3LYP/6-311++G(d,p) empiricaldispersion=gd3bj scf=xqc pop=npa geom=c
 heck
 ----------------------------------------------------------------------

 ------------------------------------
 CID_114081437_JID_9804_Energie_anion
 ------------------------------------
 Structure from the checkpoint file:  "JID_9804.chk"
 Charge = -1 Multiplicity = 2

                         Standard orientation:
 ---------------------------------------------------------------------
 Center     Atomic      Atomic             Coordinates (Angstroms)
 Number     Number       Type             X           Y           Z
 ---------------------------------------------------------------------
      1          6           0       -1.948265    2.446356   -1.317040
      2          6           0       -2.889346    2.416345   -0.120665
      3          8           0       -2.528998    1.408990    0.838367
      4          6           0       -2.788847    0.108553    0.462415
      5          6           0       -4.108165   -0.350054    0.465607
      6          6           0       -4.399100   -1.667667    0.120379
      7          6           0       -3.362419   -2.534942   -0.227091
      8          6           0       -2.048246   -2.075645   -0.226850
      9          6           0       -1.728097   -0.749331    0.108621
     10          6           0       -0.319655   -0.289854    0.054686
     11          6           0        0.503584   -0.682790   -1.013366
     12          6           0        1.831072   -0.273750   -1.087927
     13          6           0        2.380273    0.548549   -0.096687
     14          6           0        1.566386    0.936436    0.972759
     15          6           0        0.236501    0.529544    1.048748
     16          6           0        3.836826    0.961608   -0.175994
     17          6           0        4.727711   -0.275483   -0.036772
     18          8           0        5.222702   -0.806514   -1.011877
     19          6           0        4.907728   -0.817196    1.366875
     20          1           0       -0.917276    2.612705   -0.992551
     21          1           0       -2.239169    3.251170   -2.002152
     22          1           0       -1.983057    1.500309   -1.866324
     23          1           0       -2.846835    3.356525    0.436322
     24          1           0       -3.927261    2.259424   -0.445262
     25          1           0       -4.896318    0.338668    0.754841
     26          1           0       -5.427553   -2.016897    0.134553
     27          1           0       -3.574548   -3.568166   -0.485526
     28          1           0       -1.239823   -2.756469   -0.476753
     29          1           0        0.088281   -1.299062   -1.805420
     30          1           0        2.452974   -0.591842   -1.920339
     31          1           0        1.977159    1.569598    1.755719
     32          1           0       -0.379362    0.850709    1.879622
     33          1           0        4.061008    1.421447   -1.143198
     34          1           0        4.062828    1.682291    0.618174
     35          1           0        5.488383   -0.105805    1.968231
     36          1           0        3.934013   -0.933072    1.856338
     37          1           0        5.429280   -1.775417    1.335615
 ---------------------------------------------------------------------

 SCF Done:  E(UB3LYP) =  -809.389627808     A.U. after   32 cycles

 The electronic state is 2-A.
 Alpha  occ. eigenvalues --  -19.02593 -18.97889 -10.12359 -10.12333 -10.10889
 Alpha  occ. eigenvalues --  -10.06002 -10.05930 -10.05910 -10.05889 -10.05591
 Alpha  occ. eigenvalues --  -10.05501 -10.05441 -10.05370 -10.04568 -10.04350
 Alpha  occ. eigenvalues --  -10.04245 -10.04174 -10.04155 -10.04078  -0.94345
 Alpha  occ. eigenvalues --   -0.91464  -0.74522  -0.72752  -0.67323  -0.66330
 Alpha  occ. eigenvalues --   -0.64055  -0.62177  -0.61682  -0.61095  -0.56676
 Alpha  occ. eigenvalues --   -0.53609  -0.50097  -0.48523  -0.46775  -0.45517
 Alpha  occ. eigenvalues --   -0.41622  -0.41177  -0.38586  -0.37579  -0.36607
 Alpha  occ. eigenvalues --   -0.35854  -0.34699  -0.33943  -0.33697  -0.32581
 Alpha  occ. eigenvalues --   -0.31985  -0.31444  -0.30974  -0.29550  -0.29317
 Alpha  occ. eigenvalues --   -0.28542  -0.28119  -0.27351  -0.26281  -0.26115
 Alpha  occ. eigenvalues --   -0.25366  -0.24630  -0.23812  -0.23459  -0.22490
 Alpha  occ. eigenvalues --   -0.21410  -0.21206  -0.17105  -0.15818  -0.13443
 Alpha  occ. eigenvalues --   -0.12946  -0.12721  -0.10122   0.04531
 Alpha virt. eigenvalues --    0.06997   0.07411   0.07845   0.08864   0.09000
 Alpha virt. eigenvalues --    0.09258   0.09881   0.10054   0.10363   0.10627
 Alpha virt. eigenvalues --    0.10892   0.11284   0.11817   0.12257   0.12492

  Beta  occ. eigenvalues --  -19.02591 -18.97708 -10.12320 -10.12143 -10.10836
  Beta  occ. eigenvalues --  -10.05998 -10.05963 -10.05926 -10.05892 -10.05477
  Beta  occ. eigenvalues --  -10.05475 -10.05315 -10.05285 -10.04337 -10.04225
  Beta  occ. eigenvalues --  -10.04199 -10.04189 -10.04131 -10.03999  -0.94315
  Beta  occ. eigenvalues --   -0.91101  -0.74287  -0.72530  -0.66988  -0.66272
  Beta  occ. eigenvalues --   -0.63803  -0.62050  -0.61522  -0.60927  -0.56484
  Beta  occ. eigenvalues --   -0.53569  -0.49778  -0.48423  -0.46677  -0.45243
  Beta  occ. eigenvalues --   -0.41535  -0.40805  -0.38469  -0.37521  -0.36475
  Beta  occ. eigenvalues --   -0.35708  -0.34544  -0.33779  -0.33509  -0.32455
  Beta  occ. eigenvalues --   -0.31758  -0.31360  -0.30818  -0.29461  -0.29242
  Beta  occ. eigenvalues --   -0.28479  -0.28018  -0.27202  -0.26137  -0.25920
  Beta  occ. eigenvalues --   -0.25111  -0.24403  -0.23565  -0.22832  -0.22094
  Beta  occ. eigenvalues --   -0.21202  -0.21029  -0.17033  -0.14879  -0.13052
  Beta  occ. eigenvalues --   -0.12509  -0.12420  -0.09295
  Beta virt. eigenvalues --    0.06876   0.07561   0.07803   0.08616   0.08778
  Beta virt. eigenvalues --    0.09269   0.09718   0.10096   0.10291   0.10572
  Beta virt. eigenvalues --    0.10690   0.11049   0.11689   0.11824   0.12225

 Mulliken charges and spin densities:
               1          2
     1  C   -0.455387  -0.118755
     2  C   -0.036130  -0.086253
     3  O   -0.093423   0.002757
     4  C   -0.945256   0.062408
     5  C   -0.087370  -0.080845
     6  C   -0.437144   0.147989
     7  C   -0.328137  -0.017818
     8  C   -0.383184   0.056947
     9  C    1.333724   0.011454
    10  C    1.187951  -0.006376
    11  C   -0.776057   0.183804
    12  C   -0.618659   0.241408
    13  C    0.728163   0.374296
    14  C   -0.595896  -0.144295
    15  C   -0.487552  -0.101421
    16  C    0.023016  -0.494899
    17  C    0.079340   0.111301
    18  O   -0.321292   0.068767
    19  C   -0.512752  -0.114022
    20  H    0.147788   0.032342
    21  H    0.061402   0.062883
    22  H    0.129694   0.024922
    23  H    0.028748   0.119342
    24  H    0.077410   0.014454
    25  H    0.126191   0.019511
    26  H    0.115591  -0.010279
    27  H    0.130625   0.002212
    28  H    0.139611  -0.003156
    29  H    0.093737   0.043139
    30  H    0.176364   0.004320
    31  H   -0.031742   0.164507
    32  H    0.169837   0.001647
    33  H    0.020066   0.165789
    34  H   -0.028385   0.173002
    35  H    0.040660   0.102052
    36  H    0.176142  -0.007215
    37  H    0.152308  -0.005922
 Sum of Mulliken charges =  -1.00000   1.00000

 Dipole moment (field-independent basis, Debye):
    X=             -5.2176    Y=              0.9174    Z=              0.8860  Tot=              5.3712
 Quadrupole moment (field-independent basis, Debye-Ang):
   XX=           -190.0525   YY=           -132.3638   ZZ=           -131.0407
   XY=             -1.0096   XZ=             12.4609   YZ=             -1.7615

 Summary of Natural Population Analysis:

                                       Natural Population
                Natural  -----------------------------------------------
    Atom  No    Charge         Core      Valence    Rydberg      Total
 -----------------------------------------------------------------------
      C    1   -0.30297      0.99966     2.29891    0.00439     3.30297
      C    2   -0.00357      0.99958     1.99334    0.01065     3.00357
      O    3   -0.29601      0.99986     3.28587    0.01028     4.29601
      C    4    0.16522      0.99933     1.82079    0.01466     2.83478
      C    5   -0.12909      0.99952     2.12131    0.00827     3.12909
      C    6   -0.07556      0.99958     2.06689    0.00909     3.07556
      C    7   -0.12032      0.99957     2.11186    0.00889     3.12032
      C    8   -0.07629      0.99954     2.06933    0.00742     3.07629
      C    9   -0.02220      0.99944     2.01159    0.01117     3.02220
      C   10   -0.00991      0.99949     1.99973    0.01069     3.00991
      C   11   -0.07866      0.99953     2.07055    0.00857     3.07866
      C   12   -0.10853      0.99951     2.09982    0.00920     3.10853
      C   13    0.01576      0.99949     1.97503    0.00971     2.98424
      C   14   -0.10664      0.99951     2.09749    0.00964     3.10664
      C   15   -0.08435      0.99953     2.07605    0.00876     3.08435
      C   16   -0.24065      0.99956     2.23187    0.00922     3.24065
      C   17    0.31730      0.99969     1.66036    0.02264     2.68270
      O   18   -0.28253      0.99987     3.27596    0.00670     4.28253
      C   19   -0.33624      0.99962     2.33216    0.00447     3.33624
      H   20    0.10920      0.00000     0.38973    0.00107     0.39080
      H   21    0.09366      0.00000     0.40536    0.00098     0.40634
      H   22    0.10526      0.00000     0.39370    0.00104     0.39474
      H   23    0.08470      0.00000     0.41386    0.00145     0.41530
      H   24    0.07691      0.00000     0.42149    0.00160     0.42309
      H   25    0.09664      0.00000     0.40184    0.00152     0.40336
      H   26    0.09064      0.00000     0.40835    0.00101     0.40936
      H   27    0.09383      0.00000     0.40523    0.00094     0.40617
      H   28    0.09854      0.00000     0.40031    0.00115     0.40146
      H   29    0.09472      0.00000     0.40413    0.00115     0.40528
      H   30    0.10119      0.00000     0.39758    0.00123     0.39881
      H   31    0.09363      0.00000     0.40541    0.00095     0.40637
      H   32    0.10238      0.00000     0.39615    0.00147     0.39762
      H   33    0.11138      0.00000     0.38733    0.00130     0.38862
      H   34    0.10224      0.00000     0.39640    0.00136     0.39776
      H   35    0.10447      0.00000     0.39439    0.00114     0.39553
      H   36    0.11238      0.00000     0.38693    0.00069     0.38762
      H   37    0.10348      0.00000     0.39565    0.00088     0.39652
 =======================================================================
   * Total *    0.00000     18.99190    48.80275    0.20535    68.00000

 Normal termination of Gaussian 16 at Sun Dec 13 17:59:03 2020.
