 Gaussian 16, Revision A.03,

 -----------------------------------------------------------
 # opt freq B3LYP/6-31G(d) empiricaldispersion=gd3bj scf=xqc
 -----------------------------------------------------------

 -------------------------------
 CID_127750435_JID_8458_neutraal
 -------------------------------
 Symbolic Z-matrix:
 Charge =  0 Multiplicity = 1

 SCF Done:  E(RB3LYP) =  -854.857582858     A.U. after   14 cycles
 SCF Done:  E(RB3LYP) =  -854.864275279     A.U. after   12 cycles
 SCF Done:  E(RB3LYP) =  -854.865150281     A.U. after   13 cycles
 SCF Done:  E(RB3LYP) =  -854.867236266     A.U. after   11 cycles
 SCF Done:  E(RB3LYP) =  -854.868877957     A.U. after   13 cycles
 SCF Done:  E(RB3LYP) =  -854.869487731     A.U. after   13 cycles
 SCF Done:  E(RB3LYP) =  -854.869707782     A.U. after   11 cycles
 SCF Done:  E(RB3LYP) =  -854.869767533     A.U. after   10 cycles
 SCF Done:  E(RB3LYP) =  -854.869798888     A.U. after   10 cycles
 SCF Done:  E(RB3LYP) =  -854.869835555     A.U. after   11 cycles
 SCF Done:  E(RB3LYP) =  -854.873626572     A.U. after   10 cycles
 SCF Done:  E(RB3LYP) =  -854.873627751     A.U. after   10 cycles
 SCF Done:  E(RB3LYP) =  -854.873627818     A.U. after    9 cycles
 SCF Done:  E(RB3LYP) =  -854.873627885     A.U. after    9 cycles
 Optimization completed.
    -- Stationary point found.
 Normal termination of Gaussian 16 at Fri Dec 11 21:09:05 2020.

 --------------------------------------------------------------------
 #N Geom=AllCheck Guess=TCheck SCRF=Check GenChk RB3LYP/6-31G(d) Freq
 --------------------------------------------------------------------

 Structure from the checkpoint file:  "JID_8458.chk"
 -------------------------------
 CID_127750435_JID_8458_neutraal
 -------------------------------
 Charge =  0 Multiplicity = 1

 SCF Done:  E(RB3LYP) =  -854.873627885     A.U. after    1 cycles

  Exact polarizability: 177.298   3.324 145.593  14.319  -3.501 116.250
 Approx polarizability: 215.136   6.096 227.133  27.985 -15.776 190.332

                      1                      2                      3
                      A                      A                      A
 Frequencies --     13.5600                30.0092                43.0144
 Red. masses --      5.5270                 4.2986                 5.5131
 Frc consts  --      0.0006                 0.0023                 0.0060
 IR Inten    --      0.2436                 0.3469                 0.7131

                      4                      5                      6
                      A                      A                      A
 Frequencies --     62.9711                85.3806                90.1714
 Red. masses --      4.5384                 6.1677                 5.4195
 Frc consts  --      0.0106                 0.0265                 0.0260
 IR Inten    --      3.2572                 0.9481                 4.1979

                      7                      8                      9
                      A                      A                      A
 Frequencies --    108.0550               120.8636               140.3850
 Red. masses --      4.3617                 4.4158                 2.8913
 Frc consts  --      0.0300                 0.0380                 0.0336
 IR Inten    --      0.9925                 2.5572                 5.8103

                     10                     11                     12
                      A                      A                      A
 Frequencies --    173.5342               237.4552               257.2573
 Red. masses --      3.2991                 3.8226                 2.7685
 Frc consts  --      0.0585                 0.1270                 0.1080
 IR Inten    --      0.2448                 3.3513                 1.0810

                     13                     14                     15
                      A                      A                      A
 Frequencies --    297.8659               305.2614               343.4665
 Red. masses --      4.2094                 4.1673                 2.6674
 Frc consts  --      0.2200                 0.2288                 0.1854
 IR Inten    --      3.0204                 3.4405                 0.2089

                     16                     17                     18
                      A                      A                      A
 Frequencies --    368.5445               380.4577               405.9815
 Red. masses --      2.1699                 2.2559                 2.6113
 Frc consts  --      0.1736                 0.1924                 0.2536
 IR Inten    --      1.4343                 0.2372                 4.4004

                     19                     20                     21
                      A                      A                      A
 Frequencies --    467.2519               487.4290               534.0226
 Red. masses --      2.4298                 2.7298                 3.0556
 Frc consts  --      0.3126                 0.3821                 0.5134
 IR Inten    --      2.7305                 5.6530                23.3838

                     22                     23                     24
                      A                      A                      A
 Frequencies --    570.9591               588.9207               649.8924
 Red. masses --      2.3224                 3.0119                 2.4684
 Frc consts  --      0.4461                 0.6155                 0.6143
 IR Inten    --      6.2635                 6.2139                28.1065

                     25                     26                     27
                      A                      A                      A
 Frequencies --    657.3375               685.9357               697.8665
 Red. masses --      4.4060                 3.1568                 3.5181
 Frc consts  --      1.1217                 0.8751                 1.0095
 IR Inten    --      5.0742                16.3545                 9.8683

                     28                     29                     30
                      A                      A                      A
 Frequencies --    724.7522               751.9530               780.4151
 Red. masses --      2.0161                 1.5060                 2.8335
 Frc consts  --      0.6239                 0.5017                 1.0168
 IR Inten    --     34.4473                33.8873                 4.8536

                     31                     32                     33
                      A                      A                      A
 Frequencies --    817.0052               838.9771               849.4971
 Red. masses --      3.5764                 1.3947                 1.9518
 Frc consts  --      1.4065                 0.5784                 0.8299
 IR Inten    --     80.8890                11.2925                34.6540

                     34                     35                     36
                      A                      A                      A
 Frequencies --    857.4856               871.5799               889.9827
 Red. masses --      2.3241                 1.9583                 2.0364
 Frc consts  --      1.0068                 0.8765                 0.9503
 IR Inten    --      3.5181                 4.2765                18.8588

                     37                     38                     39
                      A                      A                      A
 Frequencies --    896.7598               904.8247               954.7647
 Red. masses --      1.3889                 2.2875                 2.4583
 Frc consts  --      0.6581                 1.1034                 1.3203
 IR Inten    --      4.5242                 6.8130                 5.3190

                     40                     41                     42
                      A                      A                      A
 Frequencies --    974.5333               996.3141              1002.6342
 Red. masses --      6.3439                 2.0126                 2.3381
 Frc consts  --      3.5498                 1.1771                 1.3848
 IR Inten    --     18.8216                 2.7185                 6.2235

                     43                     44                     45
                      A                      A                      A
 Frequencies --   1015.9230              1033.3766              1043.8014
 Red. masses --      2.4303                 3.6451                 2.7781
 Frc consts  --      1.4779                 2.2934                 1.7833
 IR Inten    --      2.4922                25.2629                34.2570

                     46                     47                     48
                      A                      A                      A
 Frequencies --   1064.4931              1074.9666              1099.2070
 Red. masses --      2.1152                 1.6341                 2.0968
 Frc consts  --      1.4122                 1.1126                 1.4927
 IR Inten    --     12.4143                17.2757                 7.9555

                     49                     50                     51
                      A                      A                      A
 Frequencies --   1147.2873              1157.3563              1159.9261
 Red. masses --      2.3861                 2.9697                 2.3508
 Frc consts  --      1.8505                 2.3437                 1.8635
 IR Inten    --     28.4225                56.6688                13.9338

                     52                     53                     54
                      A                      A                      A
 Frequencies --   1175.1246              1179.8153              1226.8570
 Red. masses --      1.9101                 4.0535                 1.4185
 Frc consts  --      1.5541                 3.3243                 1.2580
 IR Inten    --     29.6510                76.6385                18.6158

                     55                     56                     57
                      A                      A                      A
 Frequencies --   1228.3002              1246.3739              1259.7908
 Red. masses --      1.2454                 2.1744                 1.3248
 Frc consts  --      1.1070                 1.9901                 1.2388
 IR Inten    --     12.0796                12.2938                65.3055

                     58                     59                     60
                      A                      A                      A
 Frequencies --   1272.7019              1286.8870              1318.8835
 Red. masses --      1.2873                 1.2695                 1.3647
 Frc consts  --      1.2285                 1.2387                 1.3987
 IR Inten    --     66.4360                22.2247                12.5865

                     61                     62                     63
                      A                      A                      A
 Frequencies --   1320.5739              1329.0148              1357.6111
 Red. masses --      2.8563                 1.1895                 2.0673
 Frc consts  --      2.9348                 1.2379                 2.2449
 IR Inten    --     30.1012                16.3346                 2.7230

                     64                     65                     66
                      A                      A                      A
 Frequencies --   1365.1119              1372.1434              1375.5179
 Red. masses --      1.3525                 1.4181                 1.7404
 Frc consts  --      1.4850                 1.5731                 1.9402
 IR Inten    --      1.8873                23.9031               110.6360

                     67                     68                     69
                      A                      A                      A
 Frequencies --   1391.3049              1394.1510              1413.5422
 Red. masses --      1.3205                 2.5180                 1.5143
 Frc consts  --      1.5060                 2.8835                 1.7826
 IR Inten    --      1.4383                76.4264                 1.7833

                     70                     71                     72
                      A                      A                      A
 Frequencies --   1415.2579              1422.4040              1426.6540
 Red. masses --      1.4124                 1.3749                 1.2939
 Frc consts  --      1.6668                 1.6389                 1.5516
 IR Inten    --      5.0720                28.2301                 7.0681

                     73                     74                     75
                      A                      A                      A
 Frequencies --   1439.8441              1445.1095              1483.1384
 Red. masses --      1.9967                 1.3680                 3.3581
 Frc consts  --      2.4389                 1.6833                 4.3522
 IR Inten    --    205.5665                44.2922                 2.2745

                     76                     77                     78
                      A                      A                      A
 Frequencies --   1492.8171              1496.6737              1504.6409
 Red. masses --      1.2709                 1.1325                 1.1373
 Frc consts  --      1.6686                 1.4947                 1.5171
 IR Inten    --      4.2690                 3.2382                13.4656

                     79                     80                     81
                      A                      A                      A
 Frequencies --   1516.8627              1519.0852              1524.8971
 Red. masses --      1.3786                 1.1589                 1.1006
 Frc consts  --      1.8689                 1.5756                 1.5079
 IR Inten    --     83.7431                22.0414                 0.5175

                     82                     83                     84
                      A                      A                      A
 Frequencies --   1527.8661              1531.7634              1544.9908
 Red. masses --      1.1308                 1.0840                 1.0932
 Frc consts  --      1.5553                 1.4985                 1.5374
 IR Inten    --      7.6768                 3.0096                 5.2534

                     85                     86                     87
                      A                      A                      A
 Frequencies --   1557.9241              1799.3584              2994.4650
 Red. masses --      3.8607                 6.3345                 1.0714
 Frc consts  --      5.5208                12.0836                 5.6601
 IR Inten    --     58.9187               423.5836                65.6851

                     88                     89                     90
                      A                      A                      A
 Frequencies --   3002.8941              3032.1960              3046.9809
 Red. masses --      1.0691                 1.0710                 1.0643
 Frc consts  --      5.6801                 5.8017                 5.8215
 IR Inten    --     57.5898                31.9368                13.3683

                     91                     92                     93
                      A                      A                      A
 Frequencies --   3052.4789              3061.2154              3074.4858
 Red. masses --      1.0635                 1.0677                 1.0846
 Frc consts  --      5.8384                 5.8951                 6.0402
 IR Inten    --     10.4146                28.2662                43.8074

                     94                     95                     96
                      A                      A                      A
 Frequencies --   3080.3038              3083.7146              3085.1240
 Red. masses --      1.0939                 1.0591                 1.0926
 Frc consts  --      6.1155                 5.9336                 6.1272
 IR Inten    --     66.3470                16.1483                 9.2084

                     97                     98                     99
                      A                      A                      A
 Frequencies --   3097.4098              3099.9579              3107.3977
 Red. masses --      1.1007                 1.1009                 1.0978
 Frc consts  --      6.2215                 6.2333                 6.2453
 IR Inten    --     14.5672                25.6635                61.6965

                    100                    101                    102
                      A                      A                      A
 Frequencies --   3131.2057              3136.4745              3273.1915
 Red. masses --      1.0929                 1.1082                 1.0971
 Frc consts  --      6.3130                 6.4231                 6.9254
 IR Inten    --      8.5718                12.6402                 1.6745

                    103                    104                    105
                      A                      A                      A
 Frequencies --   3282.5886              3536.0942              3563.3208
 Red. masses --      1.0984                 1.0766                 1.0740
 Frc consts  --      6.9731                 7.9316                 8.0347
 IR Inten    --      3.0802               186.3440                 8.1639

 - Thermochemistry -
 -------------------
 Temperature   298.150 Kelvin.  Pressure   1.00000 Atm.
 Atom     1 has atomic number  6 and mass  12.00000

 Molecular mass:   253.15388 amu.
 Principal axes and moments of inertia in atomic units:
                           1         2         3
     Eigenvalues --  1595.06019********************
           X            0.99999  -0.00444  -0.00193
           Y            0.00456   0.99753   0.07011
           Z            0.00161  -0.07012   0.99754
 This molecule is an asymmetric top.
 Rotational symmetry number  1.
 Warning -- assumption of classical behavior for rotation
           may cause significant error
 Rotational temperatures (Kelvin)      0.05430     0.00780     0.00758
 Rotational constants (GHZ):           1.13146     0.16261     0.15785
 Zero-point vibrational energy     841071.4 (Joules/Mol)
                                  201.02089 (Kcal/Mol)
 Warning -- explicit consideration of  23 degrees of freedom as
           vibrations may cause significant error
 Vibrational temperatures:     19.51    43.18    61.89    90.60   122.84
          (Kelvin)            129.74   155.47   173.90   201.98   249.68
                              341.65   370.14   428.56   439.20   494.17
                              530.25   547.39   584.12   672.27   701.30
                              768.34   821.48   847.33   935.05   945.76
                              986.91  1004.07  1042.76  1081.89  1122.84
                             1175.49  1207.10  1222.24  1233.73  1254.01
                             1280.49  1290.24  1301.84  1373.69  1402.14
                             1433.47  1442.57  1461.69  1486.80  1501.80
                             1531.57  1546.64  1581.51  1650.69  1665.18
                             1668.87  1690.74  1697.49  1765.17  1767.25
                             1793.25  1812.56  1831.13  1851.54  1897.58
                             1900.01  1912.16  1953.30  1964.09  1974.21
                             1979.06  2001.78  2005.87  2033.77  2036.24
                             2046.52  2052.64  2071.61  2079.19  2133.91
                             2147.83  2153.38  2164.84  2182.43  2185.62
                             2193.99  2198.26  2203.87  2222.90  2241.51
                             2588.88  4308.37  4320.49  4362.65  4383.93
                             4391.84  4404.41  4423.50  4431.87  4436.78
                             4438.81  4456.48  4460.15  4470.85  4505.11
                             4512.69  4709.39  4722.91  5087.65  5126.82

 Zero-point correction=                           0.320347 (Hartree/Particle)
 Thermal correction to Energy=                    0.336969
 Thermal correction to Enthalpy=                  0.337913
 Thermal correction to Gibbs Free Energy=         0.273033
 Sum of electronic and zero-point Energies=           -854.553281
 Sum of electronic and thermal Energies=              -854.536659
 Sum of electronic and thermal Enthalpies=            -854.535715
 Sum of electronic and thermal Free Energies=         -854.600595

                     E (Thermal)             CV                S
                      KCal/Mol        Cal/Mol-Kelvin    Cal/Mol-Kelvin
 Total                  211.451             62.672            136.550
 Electronic               0.000              0.000              0.000
 Translational            0.889              2.981             42.487
 Rotational               0.889              2.981             33.670
 Vibrational            209.673             56.711             60.394
 Vibration     1          0.593              1.986              7.406
 Vibration     2          0.594              1.984              5.829
 Vibration     3          0.595              1.980              5.115
 Vibration     4          0.597              1.972              4.362
 Vibration     5          0.601              1.959              3.763
 Vibration     6          0.602              1.956              3.656
 Vibration     7          0.606              1.943              3.304
 Vibration     8          0.609              1.932              3.087
 Vibration     9          0.615              1.913              2.799
 Vibration    10          0.627              1.875              2.397
 Vibration    11          0.656              1.783              1.822
 Vibration    12          0.667              1.751              1.680
 Vibration    13          0.691              1.678              1.429
 Vibration    14          0.696              1.664              1.388
 Vibration    15          0.722              1.589              1.196
 Vibration    16          0.741              1.537              1.086
 Vibration    17          0.750              1.512              1.037
 Vibration    18          0.771              1.457              0.941
 Vibration    19          0.825              1.323              0.745
 Vibration    20          0.843              1.278              0.690
 Vibration    21          0.889              1.175              0.578
 Vibration    22          0.927              1.094              0.502
 Vibration    23          0.946              1.055              0.469

 Optimization completed.
    -- Stationary point found.
 Normal termination of Gaussian 16 at Fri Dec 11 21:23:32 2020.

 ----------------------------------------------------------------------
 # B3LYP/6-311++G(d,p) empiricaldispersion=gd3bj scf=xqc pop=npa geom=c
 heck
 ----------------------------------------------------------------------

 ---------------------------------------
 CID_127750435_JID_8458_Energie_neutraal
 ---------------------------------------
 Structure from the checkpoint file:  "JID_8458.chk"
 Charge =  0 Multiplicity = 1

 SCF Done:  E(RB3LYP) =  -855.118639000     A.U. after   15 cycles
 Normal termination of Gaussian 16 at Fri Dec 11 21:29:29 2020.

 ----------------------------------------------------------------------
 # B3LYP/6-311++G(d,p) empiricaldispersion=gd3bj scf=xqc pop=npa geom=c
 heck
 ----------------------------------------------------------------------

 -------------------------------------
 CID_127750435_JID_8458_Energie_kation
 -------------------------------------
 Structure from the checkpoint file:  "JID_8458.chk"
 Charge =  1 Multiplicity = 2

 SCF Done:  E(UB3LYP) =  -854.801297703     A.U. after   33 cycles
 SCF Done:  E(UB3LYP) =  -854.801297704     a.u. after    2 cycles
 Normal termination of Gaussian 16 at Fri Dec 11 22:02:13 2020.
 Gaussian 16:  ES64L-G16RevA.03 25-Dec-2016

 ----------------------------------------------------------------------
 # B3LYP/6-311++G(d,p) empiricaldispersion=gd3bj scf=xqc pop=npa geom=c
 heck
 ----------------------------------------------------------------------

 ------------------------------------
 CID_127750435_JID_8458_Energie_anion
 ------------------------------------
 Structure from the checkpoint file:  "JID_8458.chk"
 Charge = -1 Multiplicity = 2

                         Standard orientation:
 ---------------------------------------------------------------------
 Center     Atomic      Atomic             Coordinates (Angstroms)
 Number     Number       Type             X           Y           Z
 ---------------------------------------------------------------------
      1          6           0       -3.035271    1.509257    0.527719
      2          6           0       -2.101437    0.483000    1.187032
      3          6           0       -1.809275   -0.764724    0.322041
      4          6           0       -3.023750   -1.677277    0.100419
      5          6           0       -4.301810   -0.975366   -0.367759
      6          8           0       -4.859610   -0.196341    0.677198
      7          6           0       -4.531879    1.186996    0.669135
      8          7           0       -1.245607   -0.425469   -1.004856
      9          6           0       -0.216894    0.516853   -1.138987
     10          8           0       -0.304318    1.474368   -1.899015
     11          7           0        0.897802    0.293075   -0.357729
     12          6           0        1.388818   -1.025011    0.009831
     13          6           0        2.767038   -1.320614   -0.595646
     14          7           0        3.813732   -0.470752   -0.047566
     15          6           0        4.884277   -0.794871    0.711360
     16          7           0        5.571309    0.289645    1.033878
     17          6           0        4.856828    1.281918    0.435247
     18          7           0        3.784641    0.878358   -0.234013
     19          1           0       -2.868835    2.496010    0.976935
     20          1           0       -2.755563    1.626716   -0.524648
     21          1           0       -1.139659    0.962816    1.398620
     22          1           0       -2.512909    0.154266    2.149565
     23          1           0       -1.059914   -1.357561    0.856502
     24          1           0       -2.745211   -2.457585   -0.620121
     25          1           0       -3.267236   -2.175522    1.045408
     26          1           0       -4.136916   -0.366883   -1.271238
     27          1           0       -5.050056   -1.732336   -0.629436
     28          1           0       -4.903664    1.551695    1.632138
     29          1           0       -5.097805    1.705528   -0.121910
     30          1           0       -1.968352   -0.169082   -1.669269
     31          1           0        1.618907    0.998497   -0.485008
     32          1           0        1.450337   -1.138730    1.101060
     33          1           0        0.690564   -1.774118   -0.370841
     34          1           0        3.054199   -2.354415   -0.382114
     35          1           0        2.739047   -1.182065   -1.680570
     36          1           0        5.119985   -1.812693    0.991012
     37          1           0        5.131478    2.326285    0.488117
 ---------------------------------------------------------------------

 SCF Done:  E(UB3LYP) =  -855.113615549     A.U. after   33 cycles
 SCF Done:  E(UB3LYP) =  -855.113615549     a.u. after    1 cycles

 The electronic state is 2-A.
 Alpha  occ. eigenvalues --  -19.04309 -18.99365 -14.31795 -14.25748 -14.23518
 Alpha  occ. eigenvalues --  -14.23409 -14.22400 -10.20147 -10.15329 -10.13906
 Alpha  occ. eigenvalues --  -10.13885 -10.13856 -10.13432 -10.12558 -10.12275
 Alpha  occ. eigenvalues --  -10.08727 -10.08537 -10.08404  -0.99918  -0.95770
 Alpha  occ. eigenvalues --   -0.95634  -0.84564  -0.82859  -0.81141  -0.76202
 Alpha  occ. eigenvalues --   -0.70851  -0.70074  -0.67039  -0.60800  -0.59929
 Alpha  occ. eigenvalues --   -0.58106  -0.54949  -0.52079  -0.51208  -0.49944
 Alpha  occ. eigenvalues --   -0.49000  -0.45627  -0.42617  -0.42057  -0.41719
 Alpha  occ. eigenvalues --   -0.40072  -0.39126  -0.38458  -0.38149  -0.37478
 Alpha  occ. eigenvalues --   -0.35993  -0.35143  -0.34185  -0.33728  -0.32756
 Alpha  occ. eigenvalues --   -0.32341  -0.31674  -0.30622  -0.29713  -0.29454
 Alpha  occ. eigenvalues --   -0.29075  -0.26590  -0.25937  -0.25098  -0.24029
 Alpha  occ. eigenvalues --   -0.22853  -0.21174  -0.20368  -0.19319  -0.18883
 Alpha  occ. eigenvalues --   -0.17916  -0.16580  -0.15748   0.03808
 Alpha virt. eigenvalues --    0.05673   0.06637   0.06842   0.07435   0.07939
 Alpha virt. eigenvalues --    0.08372   0.08822   0.09225   0.09613   0.10123
 Alpha virt. eigenvalues --    0.10164   0.10852   0.11270   0.11514   0.12135

  Beta  occ. eigenvalues --  -19.04305 -18.99364 -14.31788 -14.25721 -14.23518
  Beta  occ. eigenvalues --  -14.23404 -14.22404 -10.20146 -10.15281 -10.13895
  Beta  occ. eigenvalues --  -10.13879 -10.13850 -10.13383 -10.12550 -10.12240
  Beta  occ. eigenvalues --  -10.08724 -10.08517 -10.08394  -0.99888  -0.95765
  Beta  occ. eigenvalues --   -0.95629  -0.84552  -0.82838  -0.81126  -0.76149
  Beta  occ. eigenvalues --   -0.70835  -0.70050  -0.66982  -0.60777  -0.59903
  Beta  occ. eigenvalues --   -0.58038  -0.54918  -0.52058  -0.51127  -0.49909
  Beta  occ. eigenvalues --   -0.48977  -0.45556  -0.42586  -0.42013  -0.41700
  Beta  occ. eigenvalues --   -0.40048  -0.39099  -0.38403  -0.38120  -0.37441
  Beta  occ. eigenvalues --   -0.35966  -0.35087  -0.34160  -0.33694  -0.32727
  Beta  occ. eigenvalues --   -0.32312  -0.31627  -0.30582  -0.29678  -0.29431
  Beta  occ. eigenvalues --   -0.29055  -0.26575  -0.25910  -0.25065  -0.24006
  Beta  occ. eigenvalues --   -0.22841  -0.21120  -0.20357  -0.19296  -0.18795
  Beta  occ. eigenvalues --   -0.17893  -0.16564  -0.15740
  Beta virt. eigenvalues --    0.05698   0.06877   0.06963   0.07265   0.07736
  Beta virt. eigenvalues --    0.08251   0.08700   0.09203   0.09616   0.09728
  Beta virt. eigenvalues --    0.10299   0.10374   0.11211   0.11585   0.11728

 Mulliken charges and spin densities:
               1          2
     1  C   -0.151141  -0.076137
     2  C   -0.135989  -0.289899
     3  C    0.243777  -0.224925
     4  C   -0.444972  -0.008128
     5  C   -0.126927  -0.159945
     6  O   -0.127952   0.026839
     7  C   -0.061214  -0.438309
     8  N   -0.030057  -0.007895
     9  C    0.217729  -0.205153
    10  O   -0.324166   0.008727
    11  N   -0.241323   0.096214
    12  C   -1.127317   1.020009
    13  C    2.492108  -3.355258
    14  N   -0.066351   0.152405
    15  C    0.527600  -0.531683
    16  N   -0.204221   0.020872
    17  C    0.096922  -0.191804
    18  N   -0.328226   0.196860
    19  H    0.127050   0.031728
    20  H    0.197916  -0.003834
    21  H    0.036775   0.166757
    22  H   -0.019128   0.194159
    23  H   -0.511502   0.694102
    24  H   -0.232928   0.390028
    25  H    0.079088   0.120007
    26  H    0.120187  -0.016448
    27  H   -0.141330   0.352724
    28  H    0.076770   0.082962
    29  H    0.062716   0.074007
    30  H    0.284359   0.001503
    31  H    0.368877   0.001584
    32  H   -0.071794   0.272355
    33  H    0.068016   0.167627
    34  H   -1.080534   1.322479
    35  H    0.007197   0.207040
    36  H   -0.736161   0.911309
    37  H    0.156145  -0.002881
 Sum of Mulliken charges =  -1.00000   1.00000

 Dipole moment (field-independent basis, Debye):
    X=             -5.3380    Y=              6.8627    Z=             -0.4099  Tot=              8.7040
 Quadrupole moment (field-independent basis, Debye-Ang):
   XX=           -204.4074   YY=           -163.9872   ZZ=           -142.6381
   XY=             12.8149   XZ=             -2.1225   YZ=              7.0970

 Summary of Natural Population Analysis:

                                       Natural Population
                Natural  -----------------------------------------------
    Atom  No    Charge         Core      Valence    Rydberg      Total
 -----------------------------------------------------------------------
      C    1   -0.21598      0.99962     2.20907    0.00729     3.21598
      C    2   -0.20260      0.99960     2.19359    0.00940     3.20260
      C    3   -0.01147      0.99957     1.99798    0.01391     3.01147
      C    4   -0.20581      0.99960     2.19582    0.01040     3.20581
      C    5   -0.01391      0.99958     2.00106    0.01327     3.01391
      O    6   -0.30470      0.99989     3.29558    0.00923     4.30470
      C    7   -0.00392      0.99958     1.99350    0.01084     3.00392
      N    8   -0.34695      0.99968     2.83679    0.01048     3.84695
      C    9    0.41024      0.99970     1.56639    0.02368     2.58976
      O   10   -0.33525      0.99987     3.33048    0.00489     4.33525
      N   11   -0.34038      0.99966     2.83154    0.00918     3.84038
      C   12   -0.09474      0.99960     2.08340    0.01173     3.09474
      C   13   -0.08699      0.99959     2.07494    0.01246     3.08699
      N   14   -0.11299      0.99966     2.59891    0.01442     3.61299
      C   15    0.12015      0.99962     1.86357    0.01666     2.87985
      N   16   -0.26659      0.99973     2.75712    0.00973     3.76659
      C   17    0.09053      0.99970     1.89129    0.01848     2.90947
      N   18   -0.16928      0.99972     2.65916    0.01040     3.66928
      H   19    0.10429      0.00000     0.39478    0.00093     0.39571
      H   20    0.10208      0.00000     0.39622    0.00169     0.39792
      H   21    0.10707      0.00000     0.39166    0.00128     0.39293
      H   22    0.10365      0.00000     0.39534    0.00101     0.39635
      H   23    0.10231      0.00000     0.39503    0.00266     0.39769
      H   24    0.10732      0.00000     0.39114    0.00154     0.39268
      H   25    0.10660      0.00000     0.39211    0.00128     0.39340
      H   26    0.07561      0.00000     0.42306    0.00134     0.42439
      H   27    0.09211      0.00000     0.40666    0.00123     0.40789
      H   28    0.08789      0.00000     0.41086    0.00124     0.41211
      H   29    0.07663      0.00000     0.42214    0.00123     0.42337
      H   30    0.18662      0.00000     0.31091    0.00247     0.31338
      H   31    0.20873      0.00000     0.28845    0.00281     0.29127
      H   32    0.09591      0.00000     0.40218    0.00191     0.40409
      H   33    0.11372      0.00000     0.38349    0.00278     0.38628
      H   34    0.11742      0.00000     0.37209    0.01049     0.38258
      H   35    0.10500      0.00000     0.39352    0.00149     0.39500
      H   36    0.10549      0.00000     0.39222    0.00230     0.39451
      H   37    0.09218      0.00000     0.40706    0.00076     0.40782
 =======================================================================
   * Total *   -0.00000     17.99399    49.74913    0.25688    68.00000

 Normal termination of Gaussian 16 at Fri Dec 11 22:19:29 2020.
