 Gaussian 16, Revision A.03,

 -----------------------------------------------------------
 # opt freq B3LYP/6-31G(d) empiricaldispersion=gd3bj scf=xqc
 -----------------------------------------------------------

 -------------------------------
 CID_60965135_JID_10326_neutraal
 -------------------------------
 Symbolic Z-matrix:
 Charge =  0 Multiplicity = 1

 SCF Done:  E(RB3LYP) =  -1221.98425662     A.U. after   14 cycles
 SCF Done:  E(RB3LYP) =  -1221.99361895     A.U. after   13 cycles
 SCF Done:  E(RB3LYP) =  -1221.99430258     A.U. after   12 cycles
 SCF Done:  E(RB3LYP) =  -1221.99592448     A.U. after   12 cycles
 SCF Done:  E(RB3LYP) =  -1221.99653286     A.U. after   11 cycles
 SCF Done:  E(RB3LYP) =  -1221.99694585     A.U. after   12 cycles
 SCF Done:  E(RB3LYP) =  -1221.99731771     A.U. after   12 cycles
 SCF Done:  E(RB3LYP) =  -1221.99776475     A.U. after   13 cycles
 SCF Done:  E(RB3LYP) =  -1221.99828907     A.U. after   12 cycles
 SCF Done:  E(RB3LYP) =  -1221.99849509     A.U. after   12 cycles
 SCF Done:  E(RB3LYP) =  -1221.99915681     A.U. after   10 cycles
 SCF Done:  E(RB3LYP) =  -1221.99915971     A.U. after   10 cycles
 SCF Done:  E(RB3LYP) =  -1221.99915967     A.U. after    7 cycles
 SCF Done:  E(RB3LYP) =  -1221.99915970     A.U. after    9 cycles
 SCF Done:  E(RB3LYP) =  -1221.99915980     A.U. after    9 cycles
 Optimization completed on the basis of negligible forces.
    -- Stationary point found.
 Normal termination of Gaussian 16 at Sun Dec 13 21:18:34 2020.

 --------------------------------------------------------------------
 #N Geom=AllCheck Guess=TCheck SCRF=Check GenChk RB3LYP/6-31G(d) Freq
 --------------------------------------------------------------------

 Structure from the checkpoint file:  "JID_10326.chk"
 -------------------------------
 CID_60965135_JID_10326_neutraal
 -------------------------------
 Charge =  0 Multiplicity = 1

 SCF Done:  E(RB3LYP) =  -1221.99915980     A.U. after    1 cycles

  Exact polarizability: 258.801  12.522 209.283 -10.230   0.727 124.627
 Approx polarizability: 365.580  18.879 336.605 -29.650   2.490 195.157

                      1                      2                      3
                      A                      A                      A
 Frequencies --     14.4015                18.9490                27.3477
 Red. masses --      4.2218                 3.2166                 3.7532
 Frc consts  --      0.0005                 0.0007                 0.0017
 IR Inten    --      0.0514                 0.0018                 0.0526

                      4                      5                      6
                      A                      A                      A
 Frequencies --     33.1218                51.5402                63.7254
 Red. masses --      2.7503                 1.0389                 4.7348
 Frc consts  --      0.0018                 0.0016                 0.0113
 IR Inten    --      0.0348                 0.1583                 0.1894

                      7                      8                      9
                      A                      A                      A
 Frequencies --     92.3175               111.9385               123.6020
 Red. masses --      3.5104                 3.2523                 3.7214
 Frc consts  --      0.0176                 0.0240                 0.0335
 IR Inten    --      2.2805                 0.6140                 1.7419

                     10                     11                     12
                      A                      A                      A
 Frequencies --    154.5527               202.9018               213.7788
 Red. masses --      3.5113                 1.3351                 2.1615
 Frc consts  --      0.0494                 0.0324                 0.0582
 IR Inten    --      1.3833                 0.8112                 1.5082

                     13                     14                     15
                      A                      A                      A
 Frequencies --    223.7495               234.3877               245.8313
 Red. masses --      3.1222                 5.6323                 3.7560
 Frc consts  --      0.0921                 0.1823                 0.1337
 IR Inten    --      3.5984                 1.0997                 6.0684

                     16                     17                     18
                      A                      A                      A
 Frequencies --    268.0761               297.9963               317.3998
 Red. masses --      3.5963                 2.0537                 2.5573
 Frc consts  --      0.1523                 0.1074                 0.1518
 IR Inten    --      3.3895                 3.7865                 1.1487

                     19                     20                     21
                      A                      A                      A
 Frequencies --    341.2114               368.0875               406.7848
 Red. masses --      4.5203                 2.8712                 3.5579
 Frc consts  --      0.3101                 0.2292                 0.3469
 IR Inten    --      0.6816                 0.2315                 1.2290

                     22                     23                     24
                      A                      A                      A
 Frequencies --    424.0937               437.9144               480.6235
 Red. masses --      3.2627                 6.9888                 4.2507
 Frc consts  --      0.3457                 0.7896                 0.5785
 IR Inten    --      1.2910                 0.2078                 1.3367

                     25                     26                     27
                      A                      A                      A
 Frequencies --    506.3008               512.3499               543.5754
 Red. masses --      3.8372                 4.1493                 4.4286
 Frc consts  --      0.5795                 0.6417                 0.7710
 IR Inten    --     11.1892                 9.4719                 2.6478

                     28                     29                     30
                      A                      A                      A
 Frequencies --    552.4079               605.5001               624.7304
 Red. masses --      4.9242                 2.0757                 4.9176
 Frc consts  --      0.8853                 0.4484                 1.1308
 IR Inten    --      3.5844                 1.0146                 7.4613

                     31                     32                     33
                      A                      A                      A
 Frequencies --    633.5443               670.8133               731.4227
 Red. masses --      4.9176                 6.1470                 3.7147
 Frc consts  --      1.1629                 1.6297                 1.1709
 IR Inten    --      1.7216                 0.4972                 9.4966

                     34                     35                     36
                      A                      A                      A
 Frequencies --    734.4829               772.9818               810.4503
 Red. masses --      3.2605                 1.4202                 5.8461
 Frc consts  --      1.0363                 0.5000                 2.2624
 IR Inten    --      1.5777                 1.4420                 2.3179

                     37                     38                     39
                      A                      A                      A
 Frequencies --    825.4518               843.3853               854.1470
 Red. masses --      5.9433                 1.9053                 1.9489
 Frc consts  --      2.3859                 0.7985                 0.8377
 IR Inten    --     13.4120                 8.3034                99.9026

                     40                     41                     42
                      A                      A                      A
 Frequencies --    865.3835               900.9138               904.7597
 Red. masses --      2.2867                 3.1149                 2.0026
 Frc consts  --      1.0090                 1.4896                 0.9658
 IR Inten    --      1.9793                 2.6945                 3.9379

                     43                     44                     45
                      A                      A                      A
 Frequencies --    918.2909               940.9040               950.2481
 Red. masses --      2.1392                 1.9176                 2.2723
 Frc consts  --      1.0628                 1.0002                 1.2089
 IR Inten    --      2.7974                13.0643                 3.8649

                     46                     47                     48
                      A                      A                      A
 Frequencies --    962.7274               968.5548              1005.6583
 Red. masses --      1.4601                 1.6644                 2.6987
 Frc consts  --      0.7974                 0.9199                 1.6081
 IR Inten    --      3.0652                 9.3053                 8.2397

                     49                     50                     51
                      A                      A                      A
 Frequencies --   1015.6331              1039.0356              1058.9956
 Red. masses --      2.0036                 2.1542                 1.3668
 Frc consts  --      1.2177                 1.3703                 0.9031
 IR Inten    --     26.8254                63.9420                 1.0640

                     52                     53                     54
                      A                      A                      A
 Frequencies --   1062.0218              1074.6467              1081.2242
 Red. masses --      2.0552                 2.2239                 1.4735
 Frc consts  --      1.3658                 1.5132                 1.0149
 IR Inten    --      2.0291                25.4865                 0.3955

                     55                     56                     57
                      A                      A                      A
 Frequencies --   1100.2499              1121.5235              1129.7380
 Red. masses --      1.6351                 2.0431                 2.1928
 Frc consts  --      1.1662                 1.5141                 1.6489
 IR Inten    --     34.2363                 2.0809                 0.8535

                     58                     59                     60
                      A                      A                      A
 Frequencies --   1137.9044              1143.0743              1192.4234
 Red. masses --      3.7867                 2.5184                 4.2990
 Frc consts  --      2.8888                 1.9388                 3.6015
 IR Inten    --    102.0014               161.0247                12.1089

                     61                     62                     63
                      A                      A                      A
 Frequencies --   1203.3084              1217.9289              1238.0129
 Red. masses --      1.5514                 1.5688                 1.4174
 Frc consts  --      1.3235                 1.3711                 1.2800
 IR Inten    --     13.3368                40.4329                 9.6067

                     64                     65                     66
                      A                      A                      A
 Frequencies --   1243.0029              1269.7559              1277.9519
 Red. masses --      2.2129                 1.3244                 3.7883
 Frc consts  --      2.0144                 1.2581                 3.6452
 IR Inten    --      9.2923                29.6477                 2.4766

                     67                     68                     69
                      A                      A                      A
 Frequencies --   1284.5351              1301.1913              1310.6622
 Red. masses --      1.4224                 1.2556                 1.6536
 Frc consts  --      1.3828                 1.2525                 1.6737
 IR Inten    --      9.1489                20.2962                49.2428

                     70                     71                     72
                      A                      A                      A
 Frequencies --   1315.8924              1328.3152              1354.9943
 Red. masses --      4.0334                 1.3391                 1.2795
 Frc consts  --      4.1150                 1.3920                 1.3841
 IR Inten    --      0.5207                 0.7826                 0.2230

                     73                     74                     75
                      A                      A                      A
 Frequencies --   1365.7839              1368.6331              1376.7309
 Red. masses --      1.5345                 1.9842                 1.5506
 Frc consts  --      1.6865                 2.1898                 1.7316
 IR Inten    --     35.6527                23.0535                 0.8991

                     76                     77                     78
                      A                      A                      A
 Frequencies --   1390.4466              1401.8791              1409.9899
 Red. masses --      1.3364                 2.2167                 2.0265
 Frc consts  --      1.5222                 2.5667                 2.3738
 IR Inten    --    117.1158                27.9987                23.6569

                     79                     80                     81
                      A                      A                      A
 Frequencies --   1439.2684              1447.8741              1451.8317
 Red. masses --      1.3431                 1.2349                 1.4342
 Frc consts  --      1.6392                 1.5252                 1.7811
 IR Inten    --      0.7036                 4.0532                 2.8617

                     82                     83                     84
                      A                      A                      A
 Frequencies --   1478.0447              1506.6396              1507.4333
 Red. masses --      1.7128                 1.1095                 1.1231
 Frc consts  --      2.2046                 1.4839                 1.5036
 IR Inten    --     15.0685                19.3246                29.0640

                     85                     86                     87
                      A                      A                      A
 Frequencies --   1510.6997              1513.3021              1515.5197
 Red. masses --      1.1301                 1.6620                 1.1479
 Frc consts  --      1.5196                 2.2425                 1.5534
 IR Inten    --     19.0639               205.0177                13.4398

                     88                     89                     90
                      A                      A                      A
 Frequencies --   1520.3316              1522.1168              1536.5460
 Red. masses --      1.0931                 1.0924                 1.1474
 Frc consts  --      1.4887                 1.4912                 1.5961
 IR Inten    --      3.1200                 6.8158                11.5837

                     91                     92                     93
                      A                      A                      A
 Frequencies --   1539.6760              1543.6442              1544.1591
 Red. masses --      1.0909                 1.1059                 1.0823
 Frc consts  --      1.5237                 1.5527                 1.5205
 IR Inten    --     22.9727                 1.1820                 7.2098

                     94                     95                     96
                      A                      A                      A
 Frequencies --   1572.9465              1607.8157              1625.8406
 Red. masses --      5.0334                 4.3787                 5.5566
 Frc consts  --      7.3374                 6.6691                 8.6539
 IR Inten    --    264.6474                97.4156                50.5573

                     97                     98                     99
                      A                      A                      A
 Frequencies --   2997.4479              3012.2039              3016.1800
 Red. masses --      1.0569                 1.0768                 1.0828
 Frc consts  --      5.5947                 5.7566                 5.8038
 IR Inten    --     26.1193                10.5759                48.6141

                    100                    101                    102
                      A                      A                      A
 Frequencies --   3038.7313              3041.6639              3046.1808
 Red. masses --      1.1032                 1.0464                 1.0391
 Frc consts  --      6.0021                 5.7037                 5.6812
 IR Inten    --     85.7014                33.2745                36.1067

                    103                    104                    105
                      A                      A                      A
 Frequencies --   3050.3639              3060.9897              3069.0392
 Red. masses --      1.0697                 1.0660                 1.0616
 Frc consts  --      5.8644                 5.8848                 5.8915
 IR Inten    --     36.0712                32.1236                28.2800

                    106                    107                    108
                      A                      A                      A
 Frequencies --   3080.6700              3094.2883              3103.8730
 Red. masses --      1.0647                 1.1011                 1.0981
 Frc consts  --      5.9535                 6.2117                 6.2328
 IR Inten    --     37.8155                15.3294                21.6131

                    109                    110                    111
                      A                      A                      A
 Frequencies --   3105.2914              3107.3225              3118.0145
 Red. masses --      1.0919                 1.0963                 1.1059
 Frc consts  --      6.2033                 6.2369                 6.3344
 IR Inten    --     20.8665                30.0205                28.2822

                    112                    113                    114
                      A                      A                      A
 Frequencies --   3130.6728              3143.1896              3150.5950
 Red. masses --      1.1041                 1.0980                 1.1000
 Frc consts  --      6.3757                 6.3916                 6.4333
 IR Inten    --     56.5195                11.7108                 4.2415

                    115                    116                    117
                      A                      A                      A
 Frequencies --   3163.1698              3193.4535              3528.8068
 Red. masses --      1.0881                 1.0908                 1.0731
 Frc consts  --      6.4144                 6.5539                 7.8730
 IR Inten    --     10.1355                34.4271                37.1014

 - Thermochemistry -
 -------------------
 Temperature   298.150 Kelvin.  Pressure   1.00000 Atm.
 Atom     1 has atomic number  6 and mass  12.00000

 Molecular mass:   291.14053 amu.
 Principal axes and moments of inertia in atomic units:
                           1         2         3
     Eigenvalues --  2522.77754********************
           X            0.99994   0.01105   0.00233
           Y           -0.01106   0.99994   0.00213
           Z           -0.00230  -0.00215   1.00000
 This molecule is an asymmetric top.
 Rotational symmetry number  1.
 Warning -- assumption of classical behavior for rotation
           may cause significant error
 Rotational temperatures (Kelvin)      0.03433     0.00612     0.00539
 Rotational constants (GHZ):           0.71538     0.12746     0.11228
 Zero-point vibrational energy     916606.5 (Joules/Mol)
                                  219.07421 (Kcal/Mol)
 Warning -- explicit consideration of  29 degrees of freedom as
           vibrations may cause significant error
 Vibrational temperatures:     20.72    27.26    39.35    47.65    74.15
          (Kelvin)             91.69   132.82   161.05   177.84   222.37
                              291.93   307.58   321.93   337.23   353.70
                              385.70   428.75   456.67   490.93   529.60
                              585.27   610.18   630.06   691.51   728.45
                              737.16   782.08   794.79   871.18   898.85
                              911.53   965.15  1052.35  1056.76  1112.15
                             1166.06  1187.64  1213.44  1228.93  1245.09
                             1296.21  1301.75  1321.22  1353.75  1367.20
                             1385.15  1393.53  1446.92  1461.27  1494.94
                             1523.66  1528.01  1546.18  1555.64  1583.01
                             1613.62  1625.44  1637.19  1644.63  1715.63
                             1731.29  1752.33  1781.22  1788.40  1826.90
                             1838.69  1848.16  1872.12  1885.75  1893.28
                             1911.15  1949.53  1965.06  1969.16  1980.81
                             2000.54  2016.99  2028.66  2070.79  2083.17
                             2088.86  2126.58  2167.72  2168.86  2173.56
                             2177.30  2180.49  2187.42  2189.99  2210.75
                             2215.25  2220.96  2221.70  2263.12  2313.29
                             2339.22  4312.66  4333.89  4339.61  4372.06
                             4376.28  4382.77  4388.79  4404.08  4415.66
                             4432.40  4451.99  4465.78  4467.82  4470.74
                             4486.13  4504.34  4522.35  4533.00  4551.10
                             4594.67  5077.17

 Zero-point correction=                           0.349117 (Hartree/Particle)
 Thermal correction to Energy=                    0.368632
 Thermal correction to Enthalpy=                  0.369576
 Thermal correction to Gibbs Free Energy=         0.297092
 Sum of electronic and zero-point Energies=          -1221.650043
 Sum of electronic and thermal Energies=             -1221.630528
 Sum of electronic and thermal Enthalpies=           -1221.629584
 Sum of electronic and thermal Free Energies=        -1221.702068

                     E (Thermal)             CV                S
                      KCal/Mol        Cal/Mol-Kelvin    Cal/Mol-Kelvin
 Total                  231.320             72.933            152.555
 Electronic               0.000              0.000              0.000
 Translational            0.889              2.981             42.903
 Rotational               0.889              2.981             34.706
 Vibrational            229.542             66.971             74.946
 Vibration     1          0.593              1.986              7.286
 Vibration     2          0.593              1.986              6.741
 Vibration     3          0.593              1.984              6.013
 Vibration     4          0.594              1.983              5.633
 Vibration     5          0.596              1.977              4.757
 Vibration     6          0.597              1.972              4.338
 Vibration     7          0.602              1.955              3.610
 Vibration     8          0.607              1.940              3.235
 Vibration     9          0.610              1.929              3.043
 Vibration    10          0.620              1.898              2.615
 Vibration    11          0.639              1.836              2.107
 Vibration    12          0.644              1.820              2.011
 Vibration    13          0.649              1.805              1.929
 Vibration    14          0.654              1.788              1.845
 Vibration    15          0.660              1.770              1.760
 Vibration    16          0.673              1.732              1.609
 Vibration    17          0.691              1.677              1.428
 Vibration    18          0.704              1.640              1.323
 Vibration    19          0.721              1.593              1.206
 Vibration    20          0.741              1.538              1.088
 Vibration    21          0.772              1.455              0.938
 Vibration    22          0.786              1.418              0.878
 Vibration    23          0.798              1.388              0.833
 Vibration    24          0.837              1.293              0.708
 Vibration    25          0.862              1.236              0.643
 Vibration    26          0.867              1.223              0.628
 Vibration    27          0.899              1.154              0.558
 Vibration    28          0.908              1.134              0.539
 Vibration    29          0.964              1.020              0.440

 Optimization completed on the basis of negligible forces.
    -- Stationary point found.
 Normal termination of Gaussian 16 at Sun Dec 13 21:41:07 2020.

 ----------------------------------------------------------------------
 # B3LYP/6-311++G(d,p) empiricaldispersion=gd3bj scf=xqc pop=npa geom=c
 heck
 ----------------------------------------------------------------------

 ---------------------------------------
 CID_60965135_JID_10326_Energie_neutraal
 ---------------------------------------
 Structure from the checkpoint file:  "JID_10326.chk"
 Charge =  0 Multiplicity = 1

 SCF Done:  E(RB3LYP) =  -1222.24418217     A.U. after   14 cycles
 Normal termination of Gaussian 16 at Sun Dec 13 21:51:34 2020.

 ----------------------------------------------------------------------
 # B3LYP/6-311++G(d,p) empiricaldispersion=gd3bj scf=xqc pop=npa geom=c
 heck
 ----------------------------------------------------------------------

 -------------------------------------
 CID_60965135_JID_10326_Energie_kation
 -------------------------------------
 Structure from the checkpoint file:  "JID_10326.chk"
 Charge =  1 Multiplicity = 2

 SCF Done:  E(UB3LYP) =  -1221.96487404     A.U. after   24 cycles
 Normal termination of Gaussian 16 at Sun Dec 13 22:16:26 2020.
 Gaussian 16:  ES64L-G16RevA.03 25-Dec-2016

 ----------------------------------------------------------------------
 # B3LYP/6-311++G(d,p) empiricaldispersion=gd3bj scf=xqc pop=npa geom=c
 heck
 ----------------------------------------------------------------------

 ------------------------------------
 CID_60965135_JID_10326_Energie_anion
 ------------------------------------
 Structure from the checkpoint file:  "JID_10326.chk"
 Charge = -1 Multiplicity = 2

                         Standard orientation:
 ---------------------------------------------------------------------
 Center     Atomic      Atomic             Coordinates (Angstroms)
 Number     Number       Type             X           Y           Z
 ---------------------------------------------------------------------
      1          6           0       -1.610328   -2.183391   -0.733444
      2          6           0       -2.537822   -1.095678   -0.248119
      3          6           0       -3.864567   -1.302889    0.013380
      4         16           0       -4.743768    0.181758    0.382987
      5          6           0       -3.288571    1.129789    0.155441
      6          7           0       -3.282109    2.464260    0.199010
      7          6           0       -2.092513    2.999429   -0.073795
      8          7           0       -0.938436    2.351188   -0.276501
      9          6           0       -0.953603    1.010871   -0.252943
     10          6           0       -2.175946    0.303486   -0.121188
     11          7           0        0.278547    0.379497   -0.385234
     12          6           0        0.752317   -0.462813    0.720882
     13          6           0        2.044328   -1.146666    0.314765
     14          8           0        2.981618   -0.124697    0.030681
     15          6           0        4.164047   -0.559919   -0.648457
     16          6           0        4.941346    0.707967   -1.045529
     17          6           0        5.985171    0.950688    0.082791
     18          6           0        5.727792   -0.157779    1.128010
     19          6           0        5.118068   -1.299305    0.301980
     20          6           0       -4.625069   -2.592851   -0.019346
     21          1           0       -2.125130   -2.850755   -1.431289
     22          1           0       -1.225480   -2.807240    0.083720
     23          1           0       -0.755589   -1.747943   -1.255650
     24          1           0       -2.045631    4.085392   -0.110035
     25          1           0        0.986460    1.081492   -0.589205
     26          1           0        0.931866    0.139832    1.624564
     27          1           0       -0.000674   -1.210869    0.969022
     28          1           0        2.391210   -1.800372    1.129402
     29          1           0        1.876348   -1.769457   -0.578118
     30          1           0        3.867315   -1.168079   -1.515913
     31          1           0        5.433360    0.556880   -2.011811
     32          1           0        4.239229    1.537823   -1.162855
     33          1           0        5.900950    1.951478    0.516209
     34          1           0        7.001166    0.861050   -0.318018
     35          1           0        4.991866    0.183262    1.864200
     36          1           0        6.631732   -0.452293    1.670233
     37          1           0        4.620725   -2.067121    0.903319
     38          1           0        5.893759   -1.799671   -0.293219
     39          1           0       -5.412697   -2.579248   -0.782947
     40          1           0       -3.957877   -3.430646   -0.236172
     41          1           0       -5.109480   -2.794318    0.943831
 ---------------------------------------------------------------------

 SCF Done:  E(UB3LYP) =  -1222.24043984     A.U. after   33 cycles
 SCF Done:  E(UB3LYP) =  -1222.24043984     a.u. after    1 cycles

 The electronic state is 2-A.
 Alpha  occ. eigenvalues --  -88.76343 -19.03546 -14.21596 -14.19690 -14.19683
 Alpha  occ. eigenvalues --  -10.13486 -10.13164 -10.12964 -10.12593 -10.11229
 Alpha  occ. eigenvalues --  -10.10745 -10.09192 -10.08547 -10.07942 -10.07932
 Alpha  occ. eigenvalues --  -10.07784 -10.07670 -10.07647 -10.07577 -10.07197
 Alpha  occ. eigenvalues --   -7.85026  -5.81318  -5.80984  -5.80573  -0.95023
 Alpha  occ. eigenvalues --   -0.88129  -0.83168  -0.77817  -0.75465  -0.74381
 Alpha  occ. eigenvalues --   -0.67482  -0.66333  -0.65588  -0.62581  -0.61543
 Alpha  occ. eigenvalues --   -0.60473  -0.57408  -0.53588  -0.51550  -0.50485
 Alpha  occ. eigenvalues --   -0.48334  -0.47813  -0.44166  -0.42812  -0.41923
 Alpha  occ. eigenvalues --   -0.40571  -0.40169  -0.38303  -0.37463  -0.36935
 Alpha  occ. eigenvalues --   -0.35645  -0.34622  -0.33660  -0.33249  -0.32187
 Alpha  occ. eigenvalues --   -0.31785  -0.31382  -0.30751  -0.30464  -0.29078
 Alpha  occ. eigenvalues --   -0.28354  -0.27974  -0.27102  -0.26893  -0.25703
 Alpha  occ. eigenvalues --   -0.25543  -0.25079  -0.24484  -0.24032  -0.23874
 Alpha  occ. eigenvalues --   -0.22516  -0.21606  -0.19154  -0.17382  -0.15798
 Alpha  occ. eigenvalues --   -0.15042  -0.14879  -0.10992   0.03771
 Alpha virt. eigenvalues --    0.05153   0.06075   0.06992   0.07159   0.07802
 Alpha virt. eigenvalues --    0.08139   0.08668   0.08870   0.09246   0.09844
 Alpha virt. eigenvalues --    0.10007   0.10054   0.10243   0.10956   0.11225

  Beta  occ. eigenvalues --  -88.76336 -19.03540 -14.21596 -14.19758 -14.19615
  Beta  occ. eigenvalues --  -10.13305 -10.13156 -10.12975 -10.12573 -10.11029
  Beta  occ. eigenvalues --  -10.10722 -10.08957 -10.08559 -10.07940 -10.07931
  Beta  occ. eigenvalues --  -10.07776 -10.07655 -10.07630 -10.07510 -10.07182
  Beta  occ. eigenvalues --   -7.85019  -5.81318  -5.80984  -5.80541  -0.95010
  Beta  occ. eigenvalues --   -0.87964  -0.83041  -0.77704  -0.75331  -0.74341
  Beta  occ. eigenvalues --   -0.67298  -0.66265  -0.65523  -0.62547  -0.61460
  Beta  occ. eigenvalues --   -0.60428  -0.57235  -0.53479  -0.51409  -0.50327
  Beta  occ. eigenvalues --   -0.48299  -0.47761  -0.44065  -0.42700  -0.41841
  Beta  occ. eigenvalues --   -0.40527  -0.40068  -0.38271  -0.37389  -0.36861
  Beta  occ. eigenvalues --   -0.35561  -0.34347  -0.33578  -0.33053  -0.32094
  Beta  occ. eigenvalues --   -0.31674  -0.31315  -0.30586  -0.30403  -0.29018
  Beta  occ. eigenvalues --   -0.28271  -0.27919  -0.27042  -0.26863  -0.25675
  Beta  occ. eigenvalues --   -0.25512  -0.25042  -0.24271  -0.23924  -0.23775
  Beta  occ. eigenvalues --   -0.22382  -0.21120  -0.19099  -0.17360  -0.15541
  Beta  occ. eigenvalues --   -0.14898  -0.14643  -0.10301
  Beta virt. eigenvalues --    0.05769   0.06180   0.07280   0.07416   0.07484
  Beta virt. eigenvalues --    0.08016   0.08397   0.08793   0.08977   0.09280
  Beta virt. eigenvalues --    0.09933   0.10054   0.10086   0.10459   0.11010

 Mulliken charges and spin densities:
               1          2
     1  C   -0.211695  -0.945041
     2  C   -0.015295   0.523466
     3  C   -0.326615   0.221379
     4  S   -0.517627  -0.028826
     5  C   -0.473715   0.076506
     6  N   -0.075364   0.016573
     7  C    0.049665   0.200076
     8  N   -0.128008  -0.047499
     9  C   -0.001231   0.172424
    10  C    0.290089   0.163592
    11  N    0.003018   0.049779
    12  C   -0.537976   0.077973
    13  C    0.370304  -0.703854
    14  O   -0.015358   0.005835
    15  C   -0.170452   0.122946
    16  C   -0.242013  -0.193376
    17  C    0.175202  -0.524210
    18  C   -0.002981  -0.252449
    19  C    0.048066  -0.217567
    20  C    0.041831  -0.363050
    21  H    0.085592   0.044715
    22  H   -0.128586   0.300960
    23  H    0.097253   0.104640
    24  H    0.178245   0.003769
    25  H    0.325596  -0.007096
    26  H    0.110761   0.063639
    27  H    0.193477  -0.045651
    28  H   -0.068803   0.183594
    29  H    0.170272  -0.034523
    30  H   -0.111388   0.295993
    31  H   -0.005130   0.153318
    32  H    0.124602   0.013701
    33  H    0.079845   0.059075
    34  H   -0.037684   0.164655
    35  H    0.131950   0.008338
    36  H   -0.100307   0.260578
    37  H   -0.259661   0.414059
    38  H   -0.253453   0.410320
    39  H    0.011714   0.150092
    40  H    0.047720   0.099808
    41  H    0.148141   0.001339
 Sum of Mulliken charges =  -1.00000   1.00000

 Dipole moment (field-independent basis, Debye):
    X=             -1.8125    Y=             -0.6812    Z=              0.2988  Tot=              1.9592
 Quadrupole moment (field-independent basis, Debye-Ang):
   XX=           -242.8547   YY=           -168.1963   ZZ=           -149.8527
   XY=             18.9734   XZ=             -0.6199   YZ=              0.1229

 Summary of Natural Population Analysis:

                                       Natural Population
                Natural  -----------------------------------------------
    Atom  No    Charge         Core      Valence    Rydberg      Total
 -----------------------------------------------------------------------
      C    1   -0.29947      0.99963     2.29390    0.00595     3.29947
      C    2   -0.04617      0.99940     2.03673    0.01003     3.04617
      C    3   -0.04476      0.99942     2.03457    0.01077     3.04476
      S    4    0.18066      4.99941     2.79920    0.02074     7.81934
      C    5    0.03696      0.99945     1.94373    0.01986     2.96304
      N    6   -0.25768      0.99966     2.74694    0.01108     3.75768
      C    7    0.17044      0.99967     1.81101    0.01888     2.82956
      N    8   -0.28556      0.99968     2.77643    0.00945     3.78556
      C    9    0.25201      0.99950     1.73463    0.01387     2.74799
      C   10   -0.07603      0.99937     2.06792    0.00874     3.07603
      N   11   -0.32576      0.99968     2.81542    0.01066     3.82576
      C   12   -0.09250      0.99960     2.08241    0.01049     3.09250
      C   13   -0.01118      0.99957     1.99945    0.01216     3.01118
      O   14   -0.31238      0.99987     3.30286    0.00964     4.31238
      C   15    0.06776      0.99955     1.91842    0.01426     2.93224
      C   16   -0.20064      0.99962     2.19232    0.00870     3.20064
      C   17   -0.19409      0.99965     2.18684    0.00761     3.19409
      C   18   -0.19439      0.99964     2.18635    0.00840     3.19439
      C   19   -0.20500      0.99961     2.19710    0.00829     3.20500
      C   20   -0.30150      0.99962     2.29628    0.00560     3.30150
      H   21    0.10156      0.00000     0.39768    0.00076     0.39844
      H   22    0.10173      0.00000     0.39705    0.00123     0.39827
      H   23    0.11378      0.00000     0.38493    0.00129     0.38622
      H   24    0.07545      0.00000     0.42338    0.00117     0.42455
      H   25    0.19102      0.00000     0.30481    0.00417     0.30898
      H   26    0.08795      0.00000     0.41071    0.00133     0.41205
      H   27    0.10182      0.00000     0.39685    0.00133     0.39818
      H   28    0.08194      0.00000     0.41672    0.00134     0.41806
      H   29    0.08234      0.00000     0.41581    0.00186     0.41766
      H   30    0.08571      0.00000     0.41290    0.00139     0.41429
      H   31    0.10035      0.00000     0.39875    0.00090     0.39965
      H   32    0.10712      0.00000     0.39171    0.00117     0.39288
      H   33    0.09815      0.00000     0.40107    0.00078     0.40185
      H   34    0.09556      0.00000     0.40335    0.00109     0.40444
      H   35    0.09854      0.00000     0.40008    0.00139     0.40146
      H   36    0.09926      0.00000     0.39979    0.00095     0.40074
      H   37    0.10321      0.00000     0.39564    0.00115     0.39679
      H   38    0.09954      0.00000     0.39885    0.00161     0.40046
      H   39    0.10419      0.00000     0.39399    0.00182     0.39581
      H   40    0.10632      0.00000     0.39280    0.00088     0.39368
      H   41    0.10374      0.00000     0.39507    0.00119     0.39626
 =======================================================================
   * Total *    0.00000     23.99160    53.75444    0.25396    78.00000

 Normal termination of Gaussian 16 at Sun Dec 13 22:49:52 2020.
