 Gaussian 16, Revision A.03,

 -----------------------------------------------------------
 # opt freq B3LYP/6-31G(d) empiricaldispersion=gd3bj scf=xqc
 -----------------------------------------------------------

 -------------------------------
 CID_60912898_JID_10388_neutraal
 -------------------------------
 Symbolic Z-matrix:
 Charge =  0 Multiplicity = 1

 SCF Done:  E(RB3LYP) =  -1168.81125227     A.U. after   15 cycles
 SCF Done:  E(RB3LYP) =  -1168.81320102     A.U. after   13 cycles
 SCF Done:  E(RB3LYP) =  -1168.81124006     A.U. after   13 cycles
 SCF Done:  E(RB3LYP) =  -1168.81705829     A.U. after   13 cycles
 SCF Done:  E(RB3LYP) =  -1168.81650532     A.U. after   13 cycles
 SCF Done:  E(RB3LYP) =  -1168.81840461     A.U. after   12 cycles
 SCF Done:  E(RB3LYP) =  -1168.81859871     A.U. after   12 cycles
 SCF Done:  E(RB3LYP) =  -1168.81869832     A.U. after   12 cycles
 SCF Done:  E(RB3LYP) =  -1168.81878833     A.U. after   12 cycles
 SCF Done:  E(RB3LYP) =  -1168.81847498     A.U. after   13 cycles
 SCF Done:  E(RB3LYP) =  -1168.81925596     A.U. after   11 cycles
 SCF Done:  E(RB3LYP) =  -1168.81930759     A.U. after   11 cycles
 SCF Done:  E(RB3LYP) =  -1168.81931024     A.U. after   10 cycles
 SCF Done:  E(RB3LYP) =  -1168.81931275     A.U. after   10 cycles
 SCF Done:  E(RB3LYP) =  -1168.81931312     A.U. after    8 cycles
 Optimization completed.
    -- Stationary point found.
 Normal termination of Gaussian 16 at Sat Dec 12 16:20:52 2020.

 --------------------------------------------------------------------
 #N Geom=AllCheck Guess=TCheck SCRF=Check GenChk RB3LYP/6-31G(d) Freq
 --------------------------------------------------------------------

 Structure from the checkpoint file:  "JID_10388.chk"
 -------------------------------
 CID_60912898_JID_10388_neutraal
 -------------------------------
 Charge =  0 Multiplicity = 1

 SCF Done:  E(RB3LYP) =  -1168.81931312     A.U. after    1 cycles

  Exact polarizability: 199.275 -11.334 204.215  26.102  -5.715 168.122
 Approx polarizability: 256.391 -16.645 336.704  59.006  -3.513 308.256

                      1                      2                      3
                      A                      A                      A
 Frequencies --     20.1617                21.6411                30.5583
 Red. masses --      4.9702                 4.0165                 2.7034
 Frc consts  --      0.0012                 0.0011                 0.0015
 IR Inten    --      0.4573                 0.5441                 0.4417

                      4                      5                      6
                      A                      A                      A
 Frequencies --     51.7685                58.4748                75.3222
 Red. masses --      6.1122                 3.5169                 4.7000
 Frc consts  --      0.0097                 0.0071                 0.0157
 IR Inten    --      0.3868                 0.6400                 0.1858

                      7                      8                      9
                      A                      A                      A
 Frequencies --     87.3165               100.6590               127.6320
 Red. masses --      3.6358                 4.2994                 4.4728
 Frc consts  --      0.0163                 0.0257                 0.0429
 IR Inten    --      0.8401                 0.3564                 0.7579

                     10                     11                     12
                      A                      A                      A
 Frequencies --    171.8385               180.6229               235.8700
 Red. masses --      4.8687                 3.5072                 3.7884
 Frc consts  --      0.0847                 0.0674                 0.1242
 IR Inten    --      0.3332                 0.1119                 1.2461

                     13                     14                     15
                      A                      A                      A
 Frequencies --    265.8036               295.4950               300.8588
 Red. masses --      1.9443                 3.1107                 3.5591
 Frc consts  --      0.0809                 0.1600                 0.1898
 IR Inten    --      0.4119                 0.3789                 2.4703

                     16                     17                     18
                      A                      A                      A
 Frequencies --    319.0953               367.6423               405.3106
 Red. masses --      2.7717                 2.1756                 2.8026
 Frc consts  --      0.1663                 0.1733                 0.2713
 IR Inten    --      0.2871                 0.6001                 4.1715

                     19                     20                     21
                      A                      A                      A
 Frequencies --    414.7910               424.4376               474.5685
 Red. masses --      3.7259                 3.1450                 2.7748
 Frc consts  --      0.3777                 0.3338                 0.3682
 IR Inten    --      3.2735                 0.3590                 1.3496

                     22                     23                     24
                      A                      A                      A
 Frequencies --    500.7060               528.1119               562.9266
 Red. masses --      4.0634                 3.7019                 1.9334
 Frc consts  --      0.6002                 0.6083                 0.3610
 IR Inten    --      0.2797                 4.4869                 2.3577

                     25                     26                     27
                      A                      A                      A
 Frequencies --    592.1799               595.2193               607.7126
 Red. masses --      3.4301                 3.6607                 3.4985
 Frc consts  --      0.7087                 0.7641                 0.7613
 IR Inten    --      1.0999                 1.2511                 3.4091

                     28                     29                     30
                      A                      A                      A
 Frequencies --    642.6866               648.0783               691.8825
 Red. masses --      4.7800                 3.2581                 1.7415
 Frc consts  --      1.1632                 0.8063                 0.4912
 IR Inten    --      5.8137                 0.2843                64.6335

                     31                     32                     33
                      A                      A                      A
 Frequencies --    703.5515               734.2977               747.2695
 Red. masses --      1.2725                 2.2648                 7.0935
 Frc consts  --      0.3711                 0.7195                 2.3338
 IR Inten    --     75.8695                26.1564                 0.4333

                     34                     35                     36
                      A                      A                      A
 Frequencies --    791.6539               804.7169               810.9146
 Red. masses --      4.0751                 1.4553                 1.8433
 Frc consts  --      1.5047                 0.5552                 0.7142
 IR Inten    --      3.3813                 3.7798                41.8311

                     37                     38                     39
                      A                      A                      A
 Frequencies --    820.2428               837.5592               863.5269
 Red. masses --      3.0676                 1.4000                 3.3251
 Frc consts  --      1.2160                 0.5787                 1.4609
 IR Inten    --     22.7085                 7.1184                 5.9779

                     40                     41                     42
                      A                      A                      A
 Frequencies --    867.9365               869.9044               882.7926
 Red. masses --      2.2548                 2.0373                 2.0941
 Frc consts  --      1.0008                 0.9083                 0.9616
 IR Inten    --      3.0921                 7.7706                 1.2299

                     43                     44                     45
                      A                      A                      A
 Frequencies --    906.2126               918.6484               937.3567
 Red. masses --      1.3227                 2.3967                 1.9696
 Frc consts  --      0.6400                 1.1917                 1.0196
 IR Inten    --      1.0777                 1.8274                 0.9345

                     46                     47                     48
                      A                      A                      A
 Frequencies --    949.5879               951.0071               963.5002
 Red. masses --      1.4313                 2.0076                 1.8235
 Frc consts  --      0.7604                 1.0698                 0.9974
 IR Inten    --      4.0775                10.1078                 1.5669

                     49                     50                     51
                      A                      A                      A
 Frequencies --    973.2756              1000.5186              1013.8711
 Red. masses --      1.4575                 1.3466                 2.1877
 Frc consts  --      0.8134                 0.7942                 1.3250
 IR Inten    --      3.6449                 2.8893                 5.8307

                     52                     53                     54
                      A                      A                      A
 Frequencies --   1036.1949              1042.6448              1047.2593
 Red. masses --      1.7686                 1.6740                 3.6895
 Frc consts  --      1.1188                 1.0722                 2.3841
 IR Inten    --      6.5826                 6.2864                 9.8206

                     55                     56                     57
                      A                      A                      A
 Frequencies --   1061.3144              1073.4653              1077.4972
 Red. masses --      1.7380                 1.6768                 2.5134
 Frc consts  --      1.1534                 1.1384                 1.7193
 IR Inten    --      2.1198                 5.9531                 0.7199

                     58                     59                     60
                      A                      A                      A
 Frequencies --   1097.5012              1105.8201              1121.2934
 Red. masses --      1.9885                 1.7645                 2.8641
 Frc consts  --      1.4112                 1.2713                 2.1216
 IR Inten    --      4.2155                 1.3951                 2.2238

                     61                     62                     63
                      A                      A                      A
 Frequencies --   1133.9372              1147.0288              1160.3852
 Red. masses --      1.6356                 2.1021                 1.6589
 Frc consts  --      1.2391                 1.6295                 1.3160
 IR Inten    --      8.8910                41.1492                34.3281

                     64                     65                     66
                      A                      A                      A
 Frequencies --   1197.6360              1203.7158              1225.4119
 Red. masses --      1.6413                 1.6957                 1.8232
 Frc consts  --      1.3870                 1.4476                 1.6130
 IR Inten    --      6.8616                 7.2431                10.4379

                     67                     68                     69
                      A                      A                      A
 Frequencies --   1239.6547              1254.1337              1255.7808
 Red. masses --      1.7093                 1.4406                 1.4311
 Frc consts  --      1.5476                 1.3350                 1.3297
 IR Inten    --      4.1191                 0.3133                 2.7080

                     70                     71                     72
                      A                      A                      A
 Frequencies --   1259.7970              1263.4467              1276.1654
 Red. masses --      1.4419                 1.3228                 1.3462
 Frc consts  --      1.3483                 1.2441                 1.2918
 IR Inten    --      7.6643                 4.5412                17.8904

                     73                     74                     75
                      A                      A                      A
 Frequencies --   1310.4335              1316.6735              1318.2395
 Red. masses --      1.7439                 2.8534                 1.2768
 Frc consts  --      1.7645                 2.9145                 1.3072
 IR Inten    --      3.0700                 0.2031                 0.9026

                     76                     77                     78
                      A                      A                      A
 Frequencies --   1342.0412              1360.8226              1363.2975
 Red. masses --      1.3037                 1.3879                 1.2714
 Frc consts  --      1.3834                 1.5143                 1.3923
 IR Inten    --      0.5033                 2.3194                 2.6399

                     79                     80                     81
                      A                      A                      A
 Frequencies --   1366.0670              1370.6321              1384.0412
 Red. masses --      1.4795                 1.4434                 1.3396
 Frc consts  --      1.6267                 1.5977                 1.5119
 IR Inten    --      0.7810                 1.7651                 0.8581

                     82                     83                     84
                      A                      A                      A
 Frequencies --   1394.7049              1400.2003              1413.7063
 Red. masses --      1.4566                 1.4504                 1.3237
 Frc consts  --      1.6694                 1.6755                 1.5587
 IR Inten    --      0.4400                 3.6205                 8.9534

                     85                     86                     87
                      A                      A                      A
 Frequencies --   1417.7241              1473.8168              1492.4372
 Red. masses --      1.3770                 2.2045                 5.9833
 Frc consts  --      1.6306                 2.8213                 7.8520
 IR Inten    --     14.0141                16.9061                 6.2113

                     88                     89                     90
                      A                      A                      A
 Frequencies --   1507.4293              1515.1670              1518.0331
 Red. masses --      1.0931                 1.1290                 1.0916
 Frc consts  --      1.4634                 1.5271                 1.4820
 IR Inten    --      7.2749                 3.7768                 3.0222

                     91                     92                     93
                      A                      A                      A
 Frequencies --   1521.9604              1524.9586              1526.2798
 Red. masses --      1.0886                 1.0883                 1.3165
 Frc consts  --      1.4857                 1.4911                 1.8069
 IR Inten    --      3.3312                 3.6890                38.8006

                     94                     95                     96
                      A                      A                      A
 Frequencies --   1529.4710              1544.7165              1595.0478
 Red. masses --      1.9717                 1.1095                 4.9243
 Frc consts  --      2.7175                 1.5599                 7.3815
 IR Inten    --      8.1231                 1.2951                 1.1383

                     97                     98                     99
                      A                      A                      A
 Frequencies --   1632.5194              1652.9553              3029.8634
 Red. masses --      5.0686                 5.6071                 1.0811
 Frc consts  --      7.9589                 9.0263                 5.8473
 IR Inten    --     15.7263                 3.4787                 8.2899

                    100                    101                    102
                      A                      A                      A
 Frequencies --   3033.0412              3033.6114              3037.4052
 Red. masses --      1.0702                 1.0713                 1.0706
 Frc consts  --      5.8006                 5.8085                 5.8195
 IR Inten    --      9.6133                14.7227                29.5486

                    103                    104                    105
                      A                      A                      A
 Frequencies --   3043.7210              3044.8163              3049.2493
 Red. masses --      1.0654                 1.0623                 1.0803
 Frc consts  --      5.8154                 5.8028                 5.9180
 IR Inten    --     52.4785                23.4816                47.3483

                    106                    107                    108
                      A                      A                      A
 Frequencies --   3070.2289              3080.7719              3096.1078
 Red. masses --      1.0686                 1.1038                 1.0933
 Frc consts  --      5.9347                 6.1723                 6.1748
 IR Inten    --     29.8127                29.8605                48.3099

                    109                    110                    111
                      A                      A                      A
 Frequencies --   3099.4231              3113.0082              3113.6110
 Red. masses --      1.0988                 1.0944                 1.0957
 Frc consts  --      6.2190                 6.2488                 6.2587
 IR Inten    --     53.9269                25.1671                16.8821

                    112                    113                    114
                      A                      A                      A
 Frequencies --   3118.1629              3152.8624              3170.9677
 Red. masses --      1.1020                 1.0891                 1.0890
 Frc consts  --      6.3126                 6.3786                 6.4515
 IR Inten    --     48.3203                31.2566                22.8911

                    115                    116                    117
                      A                      A                      A
 Frequencies --   3202.3430              3209.4002              3220.6207
 Red. masses --      1.0913                 1.0891                 1.0946
 Frc consts  --      6.5934                 6.6096                 6.6895
 IR Inten    --     17.8958                 7.3178                 6.3522

                    118                    119                    120
                      A                      A                      A
 Frequencies --   3225.6665              3271.6837              3510.6539
 Red. masses --      1.0945                 1.0969                 1.0735
 Frc consts  --      6.7096                 6.9178                 7.7954
 IR Inten    --      5.7532                 0.8857                 0.6563

 - Thermochemistry -
 -------------------
 Temperature   298.150 Kelvin.  Pressure   1.00000 Atm.
 Atom     1 has atomic number  6 and mass  12.00000

 Molecular mass:   286.15037 amu.
 Principal axes and moments of inertia in atomic units:
                           1         2         3
     Eigenvalues --  3573.789508630.44059**********
           X            0.99983  -0.01769  -0.00446
           Y            0.01755   0.99941  -0.02942
           Z            0.00498   0.02934   0.99956
 This molecule is an asymmetric top.
 Rotational symmetry number  1.
 Warning -- assumption of classical behavior for rotation
           may cause significant error
 Rotational temperatures (Kelvin)      0.02424     0.01004     0.00829
 Rotational constants (GHZ):           0.50499     0.20911     0.17284
 Zero-point vibrational energy     951918.8 (Joules/Mol)
                                  227.51405 (Kcal/Mol)
 Warning -- explicit consideration of  27 degrees of freedom as
           vibrations may cause significant error
 Vibrational temperatures:     29.01    31.14    43.97    74.48    84.13
          (Kelvin)            108.37   125.63   144.83   183.63   247.24
                              259.88   339.36   382.43   425.15   432.87
                              459.11   528.96   583.15   596.79   610.67
                              682.80   720.40   759.84   809.93   852.01
                              856.39   874.36   924.68   932.44   995.46
                             1012.25  1056.49  1075.15  1139.01  1157.81
                             1166.73  1180.15  1205.06  1242.42  1248.77
                             1251.60  1270.14  1303.84  1321.73  1348.65
                             1366.25  1368.29  1386.26  1400.33  1439.52
                             1458.73  1490.85  1500.13  1506.77  1526.99
                             1544.48  1550.28  1579.06  1591.03  1613.29
                             1631.48  1650.32  1669.54  1723.13  1731.88
                             1763.09  1783.59  1804.42  1806.79  1812.57
                             1817.82  1836.12  1885.42  1894.40  1896.65
                             1930.90  1957.92  1961.48  1965.47  1972.03
                             1991.33  2006.67  2014.58  2034.01  2039.79
                             2120.49  2147.28  2168.85  2179.99  2184.11
                             2189.76  2194.08  2195.98  2200.57  2222.50
                             2294.92  2348.83  2378.23  4359.30  4363.87
                             4364.69  4370.15  4379.24  4380.81  4387.19
                             4417.37  4432.54  4454.61  4459.38  4478.92
                             4479.79  4486.34  4536.27  4562.32  4607.46
                             4617.61  4633.75  4641.01  4707.22  5051.05

 Zero-point correction=                           0.362567 (Hartree/Particle)
 Thermal correction to Energy=                    0.380964
 Thermal correction to Enthalpy=                  0.381908
 Thermal correction to Gibbs Free Energy=         0.312856
 Sum of electronic and zero-point Energies=          -1168.456746
 Sum of electronic and thermal Energies=             -1168.438349
 Sum of electronic and thermal Enthalpies=           -1168.437405
 Sum of electronic and thermal Free Energies=        -1168.506457

                     E (Thermal)             CV                S
                      KCal/Mol        Cal/Mol-Kelvin    Cal/Mol-Kelvin
 Total                  239.059             71.440            145.332
 Electronic               0.000              0.000              0.000
 Translational            0.889              2.981             42.852
 Rotational               0.889              2.981             34.131
 Vibrational            237.281             65.478             68.349
 Vibration     1          0.593              1.986              6.618
 Vibration     2          0.593              1.985              6.478
 Vibration     3          0.594              1.984              5.793
 Vibration     4          0.596              1.977              4.749
 Vibration     5          0.596              1.974              4.508
 Vibration     6          0.599              1.965              4.009
 Vibration     7          0.601              1.958              3.719
 Vibration     8          0.604              1.949              3.442
 Vibration     9          0.611              1.926              2.981
 Vibration    10          0.626              1.877              2.415
 Vibration    11          0.630              1.866              2.322
 Vibration    12          0.655              1.786              1.834
 Vibration    13          0.672              1.736              1.623
 Vibration    14          0.690              1.682              1.442
 Vibration    15          0.693              1.672              1.412
 Vibration    16          0.705              1.637              1.315
 Vibration    17          0.740              1.539              1.090
 Vibration    18          0.770              1.459              0.943
 Vibration    19          0.778              1.438              0.910
 Vibration    20          0.786              1.417              0.877
 Vibration    21          0.831              1.306              0.725
 Vibration    22          0.856              1.248              0.656
 Vibration    23          0.883              1.188              0.591
 Vibration    24          0.919              1.111              0.518
 Vibration    25          0.950              1.048              0.463
 Vibration    26          0.953              1.042              0.458
 Vibration    27          0.967              1.015              0.437

                           ! Non-Optimized Parameters !
 Normal termination of Gaussian 16 at Sat Dec 12 16:48:03 2020.

 ----------------------------------------------------------------------
 # B3LYP/6-311++G(d,p) empiricaldispersion=gd3bj scf=xqc pop=npa geom=c
 heck
 ----------------------------------------------------------------------

 ---------------------------------------
 CID_60912898_JID_10388_Energie_neutraal
 ---------------------------------------
 Structure from the checkpoint file:  "JID_10388.chk"
 Charge =  0 Multiplicity = 1

 SCF Done:  E(RB3LYP) =  -1169.04899947     A.U. after   16 cycles
 Normal termination of Gaussian 16 at Sat Dec 12 17:01:37 2020.

 ----------------------------------------------------------------------
 # B3LYP/6-311++G(d,p) empiricaldispersion=gd3bj scf=xqc pop=npa geom=c
 heck
 ----------------------------------------------------------------------

 -------------------------------------
 CID_60912898_JID_10388_Energie_kation
 -------------------------------------
 Structure from the checkpoint file:  "JID_10388.chk"
 Charge =  1 Multiplicity = 2

 SCF Done:  E(UB3LYP) =  -1168.76369805     A.U. after   29 cycles
 Normal termination of Gaussian 16 at Sat Dec 12 17:36:11 2020.
 Gaussian 16:  ES64L-G16RevA.03 25-Dec-2016

 ----------------------------------------------------------------------
 # B3LYP/6-311++G(d,p) empiricaldispersion=gd3bj scf=xqc pop=npa geom=c
 heck
 ----------------------------------------------------------------------

 ------------------------------------
 CID_60912898_JID_10388_Energie_anion
 ------------------------------------
 Structure from the checkpoint file:  "JID_10388.chk"
 Charge = -1 Multiplicity = 2

                         Standard orientation:
 ---------------------------------------------------------------------
 Center     Atomic      Atomic             Coordinates (Angstroms)
 Number     Number       Type             X           Y           Z
 ---------------------------------------------------------------------
      1          6           0        4.838645   -0.102538   -0.759572
      2          6           0        4.668632   -1.461781   -0.065504
      3          6           0        3.242165   -1.898438   -0.458275
      4          6           0        2.443471   -0.582678   -0.696921
      5          6           0        3.474129    0.563843   -0.534607
      6          6           0        1.229152   -0.440839    0.245345
      7          6           0        0.586055    0.920990    0.061921
      8          6           0        0.037615    1.445830   -1.080325
      9          6           0       -0.469616    2.771147   -0.914980
     10          6           0       -0.299242    3.250320    0.354967
     11         16           0        0.493226    2.078762    1.363819
     12          7           0        0.321045   -1.575265    0.049588
     13          6           0       -0.454524   -2.033208    1.193922
     14          6           0       -1.605652   -1.132439    1.703408
     15          6           0       -2.631969   -0.823688    0.639747
     16          6           0       -3.376001   -1.844090    0.030255
     17          7           0       -4.280527   -1.654208   -0.936015
     18          6           0       -4.484584   -0.394260   -1.342966
     19          6           0       -3.810205    0.701438   -0.806898
     20          6           0       -2.870926    0.480060    0.198061
     21          1           0        5.013450   -0.251298   -1.833909
     22          1           0        5.675042    0.487296   -0.368873
     23          1           0        5.432078   -2.194959   -0.346697
     24          1           0        4.736931   -1.323977    1.022057
     25          1           0        2.761090   -2.526580    0.296677
     26          1           0        3.267689   -2.490914   -1.379105
     27          1           0        2.054298   -0.574616   -1.723181
     28          1           0        3.429082    0.958131    0.490157
     29          1           0        3.277158    1.405736   -1.204304
     30          1           0        1.604550   -0.515352    1.274490
     31          1           0       -0.011347    0.900062   -2.016706
     32          1           0       -0.942113    3.339386   -1.708782
     33          1           0       -0.580378    4.215110    0.754254
     34          1           0       -0.289609   -1.406111   -0.746516
     35          1           0       -0.870422   -3.012670    0.926310
     36          1           0        0.245405   -2.210821    2.019808
     37          1           0       -2.084599   -1.652187    2.545103
     38          1           0       -1.201479   -0.196362    2.099875
     39          1           0       -3.235203   -2.877878    0.346345
     40          1           0       -5.222758   -0.259696   -2.131766
     41          1           0       -4.011899    1.704879   -1.169874
     42          1           0       -2.325077    1.310906    0.633048
 ---------------------------------------------------------------------

 SCF Done:  E(UB3LYP) =  -1169.03923444     A.U. after   33 cycles
 SCF Done:  E(UB3LYP) =  -1169.03923444     a.u. after    1 cycles

 The electronic state is 2-A.
 Alpha  occ. eigenvalues --  -88.77301 -14.20299 -14.20066 -10.11458 -10.10225
 Alpha  occ. eigenvalues --  -10.10189 -10.09701 -10.09520 -10.09362 -10.08003
 Alpha  occ. eigenvalues --  -10.07722 -10.07648 -10.07586 -10.07566 -10.07459
 Alpha  occ. eigenvalues --  -10.07165 -10.07053 -10.07001 -10.06552 -10.06365
 Alpha  occ. eigenvalues --   -7.85933  -5.82210  -5.81850  -5.81551  -0.83841
 Alpha  occ. eigenvalues --   -0.81960  -0.77664  -0.74212  -0.71332  -0.67906
 Alpha  occ. eigenvalues --   -0.66147  -0.63415  -0.62145  -0.61245  -0.61024
 Alpha  occ. eigenvalues --   -0.55767  -0.53304  -0.52514  -0.49200  -0.47879
 Alpha  occ. eigenvalues --   -0.47057  -0.45706  -0.43923  -0.41749  -0.41484
 Alpha  occ. eigenvalues --   -0.39648  -0.38926  -0.38090  -0.36665  -0.35593
 Alpha  occ. eigenvalues --   -0.34352  -0.34019  -0.32373  -0.31895  -0.31314
 Alpha  occ. eigenvalues --   -0.30746  -0.30154  -0.29660  -0.29146  -0.28648
 Alpha  occ. eigenvalues --   -0.27614  -0.26576  -0.26522  -0.24864  -0.24560
 Alpha  occ. eigenvalues --   -0.24467  -0.24238  -0.23474  -0.23359  -0.22846
 Alpha  occ. eigenvalues --   -0.21884  -0.18542  -0.15873  -0.15704  -0.15343
 Alpha  occ. eigenvalues --   -0.14306  -0.12225   0.04215
 Alpha virt. eigenvalues --    0.06030   0.06333   0.06785   0.06880   0.07305
 Alpha virt. eigenvalues --    0.07859   0.08127   0.08314   0.08748   0.09196
 Alpha virt. eigenvalues --    0.09370   0.09950   0.10442   0.10749   0.11001

  Beta  occ. eigenvalues --  -88.77287 -14.20202 -14.20051 -10.11459 -10.10209
  Beta  occ. eigenvalues --  -10.10206 -10.09613 -10.09406 -10.09280 -10.07934
  Beta  occ. eigenvalues --  -10.07743 -10.07639 -10.07571 -10.07500 -10.07449
  Beta  occ. eigenvalues --  -10.07170 -10.07040 -10.06987 -10.06547 -10.06353
  Beta  occ. eigenvalues --   -7.85919  -5.82205  -5.81844  -5.81501  -0.83683
  Beta  occ. eigenvalues --   -0.81913  -0.77572  -0.74187  -0.71186  -0.67816
  Beta  occ. eigenvalues --   -0.66052  -0.63351  -0.62050  -0.61185  -0.60969
  Beta  occ. eigenvalues --   -0.55714  -0.53258  -0.52357  -0.49129  -0.47830
  Beta  occ. eigenvalues --   -0.46990  -0.45592  -0.43852  -0.41681  -0.41421
  Beta  occ. eigenvalues --   -0.39597  -0.38889  -0.38037  -0.36597  -0.35547
  Beta  occ. eigenvalues --   -0.34308  -0.33915  -0.32333  -0.31867  -0.31239
  Beta  occ. eigenvalues --   -0.30676  -0.30059  -0.29573  -0.29104  -0.28388
  Beta  occ. eigenvalues --   -0.27439  -0.26537  -0.26454  -0.24815  -0.24519
  Beta  occ. eigenvalues --   -0.24386  -0.24201  -0.23431  -0.23322  -0.22818
  Beta  occ. eigenvalues --   -0.21850  -0.18084  -0.15602  -0.15513  -0.15161
  Beta  occ. eigenvalues --   -0.14026  -0.11990
  Beta virt. eigenvalues --    0.06154   0.06757   0.06823   0.07206   0.07524
  Beta virt. eigenvalues --    0.07628   0.08074   0.08487   0.08567   0.08959
  Beta virt. eigenvalues --    0.09317   0.09541   0.10034   0.10590   0.10834

 Mulliken charges and spin densities:
               1          2
     1  C   -0.061162  -0.406129
     2  C   -0.032291  -0.445138
     3  C   -0.145581   0.065470
     4  C    0.716474   0.150672
     5  C   -0.450342  -0.094367
     6  C   -1.326252  -0.128522
     7  C    0.287111   0.014344
     8  C   -0.145806   0.001887
     9  C    0.427808  -0.774782
    10  C   -0.166704  -0.288518
    11  S   -0.056926  -0.073445
    12  N    0.424608  -0.063933
    13  C   -0.110254  -0.230797
    14  C    0.175242  -0.532552
    15  C    0.043472   0.170403
    16  C   -0.449207   0.126666
    17  N   -0.046647   0.041134
    18  C   -0.198858  -0.232547
    19  C   -0.608310  -0.021458
    20  C    0.712103   0.073262
    21  H    0.016461   0.115142
    22  H   -0.084190   0.237033
    23  H   -0.029658   0.183786
    24  H   -0.020047   0.138743
    25  H    0.027504   0.118574
    26  H   -0.034979   0.192107
    27  H   -0.011190   0.171783
    28  H    0.011634   0.122378
    29  H    0.107436   0.080737
    30  H    0.171535   0.047839
    31  H    0.023648   0.137085
    32  H   -0.315760   0.490853
    33  H   -0.380113   0.607913
    34  H    0.230440   0.017261
    35  H    0.118774   0.059307
    36  H   -0.167001   0.279569
    37  H   -0.001070   0.205736
    38  H    0.104718   0.032808
    39  H    0.095752   0.058861
    40  H    0.102874   0.037128
    41  H   -0.089446   0.267672
    42  H    0.134199   0.046035
 Sum of Mulliken charges =  -1.00000   1.00000

 Dipole moment (field-independent basis, Debye):
    X=              0.5869    Y=             -1.0326    Z=              1.4531  Tot=              1.8768
 Quadrupole moment (field-independent basis, Debye-Ang):
   XX=           -212.1428   YY=           -181.3577   ZZ=           -159.1528
   XY=              0.2109   XZ=             -1.7724   YZ=             -0.4481

 Summary of Natural Population Analysis:

                                       Natural Population
                Natural  -----------------------------------------------
    Atom  No    Charge         Core      Valence    Rydberg      Total
 -----------------------------------------------------------------------
      C    1   -0.18836      0.99964     2.18206    0.00666     3.18836
      C    2   -0.19136      0.99964     2.18496    0.00676     3.19136
      C    3   -0.18841      0.99962     2.18148    0.00730     3.18841
      C    4   -0.10357      0.99958     2.09178    0.01221     3.10357
      C    5   -0.19425      0.99962     2.18558    0.00905     3.19425
      C    6   -0.02145      0.99950     2.00737    0.01458     3.02145
      C    7   -0.08416      0.99947     2.06901    0.01568     3.08416
      C    8   -0.13574      0.99944     2.12512    0.01117     3.13574
      C    9   -0.12535      0.99953     2.11426    0.01156     3.12535
      C   10   -0.19139      0.99953     2.17962    0.01224     3.19139
      S   11    0.20601      4.99938     2.77522    0.01938     7.79399
      N   12   -0.33894      0.99974     2.82816    0.01104     3.83894
      C   13   -0.07898      0.99962     2.06729    0.01207     3.07898
      C   14   -0.21143      0.99960     2.20360    0.00823     3.21143
      C   15   -0.02899      0.99950     2.01991    0.00958     3.02899
      C   16    0.01906      0.99953     1.96791    0.01349     2.98094
      N   17   -0.22710      0.99972     2.71509    0.01230     3.72710
      C   18    0.03172      0.99959     1.95473    0.01396     2.96828
      C   19   -0.12633      0.99956     2.11675    0.01002     3.12633
      C   20   -0.06641      0.99951     2.05675    0.01014     3.06641
      H   21    0.09209      0.00000     0.40659    0.00133     0.40791
      H   22    0.09719      0.00000     0.40175    0.00106     0.40281
      H   23    0.09689      0.00000     0.40202    0.00109     0.40311
      H   24    0.09187      0.00000     0.40665    0.00148     0.40813
      H   25    0.10441      0.00000     0.39436    0.00123     0.39559
      H   26    0.09708      0.00000     0.40173    0.00119     0.40292
      H   27    0.09688      0.00000     0.40151    0.00161     0.40312
      H   28    0.09555      0.00000     0.40308    0.00137     0.40445
      H   29    0.10567      0.00000     0.39343    0.00090     0.39433
      H   30    0.09584      0.00000     0.40221    0.00195     0.40416
      H   31    0.10710      0.00000     0.39159    0.00131     0.39290
      H   32    0.10677      0.00000     0.39191    0.00132     0.39323
      H   33    0.10970      0.00000     0.38913    0.00117     0.39030
      H   34    0.17738      0.00000     0.31996    0.00266     0.32262
      H   35    0.09133      0.00000     0.40771    0.00096     0.40867
      H   36    0.09198      0.00000     0.40691    0.00111     0.40802
      H   37    0.10220      0.00000     0.39668    0.00113     0.39780
      H   38    0.10415      0.00000     0.39394    0.00190     0.39585
      H   39    0.08549      0.00000     0.41275    0.00177     0.41451
      H   40    0.08534      0.00000     0.41346    0.00120     0.41466
      H   41    0.10281      0.00000     0.39615    0.00103     0.39719
      H   42    0.10771      0.00000     0.38992    0.00237     0.39229
 =======================================================================
   * Total *    0.00000     23.99133    52.75009    0.25858    77.00000

 Normal termination of Gaussian 16 at Sat Dec 12 18:16:39 2020.
