 Gaussian 16, Revision A.03,

 -----------------------------------------------------------
 # opt freq B3LYP/6-31G(d) empiricaldispersion=gd3bj scf=xqc
 -----------------------------------------------------------

 ------------------------------
 CID_64482062_JID_4347_neutraal
 ------------------------------
 Symbolic Z-matrix:
 Charge =  0 Multiplicity = 1

 SCF Done:  E(RB3LYP) =  -954.992248797     A.U. after   15 cycles
 SCF Done:  E(RB3LYP) =  -954.997772736     A.U. after   12 cycles
 SCF Done:  E(RB3LYP) =  -955.000033720     A.U. after   13 cycles
 SCF Done:  E(RB3LYP) =  -955.002103861     A.U. after   15 cycles
 SCF Done:  E(RB3LYP) =  -955.002671049     A.U. after   12 cycles
 SCF Done:  E(RB3LYP) =  -955.002997658     A.U. after   11 cycles
 SCF Done:  E(RB3LYP) =  -955.003175290     A.U. after   12 cycles
 SCF Done:  E(RB3LYP) =  -955.003278433     A.U. after   11 cycles
 SCF Done:  E(RB3LYP) =  -955.003390974     A.U. after   11 cycles
 SCF Done:  E(RB3LYP) =  -955.003482959     A.U. after   11 cycles
 SCF Done:  E(RB3LYP) =  -955.007785429     A.U. after   10 cycles
 SCF Done:  E(RB3LYP) =  -955.007788742     A.U. after    8 cycles
 SCF Done:  E(RB3LYP) =  -955.007789837     A.U. after    8 cycles
 SCF Done:  E(RB3LYP) =  -955.007790335     A.U. after    8 cycles
 SCF Done:  E(RB3LYP) =  -955.007790437     A.U. after    7 cycles
 Optimization completed.
    -- Stationary point found.
 Normal termination of Gaussian 16 at Thu Dec 10 09:44:01 2020.

 --------------------------------------------------------------------
 #N Geom=AllCheck Guess=TCheck SCRF=Check GenChk RB3LYP/6-31G(d) Freq
 --------------------------------------------------------------------

 Structure from the checkpoint file:  "JID_4347.chk"
 ------------------------------
 CID_64482062_JID_4347_neutraal
 ------------------------------
 Charge =  0 Multiplicity = 1

 SCF Done:  E(RB3LYP) =  -955.007790437     A.U. after    1 cycles

  Exact polarizability: 185.242   0.442 140.126   1.643   4.179  99.722
 Approx polarizability: 234.860  -7.774 231.573   1.636  12.609 156.133

                      1                      2                      3
                      A                      A                      A
 Frequencies --     28.2144                35.1559                48.0699
 Red. masses --      4.6119                 3.0911                 4.1359
 Frc consts  --      0.0022                 0.0023                 0.0056
 IR Inten    --      0.3840                 0.7957                 0.3231

                      4                      5                      6
                      A                      A                      A
 Frequencies --     71.5276               126.3272               143.1576
 Red. masses --      3.4988                 1.2634                 2.2720
 Frc consts  --      0.0105                 0.0119                 0.0274
 IR Inten    --      4.8465                 0.3534                 2.7524

                      7                      8                      9
                      A                      A                      A
 Frequencies --    163.9880               191.7172               225.9673
 Red. masses --      3.5054                 2.5157                 3.0198
 Frc consts  --      0.0555                 0.0545                 0.0908
 IR Inten    --      2.0895                 0.1671                 2.0674

                     10                     11                     12
                      A                      A                      A
 Frequencies --    233.8116               240.2944               243.7486
 Red. masses --      1.6972                 1.0636                 1.6518
 Frc consts  --      0.0547                 0.0362                 0.0578
 IR Inten    --      1.2282                 1.8582                 0.8277

                     13                     14                     15
                      A                      A                      A
 Frequencies --    279.6744               292.9125               320.0161
 Red. masses --      1.2230                 1.6794                 1.4360
 Frc consts  --      0.0564                 0.0849                 0.0866
 IR Inten    --     10.4810                12.5053                44.2200

                     16                     17                     18
                      A                      A                      A
 Frequencies --    342.4119               349.3273               354.4417
 Red. masses --      2.3691                 3.3834                 2.7604
 Frc consts  --      0.1637                 0.2433                 0.2043
 IR Inten    --     11.8146                 2.9634                 2.0962

                     19                     20                     21
                      A                      A                      A
 Frequencies --    411.6055               431.4974               453.5022
 Red. masses --      2.6857                 2.8311                 2.7302
 Frc consts  --      0.2681                 0.3106                 0.3308
 IR Inten    --      3.2768                 4.2936                 0.3174

                     22                     23                     24
                      A                      A                      A
 Frequencies --    467.6084               525.0718               557.5593
 Red. masses --      2.5820                 4.0033                 6.6667
 Frc consts  --      0.3326                 0.6503                 1.2211
 IR Inten    --      4.9646                 7.6128                 0.8996

                     25                     26                     27
                      A                      A                      A
 Frequencies --    577.6779               645.2498               692.8171
 Red. masses --      3.2095                 4.4464                 4.1204
 Frc consts  --      0.6310                 1.0907                 1.1653
 IR Inten    --      1.7628                 1.9463                 6.6297

                     28                     29                     30
                      A                      A                      A
 Frequencies --    714.3758               752.1079               780.4261
 Red. masses --      5.3100                 1.2275                 3.4373
 Frc consts  --      1.5966                 0.4091                 1.2335
 IR Inten    --     10.1812                23.2905                 4.7624

                     31                     32                     33
                      A                      A                      A
 Frequencies --    842.7904               860.6781               903.1631
 Red. masses --      1.6188                 3.6962                 1.9922
 Frc consts  --      0.6775                 1.6132                 0.9574
 IR Inten    --     55.7899                 0.5407                13.2257

                     34                     35                     36
                      A                      A                      A
 Frequencies --    917.4841               940.5103               953.8520
 Red. masses --      1.8181                 1.7039                 1.5212
 Frc consts  --      0.9017                 0.8880                 0.8155
 IR Inten    --     65.1641                 3.6164                20.6851

                     37                     38                     39
                      A                      A                      A
 Frequencies --    980.2606               982.8497               991.1530
 Red. masses --      4.2174                 1.3977                 1.6512
 Frc consts  --      2.3877                 0.7955                 0.9557
 IR Inten    --      4.7733                21.5278                23.0742

                     40                     41                     42
                      A                      A                      A
 Frequencies --   1024.6857              1036.9862              1048.0926
 Red. masses --      1.5491                 1.5566                 1.6532
 Frc consts  --      0.9583                 0.9862                 1.0700
 IR Inten    --      8.3716                10.9885                36.0985

                     43                     44                     45
                      A                      A                      A
 Frequencies --   1079.4838              1089.2333              1113.8140
 Red. masses --      1.5076                 1.9214                 1.7242
 Frc consts  --      1.0351                 1.3431                 1.2603
 IR Inten    --      2.8472                10.4206                 6.3967

                     46                     47                     48
                      A                      A                      A
 Frequencies --   1153.7755              1163.0970              1179.4013
 Red. masses --      2.1595                 1.9864                 1.8334
 Frc consts  --      1.6937                 1.5832                 1.5026
 IR Inten    --     19.3986                21.6416                23.6710

                     49                     50                     51
                      A                      A                      A
 Frequencies --   1202.5379              1248.2508              1288.1612
 Red. masses --      2.1639                 2.4518                 2.7634
 Frc consts  --      1.8437                 2.2508                 2.7017
 IR Inten    --     41.0000                29.8407                17.9123

                     52                     53                     54
                      A                      A                      A
 Frequencies --   1306.2741              1339.8195              1345.4701
 Red. masses --      1.5682                 1.4696                 2.6211
 Frc consts  --      1.5766                 1.5543                 2.7957
 IR Inten    --     10.1449                22.1599                 5.3451

                     55                     56                     57
                      A                      A                      A
 Frequencies --   1352.7883              1374.0690              1416.2408
 Red. masses --      1.9324                 1.2970                 1.2944
 Frc consts  --      2.0836                 1.4428                 1.5296
 IR Inten    --     23.6844                17.3081                 6.8493

                     58                     59                     60
                      A                      A                      A
 Frequencies --   1426.5531              1433.1338              1441.3938
 Red. masses --      1.2912                 1.4233                 1.2723
 Frc consts  --      1.5482                 1.7223                 1.5575
 IR Inten    --      3.3747                 8.6255                 0.3983

                     61                     62                     63
                      A                      A                      A
 Frequencies --   1443.6707              1501.6428              1505.9595
 Red. masses --      1.2470                 1.2084                 1.0447
 Frc consts  --      1.5313                 1.6055                 1.3959
 IR Inten    --      8.6809                42.0518                 5.7525

                     64                     65                     66
                      A                      A                      A
 Frequencies --   1512.2360              1513.4094              1517.4050
 Red. masses --      1.0676                 1.1930                 1.0504
 Frc consts  --      1.4384                 1.6099                 1.4250
 IR Inten    --      3.5830                 7.6560                 0.1497

                     67                     68                     69
                      A                      A                      A
 Frequencies --   1518.0272              1526.0733              1528.9523
 Red. masses --      1.0658                 1.0933                 1.0857
 Frc consts  --      1.4470                 1.5002                 1.4954
 IR Inten    --      1.7918                10.2718                23.3201

                     70                     71                     72
                      A                      A                      A
 Frequencies --   1531.9394              1543.2195              1560.9389
 Red. masses --      1.0584                 1.0647                 5.1612
 Frc consts  --      1.4635                 1.4940                 7.4092
 IR Inten    --      2.3098                 4.9629                10.2324

                     73                     74                     75
                      A                      A                      A
 Frequencies --   1599.7429              1693.3861              2993.4975
 Red. masses --      5.4180                 1.0906                 1.0680
 Frc consts  --      8.1694                 1.8427                 5.6387
 IR Inten    --     44.6742                36.9042                56.0192

                     76                     77                     78
                      A                      A                      A
 Frequencies --   3021.9084              3038.2294              3046.6256
 Red. masses --      1.0827                 1.0361                 1.0370
 Frc consts  --      5.8255                 5.6347                 5.6713
 IR Inten    --     11.6383                18.6257                35.0132

                     79                     80                     81
                      A                      A                      A
 Frequencies --   3051.3858              3057.5705              3076.3846
 Red. masses --      1.0365                 1.0365                 1.0931
 Frc consts  --      5.6863                 5.7094                 6.0955
 IR Inten    --     30.6649                20.5452                23.8955

                     82                     83                     84
                      A                      A                      A
 Frequencies --   3100.9849              3106.1512              3110.2854
 Red. masses --      1.1018                 1.1012                 1.1002
 Frc consts  --      6.2422                 6.2600                 6.2710
 IR Inten    --     16.6190                16.8865                50.0813

                     85                     86                     87
                      A                      A                      A
 Frequencies --   3125.5837              3125.7632              3127.8598
 Red. masses --      1.1020                 1.1017                 1.1028
 Frc consts  --      6.3430                 6.3417                 6.3568
 IR Inten    --     14.1052                41.0906                28.7381

                     88                     89                     90
                      A                      A                      A
 Frequencies --   3137.0976              3150.9971              3268.6622
 Red. masses --      1.1018                 1.1017                 1.0944
 Frc consts  --      6.3886                 6.4448                 6.8893
 IR Inten    --     16.8826                15.1513                 2.6434

                     91                     92                     93
                      A                      A                      A
 Frequencies --   3453.7853              3489.7736              3535.9347
 Red. masses --      1.0498                 1.0734                 1.0915
 Frc consts  --      7.3781                 7.7018                 8.0406
 IR Inten    --      2.3652                 2.6944                 0.6936

 - Thermochemistry -
 -------------------
 Temperature   298.150 Kelvin.  Pressure   1.00000 Atm.
 Atom     1 has atomic number  6 and mass  12.00000

 Molecular mass:   213.12997 amu.
 Principal axes and moments of inertia in atomic units:
                           1         2         3
     Eigenvalues --  1277.067546410.598167223.47942
           X            0.99998  -0.00527   0.00429
           Y            0.00529   0.99997  -0.00629
           Z           -0.00426   0.00631   0.99997
 This molecule is an asymmetric top.
 Rotational symmetry number  1.
 Warning -- assumption of classical behavior for rotation
           may cause significant error
 Rotational temperatures (Kelvin)      0.06782     0.01351     0.01199
 Rotational constants (GHZ):           1.41319     0.28152     0.24984
 Zero-point vibrational energy     757543.3 (Joules/Mol)
                                  181.05719 (Kcal/Mol)
 Warning -- explicit consideration of  25 degrees of freedom as
           vibrations may cause significant error
 Vibrational temperatures:     40.59    50.58    69.16   102.91   181.76
          (Kelvin)            205.97   235.94   275.84   325.12   336.40
                              345.73   350.70   402.39   421.44   460.43
                              492.65   502.60   509.96   592.21   620.83
                              652.49   672.78   755.46   802.20   831.15
                              928.37   996.81  1027.83  1082.12  1122.86
                             1212.59  1238.32  1299.45  1320.06  1353.18
                             1372.38  1410.38  1414.10  1426.05  1474.29
                             1491.99  1507.97  1553.14  1567.16  1602.53
                             1660.03  1673.44  1696.90  1730.18  1795.95
                             1853.38  1879.44  1927.70  1935.83  1946.36
                             1976.98  2037.65  2052.49  2061.96  2073.84
                             2077.12  2160.53  2166.74  2175.77  2177.46
                             2183.21  2184.10  2195.68  2199.82  2204.12
                             2220.35  2245.84  2301.67  2436.40  4306.98
                             4347.85  4371.33  4383.41  4390.26  4399.16
                             4426.23  4461.63  4469.06  4475.01  4497.02
                             4497.28  4500.29  4513.58  4533.58  4702.88
                             4969.23  5021.01  5087.42

 Zero-point correction=                           0.288533 (Hartree/Particle)
 Thermal correction to Energy=                    0.304699
 Thermal correction to Enthalpy=                  0.305643
 Thermal correction to Gibbs Free Energy=         0.244331
 Sum of electronic and zero-point Energies=           -954.719257
 Sum of electronic and thermal Energies=              -954.703092
 Sum of electronic and thermal Enthalpies=            -954.702147
 Sum of electronic and thermal Free Energies=         -954.763460

                     E (Thermal)             CV                S
                      KCal/Mol        Cal/Mol-Kelvin    Cal/Mol-Kelvin
 Total                  191.201             60.506            129.043
 Electronic               0.000              0.000              0.000
 Translational            0.889              2.981             41.974
 Rotational               0.889              2.981             32.447
 Vibrational            189.424             54.545             54.622
 Vibration     1          0.593              1.984              5.951
 Vibration     2          0.594              1.982              5.515
 Vibration     3          0.595              1.978              4.895
 Vibration     4          0.598              1.968              4.111
 Vibration     5          0.611              1.927              3.001
 Vibration     6          0.616              1.910              2.761
 Vibration     7          0.623              1.887              2.503
 Vibration     8          0.634              1.851              2.211
 Vibration     9          0.650              1.801              1.911
 Vibration    10          0.654              1.789              1.849
 Vibration    11          0.657              1.779              1.801
 Vibration    12          0.659              1.773              1.775
 Vibration    13          0.680              1.711              1.536
 Vibration    14          0.688              1.687              1.457
 Vibration    15          0.706              1.635              1.310
 Vibration    16          0.722              1.591              1.201
 Vibration    17          0.727              1.577              1.169
 Vibration    18          0.730              1.566              1.146
 Vibration    19          0.776              1.445              0.921
 Vibration    20          0.793              1.402              0.854
 Vibration    21          0.812              1.353              0.785
 Vibration    22          0.825              1.322              0.744
 Vibration    23          0.880              1.194              0.598
 Vibration    24          0.913              1.123              0.529
 Vibration    25          0.934              1.080              0.490

 Optimization completed.
    -- Stationary point found.
 Normal termination of Gaussian 16 at Thu Dec 10 09:53:42 2020.

 ----------------------------------------------------------------------
 # B3LYP/6-311++G(d,p) empiricaldispersion=gd3bj scf=xqc pop=npa geom=c
 heck
 ----------------------------------------------------------------------

 --------------------------------------
 CID_64482062_JID_4347_Energie_neutraal
 --------------------------------------
 Structure from the checkpoint file:  "JID_4347.chk"
 Charge =  0 Multiplicity = 1

 SCF Done:  E(RB3LYP) =  -955.197514354     A.U. after   15 cycles
 Normal termination of Gaussian 16 at Thu Dec 10 09:59:07 2020.

 ----------------------------------------------------------------------
 # B3LYP/6-311++G(d,p) empiricaldispersion=gd3bj scf=xqc pop=npa geom=c
 heck
 ----------------------------------------------------------------------

 ------------------------------------
 CID_64482062_JID_4347_Energie_kation
 ------------------------------------
 Structure from the checkpoint file:  "JID_4347.chk"
 Charge =  1 Multiplicity = 2

 SCF Done:  E(UB3LYP) =  -954.906862956     A.U. after   27 cycles
 Normal termination of Gaussian 16 at Thu Dec 10 10:13:00 2020.
 Gaussian 16:  ES64L-G16RevA.03 25-Dec-2016

 ----------------------------------------------------------------------
 # B3LYP/6-311++G(d,p) empiricaldispersion=gd3bj scf=xqc pop=npa geom=c
 heck
 ----------------------------------------------------------------------

 -----------------------------------
 CID_64482062_JID_4347_Energie_anion
 -----------------------------------
 Structure from the checkpoint file:  "JID_4347.chk"
 Charge = -1 Multiplicity = 2

                         Standard orientation:
 ---------------------------------------------------------------------
 Center     Atomic      Atomic             Coordinates (Angstroms)
 Number     Number       Type             X           Y           Z
 ---------------------------------------------------------------------
      1          6           0        5.070471   -0.165846    0.010582
      2          6           0        3.615275    0.191442   -0.011978
      3          6           0        3.085842    1.445320    0.111304
      4         16           0        1.349932    1.395358    0.038906
      5          6           0        1.464957   -0.350204   -0.161503
      6          7           0        2.677177   -0.817147   -0.164099
      7          6           0        0.210467   -1.167755   -0.351371
      8          6           0        0.374171   -2.577684    0.233806
      9          7           0       -0.917903   -0.398730    0.171303
     10          6           0       -2.246524   -0.858710   -0.227018
     11          6           0       -3.295968    0.249523   -0.001397
     12          6           0       -3.101625    1.375117   -1.031756
     13          6           0       -4.696541   -0.356096   -0.125953
     14          7           0       -3.123261    0.726018    1.388356
     15          1           0        5.286217   -0.863602    0.828066
     16          1           0        5.363306   -0.660924   -0.922599
     17          1           0        5.693539    0.723553    0.140726
     18          1           0        3.616368    2.377109    0.251476
     19          1           0        0.043303   -1.258195   -1.434671
     20          1           0        0.501266   -2.523598    1.321139
     21          1           0       -0.508843   -3.186679    0.015372
     22          1           0        1.258411   -3.065992   -0.183366
     23          1           0       -0.874413   -0.389743    1.189430
     24          1           0       -2.215129   -1.113036   -1.293360
     25          1           0       -2.561493   -1.761958    0.319384
     26          1           0       -3.290516    1.023181   -2.053679
     27          1           0       -3.789820    2.204616   -0.829313
     28          1           0       -2.074756    1.752581   -0.987652
     29          1           0       -4.860611   -1.107503    0.653370
     30          1           0       -5.466237    0.418909   -0.023198
     31          1           0       -4.832160   -0.830340   -1.104266
     32          1           0       -2.306647    1.336873    1.416157
     33          1           0       -3.915942    1.317387    1.637282
 ---------------------------------------------------------------------

 SCF Done:  E(UB3LYP) =  -955.185320642     A.U. after   33 cycles
 SCF Done:  E(UB3LYP) =  -955.185320642     a.u. after    1 cycles

 The electronic state is 2-A.
 Alpha  occ. eigenvalues --  -88.77002 -14.20341 -14.20316 -14.19320 -10.12507
 Alpha  occ. eigenvalues --  -10.11499 -10.10669 -10.10595 -10.08953 -10.08871
 Alpha  occ. eigenvalues --  -10.07724 -10.06322 -10.05988 -10.05258  -7.85588
 Alpha  occ. eigenvalues --   -5.81854  -5.81503  -5.81215  -0.86030  -0.82379
 Alpha  occ. eigenvalues --   -0.78644  -0.69111  -0.68592  -0.66334  -0.64282
 Alpha  occ. eigenvalues --   -0.58858  -0.58790  -0.56436  -0.52393  -0.47841
 Alpha  occ. eigenvalues --   -0.46074  -0.42996  -0.40027  -0.39208  -0.37248
 Alpha  occ. eigenvalues --   -0.36791  -0.34704  -0.33981  -0.33385  -0.32998
 Alpha  occ. eigenvalues --   -0.32494  -0.30420  -0.29914  -0.29328  -0.28891
 Alpha  occ. eigenvalues --   -0.28588  -0.27227  -0.26556  -0.26074  -0.25697
 Alpha  occ. eigenvalues --   -0.25245  -0.24202  -0.22975  -0.17726  -0.17275
 Alpha  occ. eigenvalues --   -0.15417  -0.13821  -0.12977   0.04259
 Alpha virt. eigenvalues --    0.05775   0.06568   0.07565   0.08093   0.08192
 Alpha virt. eigenvalues --    0.08565   0.09562   0.09904   0.09960   0.10388
 Alpha virt. eigenvalues --    0.10849   0.11307   0.12147   0.12222   0.12954

  Beta  occ. eigenvalues --  -88.76987 -14.20310 -14.20307 -14.19295 -10.12402
  Beta  occ. eigenvalues --  -10.11498 -10.10668 -10.10600 -10.08929 -10.08808
  Beta  occ. eigenvalues --  -10.07706 -10.06301 -10.05955 -10.05228  -7.85574
  Beta  occ. eigenvalues --   -5.81844  -5.81497  -5.81173  -0.85932  -0.82357
  Beta  occ. eigenvalues --   -0.78608  -0.69031  -0.68509  -0.66293  -0.64246
  Beta  occ. eigenvalues --   -0.58798  -0.58711  -0.56370  -0.52311  -0.47750
  Beta  occ. eigenvalues --   -0.46012  -0.42912  -0.39979  -0.39138  -0.37208
  Beta  occ. eigenvalues --   -0.36746  -0.34655  -0.33890  -0.33355  -0.32954
  Beta  occ. eigenvalues --   -0.32441  -0.30380  -0.29874  -0.29288  -0.28759
  Beta  occ. eigenvalues --   -0.28522  -0.27190  -0.26480  -0.26038  -0.25621
  Beta  occ. eigenvalues --   -0.25181  -0.24163  -0.22934  -0.17464  -0.17224
  Beta  occ. eigenvalues --   -0.15389  -0.13643  -0.12818
  Beta virt. eigenvalues --    0.06192   0.06626   0.07376   0.08044   0.08429
  Beta virt. eigenvalues --    0.08652   0.08931   0.09767   0.10183   0.10327
  Beta virt. eigenvalues --    0.10617   0.11018   0.11589   0.12309   0.12476

 Mulliken charges and spin densities:
               1          2
     1  C    1.233853  -1.796475
     2  C   -0.921931   0.242526
     3  C    0.172245   0.409135
     4  S   -0.103842  -0.379230
     5  C    0.070884  -0.171600
     6  N    0.092486   0.093045
     7  C   -0.476006   0.645630
     8  C    0.015517  -0.615692
     9  N    0.090010  -0.014022
    10  C    0.638785  -1.306213
    11  C   -1.585355   1.825351
    12  C    0.884281  -1.351743
    13  C    0.421937  -1.031549
    14  N   -0.238994  -0.072849
    15  H    0.022056   0.127606
    16  H    0.002428   0.147766
    17  H   -0.120116   0.262898
    18  H   -0.359531   0.597446
    19  H   -0.208062   0.425150
    20  H    0.013913   0.140612
    21  H   -0.082361   0.230188
    22  H    0.125440   0.040597
    23  H    0.191821   0.017664
    24  H   -0.126077   0.279243
    25  H    0.196516  -0.038579
    26  H   -0.030697   0.170208
    27  H   -0.257949   0.412131
    28  H   -0.117151   0.259843
    29  H   -0.076232   0.233275
    30  H   -0.398978   0.548403
    31  H   -0.162528   0.303471
    32  H    0.092624   0.122665
    33  H    0.001011   0.243101
 Sum of Mulliken charges =  -1.00000   1.00000

 Dipole moment (field-independent basis, Debye):
    X=              3.1500    Y=             -0.5312    Z=              0.9049  Tot=              3.3202
 Quadrupole moment (field-independent basis, Debye-Ang):
   XX=           -191.8962   YY=           -132.0616   ZZ=           -125.6013
   XY=              2.6475   XZ=             -2.5511   YZ=             -1.7279

 Summary of Natural Population Analysis:

                                       Natural Population
                Natural  -----------------------------------------------
    Atom  No    Charge         Core      Valence    Rydberg      Total
 -----------------------------------------------------------------------
      C    1   -0.29173      0.99963     2.28704    0.00506     3.29173
      C    2    0.05827      0.99949     1.92887    0.01336     2.94173
      C    3   -0.20801      0.99945     2.19816    0.01039     3.20801
      S    4    0.19857      4.99943     2.78146    0.02054     7.80143
      C    5    0.06459      0.99958     1.91791    0.01792     2.93541
      N    6   -0.25221      0.99962     2.74140    0.01120     3.75221
      C    7   -0.03100      0.99954     2.01820    0.01326     3.03100
      C    8   -0.28902      0.99965     2.28419    0.00518     3.28902
      N    9   -0.34594      0.99973     2.83510    0.01111     3.84594
      C   10   -0.08267      0.99956     2.07138    0.01173     3.08267
      C   11    0.04501      0.99959     1.94210    0.01330     2.95499
      C   12   -0.29480      0.99961     2.28779    0.00739     3.29480
      C   13   -0.28816      0.99962     2.28124    0.00730     3.28816
      N   14   -0.43061      0.99976     2.92027    0.01058     3.93061
      H   15    0.10378      0.00000     0.39463    0.00159     0.39622
      H   16    0.10347      0.00000     0.39502    0.00152     0.39653
      H   17    0.10093      0.00000     0.39793    0.00114     0.39907
      H   18    0.10867      0.00000     0.39008    0.00126     0.39133
      H   19    0.10385      0.00000     0.39397    0.00218     0.39615
      H   20    0.09727      0.00000     0.40149    0.00124     0.40273
      H   21    0.09949      0.00000     0.39955    0.00096     0.40051
      H   22    0.10902      0.00000     0.38960    0.00138     0.39098
      H   23    0.17783      0.00000     0.31946    0.00272     0.32217
      H   24    0.09615      0.00000     0.40233    0.00152     0.40385
      H   25    0.08652      0.00000     0.41207    0.00141     0.41348
      H   26    0.09945      0.00000     0.39948    0.00107     0.40055
      H   27    0.09795      0.00000     0.40068    0.00137     0.40205
      H   28    0.10669      0.00000     0.39179    0.00153     0.39331
      H   29    0.10284      0.00000     0.39600    0.00117     0.39716
      H   30    0.09980      0.00000     0.39896    0.00124     0.40020
      H   31    0.10224      0.00000     0.39658    0.00118     0.39776
      H   32    0.17613      0.00000     0.32177    0.00210     0.32387
      H   33    0.17565      0.00000     0.32255    0.00180     0.32435
 =======================================================================
   * Total *   -0.00000     17.99426    39.81905    0.18669    58.00000

 Normal termination of Gaussian 16 at Thu Dec 10 10:29:58 2020.
