 Gaussian 16, Revision A.03,

 -----------------------------------------------------------
 # opt freq B3LYP/6-31G(d) empiricaldispersion=gd3bj scf=xqc
 -----------------------------------------------------------

 -------------------------------
 CID_131482212_JID_6386_neutraal
 -------------------------------
 Symbolic Z-matrix:
 Charge =  0 Multiplicity = 1

 SCF Done:  E(RB3LYP) =  -746.801268940     A.U. after   15 cycles
 SCF Done:  E(RB3LYP) =  -746.805513082     A.U. after   12 cycles
 SCF Done:  E(RB3LYP) =  -746.805533275     A.U. after   12 cycles
 SCF Done:  E(RB3LYP) =  -746.805689526     A.U. after   12 cycles
 SCF Done:  E(RB3LYP) =  -746.806055832     A.U. after   11 cycles
 SCF Done:  E(RB3LYP) =  -746.806175640     A.U. after   12 cycles
 SCF Done:  E(RB3LYP) =  -746.806213349     A.U. after   11 cycles
 SCF Done:  E(RB3LYP) =  -746.806219743     A.U. after   11 cycles
 SCF Done:  E(RB3LYP) =  -746.806224174     A.U. after   10 cycles
 SCF Done:  E(RB3LYP) =  -746.806224913     A.U. after    9 cycles
 SCF Done:  E(RB3LYP) =  -746.806225003     A.U. after    7 cycles
 Optimization completed.
    -- Stationary point found.
 Normal termination of Gaussian 16 at Thu Dec 10 22:30:25 2020.

 --------------------------------------------------------------------
 #N Geom=AllCheck Guess=TCheck SCRF=Check GenChk RB3LYP/6-31G(d) Freq
 --------------------------------------------------------------------

 Structure from the checkpoint file:  "JID_6386.chk"
 -------------------------------
 CID_131482212_JID_6386_neutraal
 -------------------------------
 Charge =  0 Multiplicity = 1

 SCF Done:  E(RB3LYP) =  -746.806225003     A.U. after    1 cycles

  Exact polarizability: 167.336 -19.347 134.897 -13.506 -14.090 108.968
 Approx polarizability: 231.599 -28.428 210.657 -30.080 -40.812 176.122

                      1                      2                      3
                      A                      A                      A
 Frequencies --     22.0747                43.4975                72.7471
 Red. masses --      4.4402                 3.3846                 4.0209
 Frc consts  --      0.0013                 0.0038                 0.0125
 IR Inten    --      0.9266                 0.1030                 0.9380

                      4                      5                      6
                      A                      A                      A
 Frequencies --     92.0450               105.8284               159.8707
 Red. masses --      5.5506                 3.7403                 3.1257
 Frc consts  --      0.0277                 0.0247                 0.0471
 IR Inten    --      3.9448                 1.7804                 3.6778

                      7                      8                      9
                      A                      A                      A
 Frequencies --    177.6622               220.8773               235.0649
 Red. masses --      3.7781                 1.7435                 2.3383
 Frc consts  --      0.0703                 0.0501                 0.0761
 IR Inten    --      0.6897                 0.3773                 3.2734

                     10                     11                     12
                      A                      A                      A
 Frequencies --    279.3217               297.4060               305.8604
 Red. masses --      2.9749                 1.9430                 1.2731
 Frc consts  --      0.1367                 0.1013                 0.0702
 IR Inten    --      1.3022                18.8754                11.4045

                     13                     14                     15
                      A                      A                      A
 Frequencies --    327.0670               342.4763               369.4469
 Red. masses --      2.6211                 4.2634                 5.6777
 Frc consts  --      0.1652                 0.2946                 0.4566
 IR Inten    --      3.9007                 1.1728                 8.3795

                     16                     17                     18
                      A                      A                      A
 Frequencies --    424.8223               447.3812               464.9713
 Red. masses --      4.4187                 3.0564                 3.3351
 Frc consts  --      0.4699                 0.3604                 0.4248
 IR Inten    --      2.2245                 3.6799                20.6575

                     19                     20                     21
                      A                      A                      A
 Frequencies --    477.1258               501.6506               593.2186
 Red. masses --      3.7177                 4.1185                 3.7999
 Frc consts  --      0.4986                 0.6107                 0.7879
 IR Inten    --      5.6104                 1.2097                59.5460

                     22                     23                     24
                      A                      A                      A
 Frequencies --    599.7562               622.7406               660.4275
 Red. masses --      1.8179                 3.8567                 2.7880
 Frc consts  --      0.3853                 0.8812                 0.7165
 IR Inten    --    229.8243                20.2923               128.5883

                     25                     26                     27
                      A                      A                      A
 Frequencies --    694.6673               722.4931               737.4354
 Red. masses --      3.3872                 3.8425                 3.8206
 Frc consts  --      0.9630                 1.1818                 1.2241
 IR Inten    --      0.3418                 5.2036                10.8716

                     28                     29                     30
                      A                      A                      A
 Frequencies --    759.2348               794.7959               800.9416
 Red. masses --      4.7446                 1.4958                 1.5440
 Frc consts  --      1.6114                 0.5567                 0.5836
 IR Inten    --      7.9962                11.3723                22.3778

                     31                     32                     33
                      A                      A                      A
 Frequencies --    839.9064               843.4704               866.0905
 Red. masses --      3.2364                 1.5754                 2.4582
 Frc consts  --      1.3451                 0.6604                 1.0864
 IR Inten    --      4.3743                36.6120                 6.4516

                     34                     35                     36
                      A                      A                      A
 Frequencies --    909.4655               913.4584               948.9695
 Red. masses --      2.9296                 2.6582                 1.3282
 Frc consts  --      1.4277                 1.3068                 0.7047
 IR Inten    --      9.0395                 1.3942                 1.8315

                     37                     38                     39
                      A                      A                      A
 Frequencies --    971.6192               974.2967              1043.4077
 Red. masses --      2.9933                 2.3636                 2.2326
 Frc consts  --      1.6649                 1.3219                 1.4321
 IR Inten    --      8.8765                12.6933                12.4104

                     40                     41                     42
                      A                      A                      A
 Frequencies --   1056.2059              1092.8438              1113.9436
 Red. masses --      3.0688                 2.4032                 2.6063
 Frc consts  --      2.0171                 1.6911                 1.9054
 IR Inten    --     19.9466               121.0304                12.2871

                     43                     44                     45
                      A                      A                      A
 Frequencies --   1123.0669              1133.0863              1168.5259
 Red. masses --      1.4070                 1.9909                 1.5115
 Frc consts  --      1.0456                 1.5060                 1.2160
 IR Inten    --      7.0676                45.3650                71.1716

                     46                     47                     48
                      A                      A                      A
 Frequencies --   1207.8106              1211.6618              1218.1316
 Red. masses --      1.7096                 1.7977                 1.9114
 Frc consts  --      1.4694                 1.5550                 1.6711
 IR Inten    --     38.9103                72.9511                55.3051

                     49                     50                     51
                      A                      A                      A
 Frequencies --   1232.5817              1272.9367              1292.9258
 Red. masses --      2.0335                 2.0863                 1.5582
 Frc consts  --      1.8203                 1.9918                 1.5346
 IR Inten    --     74.3285                76.9584                38.3021

                     52                     53                     54
                      A                      A                      A
 Frequencies --   1307.5712              1333.8231              1341.2480
 Red. masses --      1.8949                 1.3744                 1.2437
 Frc consts  --      1.9088                 1.4407                 1.3182
 IR Inten    --    151.9132                 8.2660                 8.2784

                     55                     56                     57
                      A                      A                      A
 Frequencies --   1349.7730              1357.6578              1381.7405
 Red. masses --      1.9096                 1.5162                 4.1672
 Frc consts  --      2.0498                 1.6466                 4.6875
 IR Inten    --     24.5952                11.9128                31.4921

                     58                     59                     60
                      A                      A                      A
 Frequencies --   1400.1365              1418.7869              1432.8493
 Red. masses --      1.5216                 1.2983                 1.4351
 Frc consts  --      1.7575                 1.5398                 1.7360
 IR Inten    --     13.0716                 5.8626                13.1135

                     61                     62                     63
                      A                      A                      A
 Frequencies --   1444.1642              1500.1321              1507.3549
 Red. masses --      1.3188                 2.4585                 1.1870
 Frc consts  --      1.6206                 3.2597                 1.5890
 IR Inten    --      8.8950                41.0323                 8.3623

                     64                     65                     66
                      A                      A                      A
 Frequencies --   1515.4854              1519.8798              1536.4052
 Red. masses --      1.0497                 1.0862                 1.0611
 Frc consts  --      1.4204                 1.4784                 1.4758
 IR Inten    --      7.7216                 7.1519                 6.6738

                     67                     68                     69
                      A                      A                      A
 Frequencies --   1540.6976              1559.6511              1635.2365
 Red. masses --      1.2115                 2.7151                 6.8791
 Frc consts  --      1.6943                 3.8913                10.8378
 IR Inten    --     12.7095                96.0852                43.0309

                     70                     71                     72
                      A                      A                      A
 Frequencies --   1679.1145              1697.2195              1808.3424
 Red. masses --      2.6194                 1.5377                11.0147
 Frc consts  --      4.3513                 2.6097                21.2219
 IR Inten    --     66.2804               193.9493               193.7223

                     73                     74                     75
                      A                      A                      A
 Frequencies --   3062.3654              3062.8858              3076.5614
 Red. masses --      1.0362                 1.0662                 1.0609
 Frc consts  --      5.7256                 5.8934                 5.9162
 IR Inten    --     14.7524                13.8030                33.6265

                     76                     77                     78
                      A                      A                      A
 Frequencies --   3077.7047              3096.6712              3112.2565
 Red. masses --      1.0804                 1.0590                 1.1016
 Frc consts  --      6.0295                 5.9830                 6.2869
 IR Inten    --     24.4056                32.2454                32.4414

                     79                     80                     81
                      A                      A                      A
 Frequencies --   3129.1335              3133.1461              3141.7963
 Red. masses --      1.1020                 1.1078                 1.1037
 Frc consts  --      6.3572                 6.4075                 6.4188
 IR Inten    --     28.5143                35.5462                 8.5975

                     82                     83                     84
                      A                      A                      A
 Frequencies --   3160.9293              3182.3901              3198.6204
 Red. masses --      1.1079                 1.0873                 1.0907
 Frc consts  --      6.5219                 6.4882                 6.5747
 IR Inten    --     24.2110                13.0456                13.0163

                     85                     86                     87
                      A                      A                      A
 Frequencies --   3201.5480              3551.0839              3650.3368
 Red. masses --      1.0938                 1.0478                 1.0981
 Frc consts  --      6.6056                 7.7849                 8.6211
 IR Inten    --      6.2448                13.0402                 7.7450

 - Thermochemistry -
 -------------------
 Temperature   298.150 Kelvin.  Pressure   1.00000 Atm.
 Atom     1 has atomic number  6 and mass  12.00000

 Molecular mass:   221.10519 amu.
 Principal axes and moments of inertia in atomic units:
                           1         2         3
     Eigenvalues --  2261.960764756.609585603.70956
           X            0.99994  -0.00618   0.00937
           Y            0.00581   0.99921   0.03930
           Z           -0.00960  -0.03925   0.99918
 This molecule is an asymmetric top.
 Rotational symmetry number  1.
 Warning -- assumption of classical behavior for rotation
           may cause significant error
 Rotational temperatures (Kelvin)      0.03829     0.01821     0.01546
 Rotational constants (GHZ):           0.79787     0.37942     0.32206
 Zero-point vibrational energy     681225.5 (Joules/Mol)
                                  162.81680 (Kcal/Mol)
 Warning -- explicit consideration of  22 degrees of freedom as
           vibrations may cause significant error
 Vibrational temperatures:     31.76    62.58   104.67   132.43   152.26
          (Kelvin)            230.02   255.62   317.79   338.21   401.88
                              427.90   440.06   470.58   492.75   531.55
                              611.22   643.68   668.99   686.48   721.76
                              853.51   862.92   895.98   950.21   999.47
                             1039.51  1061.00  1092.37  1143.53  1152.38
                             1208.44  1213.57  1246.11  1308.52  1314.26
                             1365.36  1397.94  1401.80  1501.23  1519.64
                             1572.36  1602.72  1615.84  1630.26  1681.25
                             1737.77  1743.31  1752.62  1773.41  1831.47
                             1860.23  1881.30  1919.07  1929.76  1942.02
                             1953.37  1988.02  2014.48  2041.32  2061.55
                             2077.83  2158.36  2168.75  2180.45  2186.77
                             2210.54  2216.72  2243.99  2352.74  2415.87
                             2441.92  2601.80  4406.06  4406.81  4426.49
                             4428.13  4455.42  4477.84  4502.13  4507.90
                             4520.34  4547.87  4578.75  4602.10  4606.31
                             5109.22  5252.02

 Zero-point correction=                           0.259465 (Hartree/Particle)
 Thermal correction to Energy=                    0.274186
 Thermal correction to Enthalpy=                  0.275131
 Thermal correction to Gibbs Free Energy=         0.216797
 Sum of electronic and zero-point Energies=           -746.546760
 Sum of electronic and thermal Energies=              -746.532039
 Sum of electronic and thermal Enthalpies=            -746.531094
 Sum of electronic and thermal Free Energies=         -746.589428

                     E (Thermal)             CV                S
                      KCal/Mol        Cal/Mol-Kelvin    Cal/Mol-Kelvin
 Total                  172.055             56.751            122.773
 Electronic               0.000              0.000              0.000
 Translational            0.889              2.981             42.083
 Rotational               0.889              2.981             32.467
 Vibrational            170.277             50.789             48.223
 Vibration     1          0.593              1.985              6.438
 Vibration     2          0.595              1.980              5.093
 Vibration     3          0.599              1.967              4.078
 Vibration     4          0.602              1.955              3.616
 Vibration     5          0.605              1.945              3.344
 Vibration     6          0.622              1.892              2.551
 Vibration     7          0.628              1.870              2.353
 Vibration     8          0.648              1.809              1.952
 Vibration     9          0.655              1.787              1.840
 Vibration    10          0.680              1.712              1.538
 Vibration    11          0.691              1.679              1.431
 Vibration    12          0.696              1.663              1.385
 Vibration    13          0.711              1.621              1.275
 Vibration    14          0.722              1.591              1.201
 Vibration    15          0.742              1.535              1.082
 Vibration    16          0.787              1.416              0.876
 Vibration    17          0.807              1.367              0.804
 Vibration    18          0.822              1.328              0.752
 Vibration    19          0.834              1.301              0.718
 Vibration    20          0.857              1.246              0.654
 Vibration    21          0.951              1.046              0.461
 Vibration    22          0.958              1.032              0.450

 Optimization completed.
    -- Stationary point found.
 Normal termination of Gaussian 16 at Thu Dec 10 22:41:41 2020.

 ----------------------------------------------------------------------
 # B3LYP/6-311++G(d,p) empiricaldispersion=gd3bj scf=xqc pop=npa geom=c
 heck
 ----------------------------------------------------------------------

 ---------------------------------------
 CID_131482212_JID_6386_Energie_neutraal
 ---------------------------------------
 Structure from the checkpoint file:  "JID_6386.chk"
 Charge =  0 Multiplicity = 1

 SCF Done:  E(RB3LYP) =  -747.019735054     A.U. after   15 cycles
 Normal termination of Gaussian 16 at Thu Dec 10 22:46:01 2020.

 ----------------------------------------------------------------------
 # B3LYP/6-311++G(d,p) empiricaldispersion=gd3bj scf=xqc pop=npa geom=c
 heck
 ----------------------------------------------------------------------

 -------------------------------------
 CID_131482212_JID_6386_Energie_kation
 -------------------------------------
 Structure from the checkpoint file:  "JID_6386.chk"
 Charge =  1 Multiplicity = 2

 SCF Done:  E(UB3LYP) =  -746.746990375     A.U. after   23 cycles
 Normal termination of Gaussian 16 at Thu Dec 10 22:56:25 2020.
 Gaussian 16:  ES64L-G16RevA.03 25-Dec-2016

 ----------------------------------------------------------------------
 # B3LYP/6-311++G(d,p) empiricaldispersion=gd3bj scf=xqc pop=npa geom=c
 heck
 ----------------------------------------------------------------------

 ------------------------------------
 CID_131482212_JID_6386_Energie_anion
 ------------------------------------
 Structure from the checkpoint file:  "JID_6386.chk"
 Charge = -1 Multiplicity = 2

                         Standard orientation:
 ---------------------------------------------------------------------
 Center     Atomic      Atomic             Coordinates (Angstroms)
 Number     Number       Type             X           Y           Z
 ---------------------------------------------------------------------
      1          6           0       -2.598737   -2.082703   -1.580689
      2          6           0       -3.345326   -0.930861   -0.928257
      3          8           0       -2.416667    0.047928   -0.403646
      4          6           0       -1.880264   -0.224074    0.806433
      5          8           0       -2.195981   -1.180669    1.483235
      6          6           0       -0.792499    0.765828    1.201897
      7          6           0       -1.012438    2.211531    0.724248
      8          6           0       -0.495585    2.412626   -0.694149
      9          8           0        0.903716    2.127600   -0.787775
     10          6           0        1.304479    0.938035   -0.244831
     11          6           0        0.542662    0.231064    0.698128
     12          6           0        1.063324   -0.976254    1.180346
     13          6           0        2.293987   -1.464154    0.766836
     14          6           0        3.059897   -0.736039   -0.163355
     15          6           0        2.548863    0.464011   -0.666088
     16          7           0        4.329607   -1.181785   -0.538925
     17          1           0       -1.929305   -1.714863   -2.364774
     18          1           0       -3.310865   -2.782987   -2.031523
     19          1           0       -2.007106   -2.622125   -0.836369
     20          1           0       -3.945039   -0.373960   -1.651722
     21          1           0       -3.984930   -1.279779   -0.114511
     22          1           0       -0.787904    0.742975    2.296679
     23          1           0       -0.464159    2.885052    1.392702
     24          1           0       -2.071580    2.484228    0.774152
     25          1           0       -1.041759    1.771830   -1.394534
     26          1           0       -0.596314    3.453663   -1.010263
     27          1           0        0.474034   -1.542241    1.896742
     28          1           0        2.675651   -2.399865    1.166540
     29          1           0        3.104424    1.050428   -1.391970
     30          1           0        4.463434   -2.182635   -0.465671
     31          1           0        4.655445   -0.830154   -1.430638
 ---------------------------------------------------------------------

 SCF Done:  E(UB3LYP) =  -747.006566631     A.U. after   33 cycles
 SCF Done:  E(UB3LYP) =  -747.006566631     a.u. after    1 cycles

 The electronic state is 2-A.
 Alpha  occ. eigenvalues --  -19.07717 -19.05493 -19.02132 -14.21709 -10.21065
 Alpha  occ. eigenvalues --  -10.13753 -10.13618 -10.13005 -10.11790 -10.10753
 Alpha  occ. eigenvalues --  -10.09061 -10.08116 -10.07896 -10.07358 -10.06749
 Alpha  occ. eigenvalues --  -10.06610  -1.01731  -0.97335  -0.93101  -0.82129
 Alpha  occ. eigenvalues --   -0.75399  -0.72608  -0.67990  -0.65898  -0.64109
 Alpha  occ. eigenvalues --   -0.59646  -0.56437  -0.54822  -0.52000  -0.48293
 Alpha  occ. eigenvalues --   -0.46339  -0.43668  -0.42704  -0.41997  -0.39648
 Alpha  occ. eigenvalues --   -0.38944  -0.38447  -0.37386  -0.36301  -0.35348
 Alpha  occ. eigenvalues --   -0.34852  -0.33086  -0.32106  -0.31980  -0.31276
 Alpha  occ. eigenvalues --   -0.30715  -0.29171  -0.28759  -0.27433  -0.27013
 Alpha  occ. eigenvalues --   -0.25899  -0.25468  -0.23726  -0.22306  -0.21803
 Alpha  occ. eigenvalues --   -0.20405  -0.18606  -0.13413  -0.11004   0.04163
 Alpha virt. eigenvalues --    0.05474   0.06416   0.07502   0.07885   0.08228
 Alpha virt. eigenvalues --    0.08411   0.08851   0.09451   0.09656   0.10110
 Alpha virt. eigenvalues --    0.10897   0.11180   0.11456   0.12187   0.13409

  Beta  occ. eigenvalues --  -19.07713 -19.05493 -19.02118 -14.21644 -10.21052
  Beta  occ. eigenvalues --  -10.13750 -10.13593 -10.12991 -10.11775 -10.10753
  Beta  occ. eigenvalues --  -10.09045 -10.08111 -10.07894 -10.07333 -10.06739
  Beta  occ. eigenvalues --  -10.06603  -1.01713  -0.97330  -0.93080  -0.82053
  Beta  occ. eigenvalues --   -0.75375  -0.72581  -0.67954  -0.65870  -0.64076
  Beta  occ. eigenvalues --   -0.59608  -0.56396  -0.54781  -0.51967  -0.48235
  Beta  occ. eigenvalues --   -0.46304  -0.43623  -0.42661  -0.41963  -0.39614
  Beta  occ. eigenvalues --   -0.38904  -0.38403  -0.37348  -0.36257  -0.35320
  Beta  occ. eigenvalues --   -0.34827  -0.33055  -0.32067  -0.31958  -0.31243
  Beta  occ. eigenvalues --   -0.30687  -0.29128  -0.28723  -0.27394  -0.26986
  Beta  occ. eigenvalues --   -0.25870  -0.25444  -0.23702  -0.22286  -0.21769
  Beta  occ. eigenvalues --   -0.20374  -0.18586  -0.13400  -0.10950
  Beta virt. eigenvalues --    0.06317   0.06880   0.07101   0.07761   0.08280
  Beta virt. eigenvalues --    0.08533   0.08988   0.09044   0.09845   0.09913
  Beta virt. eigenvalues --    0.10465   0.11102   0.11422   0.11769   0.12407

 Mulliken charges and spin densities:
               1          2
     1  C    0.355577  -0.758005
     2  C    0.164976  -0.291235
     3  O   -0.038665   0.050402
     4  C   -0.200641  -0.185572
     5  O   -0.239675   0.009327
     6  C    1.127217  -0.520064
     7  C    0.010839  -0.529557
     8  C   -0.124185  -0.246682
     9  O   -0.155210   0.035897
    10  C   -0.786142   0.333523
    11  C    0.114231   0.452852
    12  C    0.184870  -0.392591
    13  C   -0.900547   0.550858
    14  C    1.056292  -1.250593
    15  C    0.078147  -0.452290
    16  N   -0.252407  -0.057044
    17  H    0.014377   0.132705
    18  H   -0.212135   0.352125
    19  H   -0.004553   0.181836
    20  H   -0.621539   0.801573
    21  H    0.126557   0.034599
    22  H    0.174201   0.091216
    23  H    0.167295  -0.010389
    24  H   -0.281824   0.480783
    25  H    0.300246  -0.089074
    26  H   -0.295719   0.486652
    27  H    0.182338   0.005434
    28  H   -0.245480   0.411551
    29  H   -0.174526   0.351425
    30  H   -0.320507   0.570190
    31  H   -0.203409   0.450149
 Sum of Mulliken charges =  -1.00000   1.00000

 Dipole moment (field-independent basis, Debye):
    X=             -2.7329    Y=              2.6220    Z=              3.7492  Tot=              5.3292
 Quadrupole moment (field-independent basis, Debye-Ang):
   XX=           -187.2115   YY=           -140.0286   ZZ=           -129.0008
   XY=             10.9222   XZ=              0.1196   YZ=             -0.2295

 Summary of Natural Population Analysis:

                                       Natural Population
                Natural  -----------------------------------------------
    Atom  No    Charge         Core      Valence    Rydberg      Total
 -----------------------------------------------------------------------
      C    1   -0.30005      0.99966     2.29500    0.00540     3.30005
      C    2   -0.01592      0.99957     2.00463    0.01172     3.01592
      O    3   -0.28668      0.99986     3.27676    0.01006     4.28668
      C    4    0.42145      0.99965     1.55237    0.02654     2.57855
      O    5   -0.31094      0.99987     3.30585    0.00522     4.31094
      C    6   -0.15300      0.99952     2.14215    0.01133     3.15300
      C    7   -0.20119      0.99962     2.19240    0.00916     3.20119
      C    8   -0.01018      0.99956     1.99906    0.01156     3.01018
      O    9   -0.27770      0.99986     3.26927    0.00858     4.27770
      C   10    0.17032      0.99933     1.81645    0.01390     2.82968
      C   11   -0.07189      0.99945     2.06388    0.00856     3.07189
      C   12   -0.08087      0.99953     2.07231    0.00902     3.08087
      C   13   -0.13455      0.99952     2.12486    0.01017     3.13455
      C   14    0.09606      0.99950     1.89313    0.01131     2.90394
      C   15   -0.14539      0.99948     2.13555    0.01037     3.14539
      N   16   -0.39352      0.99972     2.88333    0.01047     3.89352
      H   17    0.10284      0.00000     0.39608    0.00108     0.39716
      H   18    0.10247      0.00000     0.39642    0.00111     0.39753
      H   19    0.10635      0.00000     0.39257    0.00108     0.39365
      H   20    0.09303      0.00000     0.40486    0.00212     0.40697
      H   21    0.09373      0.00000     0.40504    0.00123     0.40627
      H   22    0.11301      0.00000     0.38557    0.00141     0.38699
      H   23    0.10154      0.00000     0.39742    0.00103     0.39846
      H   24    0.10892      0.00000     0.38970    0.00138     0.39108
      H   25    0.09313      0.00000     0.40503    0.00184     0.40687
      H   26    0.09167      0.00000     0.40704    0.00129     0.40833
      H   27    0.10534      0.00000     0.39332    0.00134     0.39466
      H   28    0.10091      0.00000     0.39820    0.00089     0.39909
      H   29    0.10468      0.00000     0.39363    0.00169     0.39532
      H   30    0.18871      0.00000     0.30496    0.00633     0.31129
      H   31    0.18770      0.00000     0.30778    0.00451     0.31230
 =======================================================================
   * Total *    0.00000     15.99371    42.80463    0.20167    59.00000

 Normal termination of Gaussian 16 at Thu Dec 10 23:10:21 2020.
