 Gaussian 16, Revision A.03,

 -----------------------------------------------------------
 # opt freq B3LYP/6-31G(d) empiricaldispersion=gd3bj scf=xqc
 -----------------------------------------------------------

 -----------------------------
 CID_1340836_JID_7445_neutraal
 -----------------------------
 Symbolic Z-matrix:
 Charge =  0 Multiplicity = 1

 SCF Done:  E(RB3LYP) =  -1123.93031323     A.U. after   15 cycles
 SCF Done:  E(RB3LYP) =  -1123.93951718     A.U. after   13 cycles
 SCF Done:  E(RB3LYP) =  -1123.94022689     A.U. after   12 cycles
 SCF Done:  E(RB3LYP) =  -1123.94125492     A.U. after   12 cycles
 SCF Done:  E(RB3LYP) =  -1123.94169419     A.U. after   12 cycles
 SCF Done:  E(RB3LYP) =  -1123.94182754     A.U. after   12 cycles
 SCF Done:  E(RB3LYP) =  -1123.94189332     A.U. after   10 cycles
 SCF Done:  E(RB3LYP) =  -1123.94192303     A.U. after   10 cycles
 SCF Done:  E(RB3LYP) =  -1123.94193934     A.U. after   10 cycles
 SCF Done:  E(RB3LYP) =  -1123.94194400     A.U. after    9 cycles
 SCF Done:  E(RB3LYP) =  -1123.94212229     A.U. after   11 cycles
 SCF Done:  E(RB3LYP) =  -1123.94213034     A.U. after    9 cycles
 SCF Done:  E(RB3LYP) =  -1123.94213449     A.U. after    9 cycles
 SCF Done:  E(RB3LYP) =  -1123.94213544     A.U. after    8 cycles
 SCF Done:  E(RB3LYP) =  -1123.94213557     A.U. after    7 cycles
 Optimization completed.
    -- Stationary point found.
 Normal termination of Gaussian 16 at Fri Dec 11 12:09:45 2020.

 --------------------------------------------------------------------
 #N Geom=AllCheck Guess=TCheck SCRF=Check GenChk RB3LYP/6-31G(d) Freq
 --------------------------------------------------------------------

 Structure from the checkpoint file:  "JID_7445.chk"
 -----------------------------
 CID_1340836_JID_7445_neutraal
 -----------------------------
 Charge =  0 Multiplicity = 1

 SCF Done:  E(RB3LYP) =  -1123.94213557     A.U. after    1 cycles

  Exact polarizability: 278.475   1.959 157.030  -1.246  -0.172  95.884
 Approx polarizability: 379.592   6.672 276.561   1.539  12.130 151.364

                      1                      2                      3
                      A                      A                      A
 Frequencies --     32.0613                42.9572                66.7495
 Red. masses --      4.9508                 4.9863                 3.9323
 Frc consts  --      0.0030                 0.0054                 0.0103
 IR Inten    --      0.6670                 0.8663                 0.5486

                      4                      5                      6
                      A                      A                      A
 Frequencies --     80.2290                82.0208               112.0909
 Red. masses --      1.0358                 1.1116                 4.5608
 Frc consts  --      0.0039                 0.0044                 0.0338
 IR Inten    --      0.0305                 0.0907                 0.7694

                      7                      8                      9
                      A                      A                      A
 Frequencies --    129.3160               143.4793               169.4108
 Red. masses --      6.1940                 3.4149                 2.3312
 Frc consts  --      0.0610                 0.0414                 0.0394
 IR Inten    --      5.8464                 1.3890                 0.7272

                     10                     11                     12
                      A                      A                      A
 Frequencies --    186.7982               197.5858               208.1229
 Red. masses --      1.2729                 4.1818                 1.3318
 Frc consts  --      0.0262                 0.0962                 0.0340
 IR Inten    --      0.7158                 0.9494                 0.3717

                     13                     14                     15
                      A                      A                      A
 Frequencies --    213.1693               247.0878               277.3927
 Red. masses --      4.1971                 3.3035                 3.5762
 Frc consts  --      0.1124                 0.1188                 0.1621
 IR Inten    --      2.1485                 2.6505                 1.5787

                     16                     17                     18
                      A                      A                      A
 Frequencies --    296.8732               307.2474               325.0209
 Red. masses --      2.9454                 3.4574                 2.5123
 Frc consts  --      0.1529                 0.1923                 0.1564
 IR Inten    --      1.7941                 4.5605                 0.9396

                     19                     20                     21
                      A                      A                      A
 Frequencies --    341.4065               383.7731               450.8647
 Red. masses --      4.4830                11.4056                 4.0568
 Frc consts  --      0.3079                 0.9897                 0.4859
 IR Inten    --      1.7328                21.5043                17.2523

                     22                     23                     24
                      A                      A                      A
 Frequencies --    476.5408               498.6580               523.2844
 Red. masses --     10.9045                 8.8230                 3.1709
 Frc consts  --      1.4590                 1.2926                 0.5116
 IR Inten    --     29.7742                36.6526                 5.5859

                     25                     26                     27
                      A                      A                      A
 Frequencies --    583.4215               605.8213               631.1216
 Red. masses --      4.3397                13.0527                 4.2490
 Frc consts  --      0.8703                 2.8225                 0.9971
 IR Inten    --      4.0399                 4.9952                 8.3600

                     28                     29                     30
                      A                      A                      A
 Frequencies --    636.6061               651.2833               659.1216
 Red. masses --      5.5324                11.0951                 4.6756
 Frc consts  --      1.3210                 2.7728                 1.1968
 IR Inten    --     12.2923                 8.3365                 3.2129

                     31                     32                     33
                      A                      A                      A
 Frequencies --    701.5873               736.8502               747.2387
 Red. masses --      4.2181                 6.5024                 4.5278
 Frc consts  --      1.2233                 2.0801                 1.4895
 IR Inten    --     13.5620                12.5582                 8.5010

                     34                     35                     36
                      A                      A                      A
 Frequencies --    799.2926               804.6140               865.1262
 Red. masses --      2.9504                 1.6850                 2.9948
 Frc consts  --      1.1106                 0.6427                 1.3206
 IR Inten    --     10.8247                 9.1908                60.9458

                     37                     38                     39
                      A                      A                      A
 Frequencies --    933.4443               989.0183              1002.3816
 Red. masses --      1.5492                 4.7317                 1.7358
 Frc consts  --      0.7953                 2.7270                 1.0276
 IR Inten    --     17.5953                16.1186                 8.0936

                     40                     41                     42
                      A                      A                      A
 Frequencies --   1028.7011              1044.5128              1069.7358
 Red. masses --      1.3913                 2.3714                 1.4226
 Frc consts  --      0.8675                 1.5243                 0.9591
 IR Inten    --     20.2329                29.1838                 4.9316

                     43                     44                     45
                      A                      A                      A
 Frequencies --   1079.4655              1129.1638              1151.3871
 Red. masses --      1.4476                 3.1739                 1.7768
 Frc consts  --      0.9938                 2.3843                 1.3878
 IR Inten    --      2.4957               153.0406                 5.1353

                     46                     47                     48
                      A                      A                      A
 Frequencies --   1156.5212              1168.1580              1182.2621
 Red. masses --      1.4874                 1.2892                 2.4057
 Frc consts  --      1.1721                 1.0365                 1.9812
 IR Inten    --      9.3352                 0.5008                12.6961

                     49                     50                     51
                      A                      A                      A
 Frequencies --   1214.8673              1233.7460              1305.5701
 Red. masses --      2.2172                 4.0432                 3.1281
 Frc consts  --      1.9280                 3.6260                 3.1414
 IR Inten    --      3.2467                 0.4796                44.3617

                     52                     53                     54
                      A                      A                      A
 Frequencies --   1330.4969              1391.4743              1395.9523
 Red. masses --      1.5335                 4.9093                 4.8517
 Frc consts  --      1.5994                 5.6004                 5.5704
 IR Inten    --     18.0228                70.0129               533.1400

                     55                     56                     57
                      A                      A                      A
 Frequencies --   1422.1377              1444.1414              1448.6912
 Red. masses --      4.0374                 1.3552                 1.3922
 Frc consts  --      4.8109                 1.6653                 1.7215
 IR Inten    --     38.9373                 5.9351                 7.9481

                     58                     59                     60
                      A                      A                      A
 Frequencies --   1462.9894              1469.9312              1493.9031
 Red. masses --      1.8232                 1.4760                 1.2050
 Frc consts  --      2.2992                 1.8790                 1.5845
 IR Inten    --    121.6538                38.2289                 9.6575

                     61                     62                     63
                      A                      A                      A
 Frequencies --   1509.8803              1512.2793              1517.5950
 Red. masses --      1.0536                 1.1379                 1.1620
 Frc consts  --      1.4152                 1.5333                 1.5768
 IR Inten    --      9.9656                16.5001                 7.5473

                     64                     65                     66
                      A                      A                      A
 Frequencies --   1519.7923              1523.3719              1530.7315
 Red. masses --      1.0433                 1.1348                 1.2125
 Frc consts  --      1.4198                 1.5517                 1.6739
 IR Inten    --      8.8207                 3.8446                 3.8932

                     67                     68                     69
                      A                      A                      A
 Frequencies --   1534.4289              1541.6549              1577.1677
 Red. masses --      1.0676                 1.0877                 3.7793
 Frc consts  --      1.4810                 1.5231                 5.5389
 IR Inten    --     12.1958                19.5167                35.7630

                     70                     71                     72
                      A                      A                      A
 Frequencies --   1632.5373              1673.8398              1779.5472
 Red. masses --      5.9512                 7.8439                12.5198
 Frc consts  --      9.3450                12.9482                23.3596
 IR Inten    --     41.6168               355.9732               454.7697

                     73                     74                     75
                      A                      A                      A
 Frequencies --   1833.1100              3031.3533              3037.0015
 Red. masses --     12.1122                 1.0407                 1.0429
 Frc consts  --     23.9801                 5.6343                 5.6675
 IR Inten    --    382.8387                55.0775                23.2273

                     76                     77                     78
                      A                      A                      A
 Frequencies --   3050.9430              3075.6725              3081.4967
 Red. masses --      1.0461                 1.1013                 1.0326
 Frc consts  --      5.7369                 6.1379                 5.7770
 IR Inten    --     60.5181                21.9108                38.8228

                     79                     80                     81
                      A                      A                      A
 Frequencies --   3084.2272              3129.3234              3139.1722
 Red. masses --      1.0997                 1.0916                 1.0964
 Frc consts  --      6.1634                 6.2980                 6.3659
 IR Inten    --     22.4618                14.1663                11.6501

                     82                     83                     84
                      A                      A                      A
 Frequencies --   3148.4345              3159.6648              3163.4142
 Red. masses --      1.1063                 1.0951                 1.0865
 Frc consts  --      6.4613                 6.4417                 6.4062
 IR Inten    --     13.2498                 8.0016                 1.9104

                     85                     86                     87
                      A                      A                      A
 Frequencies --   3170.5443              3191.7075              3256.2606
 Red. masses --      1.1029                 1.1041                 1.0962
 Frc consts  --      6.5321                 6.6266                 6.8482
 IR Inten    --      7.9870                 0.1613                 6.1097

 - Thermochemistry -
 -------------------
 Temperature   298.150 Kelvin.  Pressure   1.00000 Atm.
 Atom     1 has atomic number  6 and mass  12.00000

 Molecular mass:   250.07760 amu.
 Principal axes and moments of inertia in atomic units:
                           1         2         3
     Eigenvalues --  1748.365988477.997519589.54296
           X            0.99995  -0.00954  -0.00331
           Y            0.00938   0.99890  -0.04599
           Z            0.00375   0.04596   0.99894
 This molecule is an asymmetric top.
 Rotational symmetry number  1.
 Warning -- assumption of classical behavior for rotation
           may cause significant error
 Rotational temperatures (Kelvin)      0.04954     0.01022     0.00903
 Rotational constants (GHZ):           1.03224     0.21287     0.18820
 Zero-point vibrational energy     646988.5 (Joules/Mol)
                                  154.63396 (Kcal/Mol)
 Warning -- explicit consideration of  26 degrees of freedom as
           vibrations may cause significant error
 Vibrational temperatures:     46.13    61.81    96.04   115.43   118.01
          (Kelvin)            161.27   186.06   206.43   243.74   268.76
                              284.28   299.44   306.70   355.50   399.11
                              427.13   442.06   467.63   491.21   552.16
                              648.69   685.64   717.46   752.89   839.41
                              871.64   908.04   915.93   937.05   948.33
                             1009.43  1060.16  1075.11  1150.00  1157.66
                             1244.72  1343.02  1422.98  1442.20  1480.07
                             1502.82  1539.11  1553.11  1624.61  1656.59
                             1663.98  1680.72  1701.01  1747.92  1775.09
                             1878.42  1914.29  2002.02  2008.46  2046.14
                             2077.80  2084.34  2104.92  2114.90  2149.39
                             2172.38  2175.83  2183.48  2186.64  2191.79
                             2202.38  2207.70  2218.10  2269.19  2348.86
                             2408.28  2560.37  2637.44  4361.44  4369.57
                             4389.63  4425.21  4433.59  4437.52  4502.40
                             4516.57  4529.90  4546.05  4551.45  4561.71
                             4592.16  4685.03

 Zero-point correction=                           0.246425 (Hartree/Particle)
 Thermal correction to Energy=                    0.263901
 Thermal correction to Enthalpy=                  0.264846
 Thermal correction to Gibbs Free Energy=         0.200279
 Sum of electronic and zero-point Energies=          -1123.695711
 Sum of electronic and thermal Energies=             -1123.678234
 Sum of electronic and thermal Enthalpies=           -1123.677290
 Sum of electronic and thermal Free Energies=        -1123.741857

                     E (Thermal)             CV                S
                      KCal/Mol        Cal/Mol-Kelvin    Cal/Mol-Kelvin
 Total                  165.601             63.318            135.893
 Electronic               0.000              0.000              0.000
 Translational            0.889              2.981             42.450
 Rotational               0.889              2.981             33.319
 Vibrational            163.823             57.356             60.124
 Vibration     1          0.594              1.983              5.698
 Vibration     2          0.595              1.980              5.118
 Vibration     3          0.598              1.970              4.247
 Vibration     4          0.600              1.963              3.885
 Vibration     5          0.600              1.961              3.842
 Vibration     6          0.607              1.939              3.232
 Vibration     7          0.612              1.924              2.956
 Vibration     8          0.616              1.910              2.757
 Vibration     9          0.625              1.880              2.442
 Vibration    10          0.632              1.858              2.259
 Vibration    11          0.637              1.843              2.155
 Vibration    12          0.641              1.828              2.060
 Vibration    13          0.644              1.821              2.016
 Vibration    14          0.661              1.768              1.751
 Vibration    15          0.678              1.715              1.550
 Vibration    16          0.691              1.680              1.434
 Vibration    17          0.697              1.660              1.377
 Vibration    18          0.709              1.625              1.285
 Vibration    19          0.721              1.593              1.206
 Vibration    20          0.753              1.505              1.024
 Vibration    21          0.810              1.359              0.793
 Vibration    22          0.833              1.302              0.719
 Vibration    23          0.854              1.253              0.661
 Vibration    24          0.878              1.198              0.602
 Vibration    25          0.940              1.067              0.479
 Vibration    26          0.964              1.019              0.440

                           ! Non-Optimized Parameters !
 Normal termination of Gaussian 16 at Fri Dec 11 12:19:28 2020.

 ----------------------------------------------------------------------
 # B3LYP/6-311++G(d,p) empiricaldispersion=gd3bj scf=xqc pop=npa geom=c
 heck
 ----------------------------------------------------------------------

 -------------------------------------
 CID_1340836_JID_7445_Energie_neutraal
 -------------------------------------
 Structure from the checkpoint file:  "JID_7445.chk"
 Charge =  0 Multiplicity = 1

 SCF Done:  E(RB3LYP) =  -1124.16619636     A.U. after   16 cycles
 Normal termination of Gaussian 16 at Fri Dec 11 12:24:13 2020.

 ----------------------------------------------------------------------
 # B3LYP/6-311++G(d,p) empiricaldispersion=gd3bj scf=xqc pop=npa geom=c
 heck
 ----------------------------------------------------------------------

 -----------------------------------
 CID_1340836_JID_7445_Energie_kation
 -----------------------------------
 Structure from the checkpoint file:  "JID_7445.chk"
 Charge =  1 Multiplicity = 2

 SCF Done:  E(UB3LYP) =  -1123.89654343     A.U. after   25 cycles
 Normal termination of Gaussian 16 at Fri Dec 11 12:33:13 2020.
 Gaussian 16:  ES64L-G16RevA.03 25-Dec-2016

 ----------------------------------------------------------------------
 # B3LYP/6-311++G(d,p) empiricaldispersion=gd3bj scf=xqc pop=npa geom=c
 heck
 ----------------------------------------------------------------------

 ----------------------------------
 CID_1340836_JID_7445_Energie_anion
 ----------------------------------
 Structure from the checkpoint file:  "JID_7445.chk"
 Charge = -1 Multiplicity = 2

                         Standard orientation:
 ---------------------------------------------------------------------
 Center     Atomic      Atomic             Coordinates (Angstroms)
 Number     Number       Type             X           Y           Z
 ---------------------------------------------------------------------
      1          6           0        4.982263    1.123737   -0.939945
      2          6           0        3.621072    0.780924   -0.431023
      3          6           0        2.473449    1.531278   -0.400358
      4          6           0        1.422012    0.723323    0.148252
      5          6           0        1.989814   -0.509952    0.480252
      6          7           0        3.315700   -0.464072    0.111030
      7          6           0        4.275694   -1.522374    0.364094
      8          6           0        1.436945   -1.660311    1.256095
      9          6           0        0.059897    1.167257    0.316031
     10          6           0       -1.090181    0.476932    0.146430
     11          6           0       -2.403055    1.131465    0.351627
     12          8           0       -2.590417    2.262888    0.767158
     13          7           0       -3.438361    0.264339   -0.018278
     14          6           0       -3.090921   -0.989928   -0.489572
     15          8           0       -3.867502   -1.843974   -0.849317
     16         16           0       -1.293737   -1.172828   -0.479824
     17          6           0       -4.839956    0.649829    0.064837
     18          1           0        4.979495    2.152557   -1.309132
     19          1           0        5.295257    0.476899   -1.770590
     20          1           0        5.752929    1.053740   -0.161040
     21          1           0        2.367248    2.538847   -0.779241
     22          1           0        4.647324   -1.493629    1.396074
     23          1           0        3.814545   -2.496118    0.184291
     24          1           0        5.123161   -1.413758   -0.314021
     25          1           0        0.496270   -1.371620    1.727553
     26          1           0        1.232310   -2.541255    0.633271
     27          1           0        2.125709   -1.970501    2.051497
     28          1           0       -0.089109    2.217429    0.565656
     29          1           0       -4.869325    1.663888    0.463151
     30          1           0       -5.297821    0.617700   -0.927112
     31          1           0       -5.378418   -0.035191    0.724527
 ---------------------------------------------------------------------

 SCF Done:  E(UB3LYP) =  -1124.18081521     A.U. after   33 cycles
 SCF Done:  E(UB3LYP) =  -1124.18081554     a.u. after    3 cycles

 The electronic state is 2-A.
 Alpha  occ. eigenvalues --  -88.72597 -18.97025 -18.93423 -14.24213 -14.22453
 Alpha  occ. eigenvalues --  -10.15677 -10.11852 -10.10928 -10.08650 -10.08376
 Alpha  occ. eigenvalues --  -10.08315 -10.06821 -10.05925 -10.04239 -10.03466
 Alpha  occ. eigenvalues --  -10.03296 -10.01172  -7.81253  -5.77562  -5.77252
 Alpha  occ. eigenvalues --   -5.76725  -0.92874  -0.89044  -0.87168  -0.80990
 Alpha  occ. eigenvalues --   -0.70169  -0.68483  -0.67131  -0.62162  -0.61667
 Alpha  occ. eigenvalues --   -0.58135  -0.56978  -0.53613  -0.50967  -0.46752
 Alpha  occ. eigenvalues --   -0.44645  -0.41513  -0.39044  -0.38242  -0.37300
 Alpha  occ. eigenvalues --   -0.35250  -0.34842  -0.33374  -0.32770  -0.32636
 Alpha  occ. eigenvalues --   -0.31795  -0.30979  -0.29965  -0.29703  -0.28896
 Alpha  occ. eigenvalues --   -0.28261  -0.27946  -0.27478  -0.27255  -0.25498
 Alpha  occ. eigenvalues --   -0.25176  -0.24684  -0.23905  -0.20931  -0.17746
 Alpha  occ. eigenvalues --   -0.15058  -0.14438  -0.12901  -0.11333  -0.10131
 Alpha  occ. eigenvalues --   -0.07090   0.03958
 Alpha virt. eigenvalues --    0.05550   0.07424   0.08776   0.09055   0.09351
 Alpha virt. eigenvalues --    0.10709   0.10858   0.11556   0.12087   0.12416
 Alpha virt. eigenvalues --    0.12659   0.13189   0.13849   0.14261   0.14427

  Beta  occ. eigenvalues --  -88.72613 -18.96843 -18.93075 -14.24159 -14.22512
  Beta  occ. eigenvalues --  -10.15521 -10.11851 -10.10615 -10.08650 -10.08375
  Beta  occ. eigenvalues --  -10.08347 -10.06591 -10.05942 -10.04180 -10.03557
  Beta  occ. eigenvalues --  -10.03226 -10.00660  -7.81267  -5.77576  -5.77265
  Beta  occ. eigenvalues --   -5.76763  -0.92558  -0.88479  -0.87030  -0.80775
  Beta  occ. eigenvalues --   -0.69958  -0.68336  -0.66995  -0.62097  -0.61229
  Beta  occ. eigenvalues --   -0.58094  -0.56703  -0.53392  -0.50421  -0.46602
  Beta  occ. eigenvalues --   -0.44428  -0.41352  -0.38741  -0.38119  -0.37158
  Beta  occ. eigenvalues --   -0.34920  -0.34696  -0.33191  -0.32742  -0.32536
  Beta  occ. eigenvalues --   -0.31667  -0.30768  -0.29841  -0.29578  -0.28754
  Beta  occ. eigenvalues --   -0.27792  -0.27738  -0.27343  -0.26998  -0.24961
  Beta  occ. eigenvalues --   -0.24740  -0.23852  -0.23427  -0.20719  -0.16876
  Beta  occ. eigenvalues --   -0.14892  -0.13519  -0.12560  -0.11030  -0.09427
  Beta  occ. eigenvalues --   -0.05962
  Beta virt. eigenvalues --    0.05551   0.07353   0.08715   0.09030   0.09290
  Beta virt. eigenvalues --    0.10165   0.10691   0.10807   0.11498   0.12079
  Beta virt. eigenvalues --    0.12455   0.12662   0.13293   0.13970   0.14373

 Mulliken charges and spin densities:
               1          2
     1  C   -0.404396  -0.291647
     2  C    0.001777   0.146067
     3  C    0.046758   0.058855
     4  C    0.568548  -0.075501
     5  C   -0.534752   0.144149
     6  N    0.212387   0.041292
     7  C   -0.264490  -0.134009
     8  C   -0.759314  -0.030161
     9  C   -0.582757   0.420603
    10  C   -0.450168   0.004969
    11  C    0.689143   0.190202
    12  O   -0.441875   0.132296
    13  N    0.113189  -0.039345
    14  C   -0.270221   0.080050
    15  O   -0.388474   0.060066
    16  S   -0.027346  -0.028649
    17  C   -0.287292  -0.001948
    18  H    0.116449   0.034699
    19  H    0.100145   0.040372
    20  H    0.071368   0.070841
    21  H    0.096571   0.032471
    22  H    0.078529   0.096833
    23  H    0.155500   0.010081
    24  H    0.093406   0.039640
    25  H    0.148540  -0.000622
    26  H    0.133450   0.021705
    27  H    0.116316  -0.001942
    28  H    0.182159  -0.022433
    29  H    0.176333  -0.001139
    30  H    0.158446  -0.000640
    31  H    0.152071   0.002844
 Sum of Mulliken charges =  -1.00000   1.00000

 Dipole moment (field-independent basis, Debye):
    X=              6.3174    Y=             -2.1322    Z=              0.0989  Tot=              6.6682
 Quadrupole moment (field-independent basis, Debye-Ang):
   XX=           -150.3151   YY=           -134.5554   ZZ=           -119.6382
   XY=             -8.2390   XZ=             -3.1482   YZ=             -8.9134

 Summary of Natural Population Analysis:

                                       Natural Population
                Natural  -----------------------------------------------
    Atom  No    Charge         Core      Valence    Rydberg      Total
 -----------------------------------------------------------------------
      C    1   -0.29879      0.99964     2.29475    0.00440     3.29879
      C    2    0.05335      0.99953     1.93664    0.01048     2.94665
      C    3   -0.11741      0.99947     2.10811    0.00983     3.11741
      C    4   -0.08932      0.99951     2.07777    0.01204     3.08932
      C    5    0.12817      0.99950     1.86152    0.01081     2.87183
      N    6   -0.20328      0.99959     2.69577    0.00793     3.70328
      C    7   -0.17380      0.99966     2.16811    0.00603     3.17380
      C    8   -0.30896      0.99964     2.30459    0.00472     3.30896
      C    9    0.03911      0.99948     1.95476    0.00665     2.96089
      C   10   -0.14844      0.99942     2.13732    0.01171     3.14844
      C   11    0.36999      0.99959     1.60801    0.02241     2.63001
      O   12   -0.29046      0.99987     3.28712    0.00347     4.29046
      N   13   -0.27446      0.99958     2.76501    0.00987     3.77446
      C   14    0.29759      0.99970     1.67569    0.02702     2.70241
      O   15   -0.30377      0.99986     3.29569    0.00822     4.30377
      S   16    0.09448      4.99949     2.88490    0.02113     7.90552
      C   17   -0.17876      0.99966     2.17125    0.00785     3.17876
      H   18    0.10690      0.00000     0.39220    0.00090     0.39310
      H   19    0.09541      0.00000     0.40288    0.00171     0.40459
      H   20    0.09567      0.00000     0.40249    0.00185     0.40433
      H   21    0.09925      0.00000     0.39950    0.00125     0.40075
      H   22    0.09071      0.00000     0.40754    0.00175     0.40929
      H   23    0.09871      0.00000     0.40015    0.00114     0.40129
      H   24    0.09729      0.00000     0.40162    0.00110     0.40271
      H   25    0.11892      0.00000     0.38004    0.00104     0.38108
      H   26    0.10334      0.00000     0.39534    0.00132     0.39666
      H   27    0.09543      0.00000     0.40335    0.00122     0.40457
      H   28    0.10561      0.00000     0.39365    0.00074     0.39439
      H   29    0.11089      0.00000     0.38795    0.00116     0.38911
      H   30    0.09358      0.00000     0.40530    0.00113     0.40642
      H   31    0.09363      0.00000     0.40524    0.00113     0.40637
 =======================================================================
   * Total *    0.00056     20.99319    44.80424    0.20200    65.99944

 Normal termination of Gaussian 16 at Fri Dec 11 13:13:04 2020.
