 Gaussian 16, Revision A.03,

 -----------------------------------------------------------
 # opt freq B3LYP/6-31G(d) empiricaldispersion=gd3bj scf=xqc
 -----------------------------------------------------------

 ------------------------------
 CID_65321048_JID_5739_neutraal
 ------------------------------
 Symbolic Z-matrix:
 Charge =  0 Multiplicity = 1

 SCF Done:  E(RB3LYP) =  -619.388287278     A.U. after   13 cycles
 SCF Done:  E(RB3LYP) =  -619.393400418     A.U. after   11 cycles
 SCF Done:  E(RB3LYP) =  -619.393315079     A.U. after   11 cycles
 SCF Done:  E(RB3LYP) =  -619.394223962     A.U. after   10 cycles
 SCF Done:  E(RB3LYP) =  -619.394311069     A.U. after   10 cycles
 SCF Done:  E(RB3LYP) =  -619.394412039     A.U. after   10 cycles
 SCF Done:  E(RB3LYP) =  -619.394486123     A.U. after    8 cycles
 SCF Done:  E(RB3LYP) =  -619.394661427     A.U. after   10 cycles
 SCF Done:  E(RB3LYP) =  -619.394717896     A.U. after   10 cycles
 SCF Done:  E(RB3LYP) =  -619.394722920     A.U. after   10 cycles
 SCF Done:  E(RB3LYP) =  -619.395632314     A.U. after    9 cycles
 SCF Done:  E(RB3LYP) =  -619.395639852     A.U. after   10 cycles
 SCF Done:  E(RB3LYP) =  -619.395639081     A.U. after    9 cycles
 SCF Done:  E(RB3LYP) =  -619.395640771     A.U. after    9 cycles
 SCF Done:  E(RB3LYP) =  -619.395640849     A.U. after    7 cycles
 SCF Done:  E(RB3LYP) =  -619.395640833     A.U. after    6 cycles
 Optimization completed.
    -- Stationary point found.
 Normal termination of Gaussian 16 at Thu Dec 10 17:34:10 2020.

 --------------------------------------------------------------------
 #N Geom=AllCheck Guess=TCheck SCRF=Check GenChk RB3LYP/6-31G(d) Freq
 --------------------------------------------------------------------

 Structure from the checkpoint file:  "JID_5739.chk"
 ------------------------------
 CID_65321048_JID_5739_neutraal
 ------------------------------
 Charge =  0 Multiplicity = 1

 SCF Done:  E(RB3LYP) =  -619.395640833     A.U. after    1 cycles

  Exact polarizability: 155.238  -0.952 142.777  -2.086  -0.026 128.496
 Approx polarizability: 198.233  -0.446 196.678   0.228   0.903 198.496

                      1                      2                      3
                      A                      A                      A
 Frequencies --     19.6546                65.3930                85.4782
 Red. masses --      3.3961                 2.8420                 2.0130
 Frc consts  --      0.0008                 0.0072                 0.0087
 IR Inten    --      0.4638                 0.4659                 0.2607

                      4                      5                      6
                      A                      A                      A
 Frequencies --     97.2822               128.9236               180.8262
 Red. masses --      2.9512                 2.7166                 2.5712
 Frc consts  --      0.0165                 0.0266                 0.0495
 IR Inten    --      0.2063                 0.1539                 0.1335

                      7                      8                      9
                      A                      A                      A
 Frequencies --    188.3588               211.5302               236.7264
 Red. masses --      2.6869                 2.9007                 2.9693
 Frc consts  --      0.0562                 0.0765                 0.0980
 IR Inten    --      0.3946                 0.1224                 2.6254

                     10                     11                     12
                      A                      A                      A
 Frequencies --    297.1385               339.9112               353.8307
 Red. masses --      1.8488                 1.9974                 2.1350
 Frc consts  --      0.0962                 0.1360                 0.1575
 IR Inten    --      1.2572                 0.6220                 1.1856

                     13                     14                     15
                      A                      A                      A
 Frequencies --    372.6083               401.1196               428.6421
 Red. masses --      2.4625                 3.5702                 2.2152
 Frc consts  --      0.2014                 0.3385                 0.2398
 IR Inten    --      3.7296                 1.1215                 0.0275

                     16                     17                     18
                      A                      A                      A
 Frequencies --    493.9579               501.1458               550.6130
 Red. masses --      2.9079                 3.1406                 1.9418
 Frc consts  --      0.4180                 0.4647                 0.3468
 IR Inten    --      1.9896                 3.2423                16.7074

                     19                     20                     21
                      A                      A                      A
 Frequencies --    566.6850               584.0498               625.0381
 Red. masses --      2.4045                 2.1524                 2.6171
 Frc consts  --      0.4549                 0.4326                 0.6024
 IR Inten    --     36.4924                 1.2798                 0.7660

                     22                     23                     24
                      A                      A                      A
 Frequencies --    687.1738               744.9677               780.0458
 Red. masses --      2.6815                 2.4496                 1.2178
 Frc consts  --      0.7460                 0.8010                 0.4366
 IR Inten    --     20.5346                 5.7708                 2.2911

                     25                     26                     27
                      A                      A                      A
 Frequencies --    802.9617               835.8517               855.4199
 Red. masses --      2.3284                 2.3288                 2.0656
 Frc consts  --      0.8845                 0.9586                 0.8905
 IR Inten    --      1.4540                17.5284                29.7615

                     28                     29                     30
                      A                      A                      A
 Frequencies --    883.7177               892.7229               908.1693
 Red. masses --      2.0163                 1.5787                 2.0958
 Frc consts  --      0.9278                 0.7413                 1.0185
 IR Inten    --      2.2239                 4.4150                 4.1698

                     31                     32                     33
                      A                      A                      A
 Frequencies --    915.3959               921.5619               925.9055
 Red. masses --      2.4793                 2.2340                 2.1958
 Frc consts  --      1.2240                 1.1178                 1.1091
 IR Inten    --      0.7625                 4.4329                 0.6858

                     34                     35                     36
                      A                      A                      A
 Frequencies --    933.7165               951.6173               964.4130
 Red. masses --      2.3936                 1.8140                 1.5651
 Frc consts  --      1.2295                 0.9678                 0.8576
 IR Inten    --      4.7849                 9.9848                 0.7050

                     37                     38                     39
                      A                      A                      A
 Frequencies --    986.6851              1008.2047              1013.7382
 Red. masses --      1.3857                 1.9568                 2.6250
 Frc consts  --      0.7948                 1.1719                 1.5894
 IR Inten    --      6.0349                 4.9908                 5.8823

                     40                     41                     42
                      A                      A                      A
 Frequencies --   1027.7196              1049.5627              1065.5508
 Red. masses --      2.4018                 2.0795                 1.3801
 Frc consts  --      1.4946                 1.3497                 0.9232
 IR Inten    --      3.2422                 3.2400                 0.7205

                     43                     44                     45
                      A                      A                      A
 Frequencies --   1098.7591              1103.4981              1112.9697
 Red. masses --      2.0489                 1.8621                 1.8205
 Frc consts  --      1.4574                 1.3360                 1.3286
 IR Inten    --     11.2637                 2.8284                 1.0280

                     46                     47                     48
                      A                      A                      A
 Frequencies --   1126.4777              1131.6782              1151.4557
 Red. masses --      2.2156                 2.7497                 2.2855
 Frc consts  --      1.6565                 2.0748                 1.7853
 IR Inten    --     11.7744                15.5323                 8.8987

                     49                     50                     51
                      A                      A                      A
 Frequencies --   1173.4405              1186.1628              1197.5042
 Red. masses --      1.6467                 1.5681                 1.4362
 Frc consts  --      1.3360                 1.2999                 1.2134
 IR Inten    --     19.3147                11.0930                 4.2434

                     52                     53                     54
                      A                      A                      A
 Frequencies --   1215.8814              1224.4676              1232.6438
 Red. masses --      1.5275                 1.5365                 1.6966
 Frc consts  --      1.3305                 1.3573                 1.5188
 IR Inten    --      4.1319                 0.3427                 6.5101

                     55                     56                     57
                      A                      A                      A
 Frequencies --   1243.2707              1261.5951              1269.1143
 Red. masses --      1.4497                 1.3452                 1.3156
 Frc consts  --      1.3203                 1.2615                 1.2485
 IR Inten    --      2.6119                 7.8982                 9.1114

                     58                     59                     60
                      A                      A                      A
 Frequencies --   1282.5249              1293.7247              1304.7105
 Red. masses --      1.3595                 1.2148                 1.3298
 Frc consts  --      1.3176                 1.1980                 1.3337
 IR Inten    --      5.2687                 4.9174                17.6002

                     61                     62                     63
                      A                      A                      A
 Frequencies --   1322.8329              1330.3395              1338.7272
 Red. masses --      1.3778                 1.2681                 1.3779
 Frc consts  --      1.4205                 1.3223                 1.4550
 IR Inten    --      8.1256                 4.0994                 1.8142

                     64                     65                     66
                      A                      A                      A
 Frequencies --   1340.6506              1344.6552              1356.4444
 Red. masses --      1.3907                 1.3482                 1.3392
 Frc consts  --      1.4727                 1.4362                 1.4518
 IR Inten    --      4.3586                 5.1959                 1.5079

                     67                     68                     69
                      A                      A                      A
 Frequencies --   1359.9785              1368.1244              1376.4867
 Red. masses --      1.3595                 1.4329                 1.4467
 Frc consts  --      1.4815                 1.5802                 1.6150
 IR Inten    --      5.2499                 6.5591                 5.8324

                     70                     71                     72
                      A                      A                      A
 Frequencies --   1385.6612              1393.0367              1411.1904
 Red. masses --      1.5129                 1.3984                 1.3513
 Frc consts  --      1.7115                 1.5988                 1.5855
 IR Inten    --      5.6132                 7.6267                15.3698

                     73                     74                     75
                      A                      A                      A
 Frequencies --   1419.7043              1423.5495              1432.1139
 Red. masses --      1.3397                 1.3955                 1.6501
 Frc consts  --      1.5910                 1.6662                 1.9940
 IR Inten    --     16.1815                19.2868                 5.0074

                     76                     77                     78
                      A                      A                      A
 Frequencies --   1445.8440              1464.7087              1496.5742
 Red. masses --      1.3376                 1.3872                 1.0916
 Frc consts  --      1.6474                 1.7534                 1.4404
 IR Inten    --      0.5704                14.7520                 4.6308

                     79                     80                     81
                      A                      A                      A
 Frequencies --   1510.3335              1514.1775              1517.1133
 Red. masses --      1.0911                 1.0945                 1.0838
 Frc consts  --      1.4664                 1.4785                 1.4697
 IR Inten    --      4.1737                 6.1405                 0.9232

                     82                     83                     84
                      A                      A                      A
 Frequencies --   1521.7188              1526.1772              1530.0208
 Red. masses --      1.1001                 1.0913                 1.0990
 Frc consts  --      1.5009                 1.4977                 1.5158
 IR Inten    --      1.8758                 0.7311                10.1933

                     85                     86                     87
                      A                      A                      A
 Frequencies --   1539.6176              1545.6326              1555.9029
 Red. masses --      1.0913                 1.1052                 1.1020
 Frc consts  --      1.5242                 1.5556                 1.5718
 IR Inten    --      3.1904                 2.1853                 1.6437

                     88                     89                     90
                      A                      A                      A
 Frequencies --   2933.0654              2937.3594              2940.4956
 Red. masses --      1.0772                 1.0819                 1.0737
 Frc consts  --      5.4600                 5.4999                 5.4696
 IR Inten    --      9.5455                46.6579               140.1348

                     91                     92                     93
                      A                      A                      A
 Frequencies --   2943.4293              3006.8050              3019.6950
 Red. masses --      1.0754                 1.0805                 1.0663
 Frc consts  --      5.4897                 5.7556                 5.7289
 IR Inten    --    112.3478                 5.7453                50.7744

                     94                     95                     96
                      A                      A                      A
 Frequencies --   3020.8998              3041.0335              3045.5902
 Red. masses --      1.0661                 1.0625                 1.0652
 Frc consts  --      5.7323                 5.7892                 5.8215
 IR Inten    --     42.1560                23.4229                37.6206

                     97                     98                     99
                      A                      A                      A
 Frequencies --   3050.1286              3065.2820              3066.4399
 Red. masses --      1.0703                 1.0728                 1.0924
 Frc consts  --      5.8665                 5.9389                 6.0520
 IR Inten    --     37.3620                33.1861                40.5247

                    100                    101                    102
                      A                      A                      A
 Frequencies --   3068.6059              3068.7556              3070.2242
 Red. masses --      1.0662                 1.0707                 1.0862
 Frc consts  --      5.9151                 5.9406                 6.0324
 IR Inten    --     36.6767                73.4108                19.3618

                    103                    104                    105
                      A                      A                      A
 Frequencies --   3071.6008              3080.3992              3085.9840
 Red. masses --      1.0962                 1.0813                 1.1051
 Frc consts  --      6.0933                 6.0454                 6.2006
 IR Inten    --     47.2025                53.2443                55.9943

                    106                    107                    108
                      A                      A                      A
 Frequencies --   3090.0253              3109.0838              3120.0837
 Red. masses --      1.0998                 1.1029                 1.1034
 Frc consts  --      6.1869                 6.2811                 6.3284
 IR Inten    --     24.8887                59.1427                51.1960

                    109                    110                    111
                      A                      A                      A
 Frequencies --   3135.5900              3144.0191              3532.9206
 Red. masses --      1.0964                 1.0941                 1.0753
 Frc consts  --      6.3511                 6.3722                 7.9078
 IR Inten    --     37.1460                25.5808                 1.2694

 - Thermochemistry -
 -------------------
 Temperature   298.150 Kelvin.  Pressure   1.00000 Atm.
 Atom     1 has atomic number  6 and mass  12.00000

 Molecular mass:   208.19395 amu.
 Principal axes and moments of inertia in atomic units:
                           1         2         3
     Eigenvalues --  2018.204283958.254254777.65736
           X            0.99998  -0.00617  -0.00109
           Y            0.00616   0.99995  -0.00753
           Z            0.00114   0.00752   0.99997
 This molecule is an asymmetric top.
 Rotational symmetry number  1.
 Warning -- assumption of classical behavior for rotation
           may cause significant error
 Rotational temperatures (Kelvin)      0.04292     0.02188     0.01813
 Rotational constants (GHZ):           0.89423     0.45594     0.37775
 Zero-point vibrational energy     956490.5 (Joules/Mol)
                                  228.60672 (Kcal/Mol)
 Warning -- explicit consideration of  20 degrees of freedom as
           vibrations may cause significant error
 Vibrational temperatures:     28.28    94.09   122.98   139.97   185.49
          (Kelvin)            260.17   271.01   304.34   340.60   427.52
                              489.06   509.08   536.10   577.12   616.72
                              710.70   721.04   792.21   815.33   840.32
                              899.29   988.69  1071.84  1122.31  1155.28
                             1202.60  1230.76  1271.47  1284.43  1306.65
                             1317.05  1325.92  1332.17  1343.41  1369.16
                             1387.58  1419.62  1450.58  1458.54  1478.66
                             1510.09  1533.09  1580.87  1587.69  1601.32
                             1620.75  1628.23  1656.69  1688.32  1706.62
                             1722.94  1749.38  1761.74  1773.50  1788.79
                             1815.15  1825.97  1845.27  1861.38  1877.19
                             1903.26  1914.06  1926.13  1928.90  1934.66
                             1951.62  1956.71  1968.43  1980.46  1993.66
                             2004.27  2030.39  2042.64  2048.17  2060.49
                             2080.25  2107.39  2153.24  2173.03  2178.56
                             2182.79  2189.41  2195.83  2201.36  2215.17
                             2223.82  2238.60  4220.03  4226.21  4230.72
                             4234.94  4326.12  4344.67  4346.40  4375.37
                             4381.92  4388.45  4410.26  4411.92  4415.04
                             4415.25  4417.37  4419.35  4432.01  4440.04
                             4445.86  4473.28  4489.10  4511.41  4523.54
                             5083.08

 Zero-point correction=                           0.364308 (Hartree/Particle)
 Thermal correction to Energy=                    0.378115
 Thermal correction to Enthalpy=                  0.379059
 Thermal correction to Gibbs Free Energy=         0.323132
 Sum of electronic and zero-point Energies=           -619.031333
 Sum of electronic and thermal Energies=              -619.017526
 Sum of electronic and thermal Enthalpies=            -619.016582
 Sum of electronic and thermal Free Energies=         -619.072509

                     E (Thermal)             CV                S
                      KCal/Mol        Cal/Mol-Kelvin    Cal/Mol-Kelvin
 Total                  237.271             55.931            117.709
 Electronic               0.000              0.000              0.000
 Translational            0.889              2.981             41.904
 Rotational               0.889              2.981             32.012
 Vibrational            235.493             49.969             43.793
 Vibration     1          0.593              1.986              6.669
 Vibration     2          0.597              1.971              4.287
 Vibration     3          0.601              1.959              3.761
 Vibration     4          0.603              1.951              3.508
 Vibration     5          0.611              1.924              2.962
 Vibration     6          0.630              1.866              2.320
 Vibration     7          0.633              1.856              2.244
 Vibration     8          0.643              1.823              2.030
 Vibration     9          0.656              1.784              1.827
 Vibration    10          0.691              1.679              1.433
 Vibration    11          0.720              1.596              1.213
 Vibration    12          0.730              1.567              1.149
 Vibration    13          0.744              1.528              1.069
 Vibration    14          0.767              1.468              0.959
 Vibration    15          0.790              1.408              0.863
 Vibration    16          0.850              1.263              0.673
 Vibration    17          0.857              1.247              0.655
 Vibration    18          0.906              1.138              0.543
 Vibration    19          0.923              1.103              0.511
 Vibration    20          0.941              1.066              0.478

 Optimization completed.
    -- Stationary point found.
 Normal termination of Gaussian 16 at Thu Dec 10 17:49:01 2020.

 ----------------------------------------------------------------------
 # B3LYP/6-311++G(d,p) empiricaldispersion=gd3bj scf=xqc pop=npa geom=c
 heck
 ----------------------------------------------------------------------

 --------------------------------------
 CID_65321048_JID_5739_Energie_neutraal
 --------------------------------------
 Structure from the checkpoint file:  "JID_5739.chk"
 Charge =  0 Multiplicity = 1

 SCF Done:  E(RB3LYP) =  -619.562037006     A.U. after   14 cycles
 Normal termination of Gaussian 16 at Thu Dec 10 17:55:29 2020.

 ----------------------------------------------------------------------
 # B3LYP/6-311++G(d,p) empiricaldispersion=gd3bj scf=xqc pop=npa geom=c
 heck
 ----------------------------------------------------------------------

 ------------------------------------
 CID_65321048_JID_5739_Energie_kation
 ------------------------------------
 Structure from the checkpoint file:  "JID_5739.chk"
 Charge =  1 Multiplicity = 2

 SCF Done:  E(UB3LYP) =  -619.305208245     A.U. after   18 cycles
 Normal termination of Gaussian 16 at Thu Dec 10 18:07:00 2020.
 Gaussian 16:  ES64L-G16RevA.03 25-Dec-2016

 ----------------------------------------------------------------------
 # B3LYP/6-311++G(d,p) empiricaldispersion=gd3bj scf=xqc pop=npa geom=c
 heck
 ----------------------------------------------------------------------

 -----------------------------------
 CID_65321048_JID_5739_Energie_anion
 -----------------------------------
 Structure from the checkpoint file:  "JID_5739.chk"
 Charge = -1 Multiplicity = 2

                         Standard orientation:
 ---------------------------------------------------------------------
 Center     Atomic      Atomic             Coordinates (Angstroms)
 Number     Number       Type             X           Y           Z
 ---------------------------------------------------------------------
      1          6           0        2.401644   -2.264447   -0.013590
      2          6           0        3.017225   -1.058263   -0.785790
      3          6           0        2.371774    0.168621   -0.133469
      4          6           0        2.353663    1.490463   -0.889751
      5          6           0        1.522821    2.497757   -0.080016
      6          6           0        0.132536    1.934421    0.244516
      7          7           0        0.218229    0.659160    0.950945
      8          6           0        0.947017   -0.327006    0.162052
      9          6           0        1.209806   -1.690036    0.805823
     10          6           0       -0.976897    0.230407    1.662676
     11          6           0       -2.256848   -0.204109    0.909432
     12          6           0       -2.942519    0.858612    0.004339
     13          6           0       -2.804964    0.308521   -1.424885
     14          6           0       -2.841908   -1.202350   -1.189533
     15          7           0       -2.006246   -1.345502    0.003350
     16          1           0        3.138205   -2.733949    0.646317
     17          1           0        2.063717   -3.040490   -0.707997
     18          1           0        4.110951   -1.037023   -0.738327
     19          1           0        2.743004   -1.102059   -1.847710
     20          1           0        2.848177    0.340190    0.844016
     21          1           0        1.893177    1.339488   -1.877848
     22          1           0        3.367621    1.872394   -1.064274
     23          1           0        1.408620    3.441342   -0.628313
     24          1           0        2.040957    2.723700    0.860599
     25          1           0       -0.415481    2.641985    0.878186
     26          1           0       -0.426689    1.849484   -0.706829
     27          1           0        0.443486   -0.505025   -0.807073
     28          1           0        1.497893   -1.541647    1.854251
     29          1           0        0.332223   -2.339066    0.782911
     30          1           0       -0.684734   -0.608672    2.306062
     31          1           0       -1.261949    1.048009    2.341229
     32          1           0       -2.968497   -0.479713    1.708641
     33          1           0       -4.004051    0.926128    0.267481
     34          1           0       -2.519254    1.857142    0.124568
     35          1           0       -1.837639    0.587292   -1.856952
     36          1           0       -3.594229    0.656715   -2.097811
     37          1           0       -2.426831   -1.780392   -2.023172
     38          1           0       -3.887636   -1.530830   -1.039531
     39          1           0       -2.145013   -2.236158    0.470694
 ---------------------------------------------------------------------

 SCF Done:  E(UB3LYP) =  -619.547010512     A.U. after   31 cycles

 The electronic state is 2-A.
 Alpha  occ. eigenvalues --  -14.19572 -14.18263 -10.08978 -10.08598 -10.08453
 Alpha  occ. eigenvalues --  -10.08233 -10.08139 -10.06943 -10.06871 -10.06857
 Alpha  occ. eigenvalues --  -10.06807 -10.06544 -10.05987 -10.05786 -10.05767
 Alpha  occ. eigenvalues --   -0.82702  -0.80341  -0.73344  -0.69150  -0.65553
 Alpha  occ. eigenvalues --   -0.63911  -0.61909  -0.59974  -0.57149  -0.51912
 Alpha  occ. eigenvalues --   -0.49503  -0.47960  -0.47261  -0.46131  -0.44233
 Alpha  occ. eigenvalues --   -0.41024  -0.38614  -0.37599  -0.37142  -0.35959
 Alpha  occ. eigenvalues --   -0.34444  -0.33319  -0.32348  -0.32149  -0.30877
 Alpha  occ. eigenvalues --   -0.30083  -0.29344  -0.28772  -0.27226  -0.26588
 Alpha  occ. eigenvalues --   -0.25433  -0.24227  -0.24119  -0.23951  -0.23318
 Alpha  occ. eigenvalues --   -0.22735  -0.22176  -0.22079  -0.21774  -0.21240
 Alpha  occ. eigenvalues --   -0.20076  -0.12672  -0.09396   0.04469
 Alpha virt. eigenvalues --    0.06316   0.06847   0.07249   0.08207   0.08294
 Alpha virt. eigenvalues --    0.08808   0.09318   0.09527   0.10569   0.10725
 Alpha virt. eigenvalues --    0.11247   0.11404   0.11568   0.12074   0.12839

  Beta  occ. eigenvalues --  -14.19573 -14.18239 -10.08968 -10.08582 -10.08449
  Beta  occ. eigenvalues --  -10.08222 -10.08113 -10.06935 -10.06862 -10.06848
  Beta  occ. eigenvalues --  -10.06799 -10.06540 -10.05973 -10.05777 -10.05747
  Beta  occ. eigenvalues --   -0.82690  -0.80308  -0.73332  -0.69133  -0.65507
  Beta  occ. eigenvalues --   -0.63876  -0.61889  -0.59953  -0.57113  -0.51883
  Beta  occ. eigenvalues --   -0.49477  -0.47895  -0.47220  -0.46103  -0.44195
  Beta  occ. eigenvalues --   -0.40951  -0.38597  -0.37577  -0.37108  -0.35936
  Beta  occ. eigenvalues --   -0.34416  -0.33302  -0.32327  -0.32113  -0.30848
  Beta  occ. eigenvalues --   -0.30064  -0.29324  -0.28739  -0.27197  -0.26538
  Beta  occ. eigenvalues --   -0.25406  -0.24202  -0.24097  -0.23931  -0.23289
  Beta  occ. eigenvalues --   -0.22715  -0.22145  -0.22061  -0.21747  -0.21221
  Beta  occ. eigenvalues --   -0.20055  -0.12636  -0.09373
  Beta virt. eigenvalues --    0.06315   0.07225   0.07257   0.07593   0.08651
  Beta virt. eigenvalues --    0.08964   0.09200   0.09535   0.09788   0.10936
  Beta virt. eigenvalues --    0.11258   0.11548   0.11616   0.11883   0.12264

 Mulliken charges and spin densities:
               1          2
     1  C    0.323835  -0.895310
     2  C   -0.510675  -0.117160
     3  C    0.722419   0.032367
     4  C   -0.621590   0.277335
     5  C    0.501760  -1.020767
     6  C   -0.336901   0.199105
     7  N    0.403290  -0.032993
     8  C   -1.115329   0.304267
     9  C   -0.011198  -0.408066
    10  C   -0.588677   0.457378
    11  C    0.674525  -0.920930
    12  C    0.707698  -1.011423
    13  C   -0.198532  -0.100601
    14  C    0.935550  -1.316034
    15  N   -0.191335   0.105135
    16  H   -0.018770   0.159126
    17  H    0.013914   0.129443
    18  H    0.018039   0.131012
    19  H    0.005668   0.127601
    20  H    0.086201   0.099286
    21  H    0.023890   0.093165
    22  H   -0.020622   0.189844
    23  H   -0.138771   0.306563
    24  H    0.065157   0.054843
    25  H   -0.121976   0.300264
    26  H    0.397717  -0.329083
    27  H    0.696594  -0.427514
    28  H    0.076189   0.068642
    29  H    0.015201   0.099924
    30  H   -0.178348   0.351747
    31  H   -0.176110   0.324748
    32  H   -0.585642   0.767387
    33  H   -0.355109   0.543645
    34  H   -0.296743   0.432836
    35  H   -0.182609   0.273730
    36  H   -0.323592   0.504980
    37  H   -0.183893   0.330642
    38  H   -0.369003   0.506422
    39  H   -0.142220   0.408445
 Sum of Mulliken charges =  -1.00000   1.00000

 Dipole moment (field-independent basis, Debye):
    X=              6.7926    Y=              1.3857    Z=             -0.8891  Tot=              6.9892
 Quadrupole moment (field-independent basis, Debye-Ang):
   XX=           -173.9136   YY=           -142.4060   ZZ=           -133.1460
   XY=             -4.1133   XZ=              2.4176   YZ=              0.1755

 Summary of Natural Population Analysis:

                                       Natural Population
                Natural  -----------------------------------------------
    Atom  No    Charge         Core      Valence    Rydberg      Total
 -----------------------------------------------------------------------
      C    1   -0.18871      0.99965     2.18249    0.00657     3.18871
      C    2   -0.18730      0.99962     2.18074    0.00694     3.18730
      C    3   -0.11320      0.99956     2.10278    0.01087     3.11320
      C    4   -0.18761      0.99960     2.17975    0.00826     3.18761
      C    5   -0.18961      0.99963     2.18179    0.00819     3.18961
      C    6   -0.08242      0.99961     2.07218    0.01063     3.08242
      N    7   -0.28410      0.99968     2.77133    0.01309     3.78410
      C    8   -0.00023      0.99953     1.98732    0.01337     3.00023
      C    9   -0.19531      0.99961     2.18679    0.00891     3.19531
      C   10   -0.07884      0.99958     2.06542    0.01384     3.07884
      C   11   -0.01429      0.99960     2.00033    0.01437     3.01429
      C   12   -0.19705      0.99962     2.18875    0.00869     3.19705
      C   13   -0.19392      0.99963     2.18634    0.00795     3.19392
      C   14   -0.08250      0.99963     2.07202    0.01086     3.08250
      N   15   -0.35333      0.99974     2.83997    0.01363     3.85333
      H   16    0.09491      0.00000     0.40404    0.00105     0.40509
      H   17    0.09709      0.00000     0.40181    0.00110     0.40291
      H   18    0.09684      0.00000     0.40220    0.00096     0.40316
      H   19    0.09455      0.00000     0.40422    0.00123     0.40545
      H   20    0.09391      0.00000     0.40402    0.00207     0.40609
      H   21    0.09392      0.00000     0.40478    0.00131     0.40608
      H   22    0.09661      0.00000     0.40250    0.00089     0.40339
      H   23    0.09666      0.00000     0.40251    0.00084     0.40334
      H   24    0.09456      0.00000     0.40406    0.00138     0.40544
      H   25    0.09675      0.00000     0.40205    0.00121     0.40325
      H   26    0.07868      0.00000     0.41885    0.00246     0.42132
      H   27    0.08762      0.00000     0.40996    0.00242     0.41238
      H   28    0.09499      0.00000     0.40356    0.00145     0.40501
      H   29    0.10776      0.00000     0.39078    0.00146     0.39224
      H   30    0.09589      0.00000     0.40264    0.00147     0.40411
      H   31    0.09306      0.00000     0.40569    0.00126     0.40694
      H   32    0.08661      0.00000     0.41054    0.00286     0.41339
      H   33    0.10108      0.00000     0.39681    0.00211     0.39892
      H   34    0.10102      0.00000     0.39760    0.00138     0.39898
      H   35    0.09408      0.00000     0.40395    0.00196     0.40592
      H   36    0.09995      0.00000     0.39896    0.00109     0.40005
      H   37    0.09149      0.00000     0.40736    0.00115     0.40851
      H   38    0.08001      0.00000     0.41779    0.00220     0.41999
      H   39    0.18040      0.00000     0.31577    0.00383     0.31960
 =======================================================================
   * Total *   -0.00000     14.99428    42.81043    0.19528    58.00000

 Normal termination of Gaussian 16 at Thu Dec 10 18:25:35 2020.
