 Gaussian 16, Revision A.03,

 -----------------------------------------------------------
 # opt freq B3LYP/6-31G(d) empiricaldispersion=gd3bj scf=xqc
 -----------------------------------------------------------

 ------------------------------
 CID_84187471_JID_8932_neutraal
 ------------------------------
 Symbolic Z-matrix:
 Charge =  0 Multiplicity = 1

 SCF Done:  E(RB3LYP) =  -1126.10804466     A.U. after   15 cycles
 SCF Done:  E(RB3LYP) =  -1126.11295298     A.U. after   13 cycles
 SCF Done:  E(RB3LYP) =  -1126.11470339     A.U. after   13 cycles
 SCF Done:  E(RB3LYP) =  -1126.11528029     A.U. after   13 cycles
 SCF Done:  E(RB3LYP) =  -1126.11646480     A.U. after   14 cycles
 SCF Done:  E(RB3LYP) =  -1126.11606992     A.U. after   13 cycles
 SCF Done:  E(RB3LYP) =  -1126.11686873     A.U. after   13 cycles
 SCF Done:  E(RB3LYP) =  -1126.11705206     A.U. after   13 cycles
 SCF Done:  E(RB3LYP) =  -1126.11718245     A.U. after   12 cycles
 SCF Done:  E(RB3LYP) =  -1126.11723530     A.U. after   12 cycles
 SCF Done:  E(RB3LYP) =  -1126.11728432     A.U. after   11 cycles
 SCF Done:  E(RB3LYP) =  -1126.11728706     A.U. after   10 cycles
 SCF Done:  E(RB3LYP) =  -1126.11728809     A.U. after    8 cycles
 SCF Done:  E(RB3LYP) =  -1126.11728823     A.U. after   10 cycles
 SCF Done:  E(RB3LYP) =  -1126.11728828     A.U. after    8 cycles
 SCF Done:  E(RB3LYP) =  -1126.11728827     A.U. after    7 cycles
 Optimization completed.
    -- Stationary point found.
 Normal termination of Gaussian 16 at Fri Dec 11 23:04:56 2020.

 --------------------------------------------------------------------
 #N Geom=AllCheck Guess=TCheck SCRF=Check GenChk RB3LYP/6-31G(d) Freq
 --------------------------------------------------------------------

 Structure from the checkpoint file:  "JID_8932.chk"
 ------------------------------
 CID_84187471_JID_8932_neutraal
 ------------------------------
 Charge =  0 Multiplicity = 1

 SCF Done:  E(RB3LYP) =  -1126.11728827     A.U. after    1 cycles

  Exact polarizability: 300.290   2.269 178.574  11.031  -1.380 105.168
 Approx polarizability: 396.940   6.100 334.459  26.625  -4.213 162.142

                      1                      2                      3
                      A                      A                      A
 Frequencies --     17.1346                36.5731                42.3423
 Red. masses --      4.8176                 4.3500                 3.1032
 Frc consts  --      0.0008                 0.0034                 0.0033
 IR Inten    --      0.4607                 2.2586                 0.0396

                      4                      5                      6
                      A                      A                      A
 Frequencies --     67.5133                78.6597               117.9061
 Red. masses --      3.0496                 4.4036                 6.0633
 Frc consts  --      0.0082                 0.0161                 0.0497
 IR Inten    --      0.6197                 4.6728                 0.4811

                      7                      8                      9
                      A                      A                      A
 Frequencies --    138.8334               152.0931               187.6053
 Red. masses --      4.7331                 3.1499                 1.1494
 Frc consts  --      0.0538                 0.0429                 0.0238
 IR Inten    --      1.0465                 2.0192                 0.0450

                     10                     11                     12
                      A                      A                      A
 Frequencies --    228.6135               240.0093               251.7021
 Red. masses --      7.4926                 5.3666                 1.0647
 Frc consts  --      0.2307                 0.1821                 0.0397
 IR Inten    --      4.0192                 3.7356                 0.1954

                     13                     14                     15
                      A                      A                      A
 Frequencies --    259.2531               265.7444               280.4619
 Red. masses --      2.4675                 3.1950                 1.9102
 Frc consts  --      0.0977                 0.1329                 0.0885
 IR Inten    --      3.2973                 0.5952                 3.4402

                     16                     17                     18
                      A                      A                      A
 Frequencies --    284.9740               321.1110               344.6402
 Red. masses --      2.1949                 3.3655                 3.0544
 Frc consts  --      0.1050                 0.2045                 0.2138
 IR Inten    --      0.7626                 2.5732                 1.1005

                     19                     20                     21
                      A                      A                      A
 Frequencies --    351.9896               381.5046               424.2731
 Red. masses --      4.3733                 3.5013                 3.1110
 Frc consts  --      0.3192                 0.3003                 0.3299
 IR Inten    --      0.3032                 1.4346                 0.1082

                     22                     23                     24
                      A                      A                      A
 Frequencies --    453.3691               477.5538               503.1369
 Red. masses --      4.1028                 4.9182                 5.5319
 Frc consts  --      0.4969                 0.6609                 0.8251
 IR Inten    --      1.1765                 7.8161                 1.7069

                     25                     26                     27
                      A                      A                      A
 Frequencies --    553.0957               568.5498               601.2078
 Red. masses --      3.3848                 5.1044                 3.8804
 Frc consts  --      0.6101                 0.9722                 0.8264
 IR Inten    --      8.2306                 1.0491                 4.7327

                     28                     29                     30
                      A                      A                      A
 Frequencies --    631.5174               652.5682               664.7165
 Red. masses --      3.7963                 6.9239                 5.1824
 Frc consts  --      0.8920                 1.7372                 1.3491
 IR Inten    --      8.3447                 1.9068                13.3712

                     31                     32                     33
                      A                      A                      A
 Frequencies --    724.4926               764.6445               775.9894
 Red. masses --      5.3447                 6.6262                 4.6222
 Frc consts  --      1.6529                 2.2826                 1.6399
 IR Inten    --      7.7304                 3.0696                 8.8946

                     34                     35                     36
                      A                      A                      A
 Frequencies --    830.3341               846.4508               870.0248
 Red. masses --      7.1912                 1.3963                 1.4162
 Frc consts  --      2.9212                 0.5894                 0.6316
 IR Inten    --     65.7703                11.4582                 8.0559

                     37                     38                     39
                      A                      A                      A
 Frequencies --    879.1707               901.5165               948.1538
 Red. masses --      1.3900                 2.5147                 1.1564
 Frc consts  --      0.6330                 1.2042                 0.6125
 IR Inten    --     14.7270                 4.7401                 1.0667

                     40                     41                     42
                      A                      A                      A
 Frequencies --    967.3922               995.8507              1003.8075
 Red. masses --      1.4420                 1.3230                 1.7158
 Frc consts  --      0.7951                 0.7730                 1.0186
 IR Inten    --      0.1815                 0.0669                 0.9600

                     43                     44                     45
                      A                      A                      A
 Frequencies --   1004.3598              1015.3852              1041.5490
 Red. masses --      6.1545                 1.3406                 3.7824
 Frc consts  --      3.6578                 0.8143                 2.4175
 IR Inten    --      4.9067                 0.3382                15.9188

                     46                     47                     48
                      A                      A                      A
 Frequencies --   1089.5965              1091.2454              1119.0498
 Red. masses --      1.3360                 1.7811                 3.7661
 Frc consts  --      0.9345                 1.2497                 2.7787
 IR Inten    --     18.6578                 1.2325                 0.4813

                     49                     50                     51
                      A                      A                      A
 Frequencies --   1139.7669              1143.3900              1144.9149
 Red. masses --      2.5294                 2.1784                 1.5772
 Frc consts  --      1.9360                 1.6780                 1.2181
 IR Inten    --      1.9926                 2.5422                 6.2662

                     52                     53                     54
                      A                      A                      A
 Frequencies --   1158.7698              1201.9004              1207.1245
 Red. masses --      1.3075                 1.9068                 2.3351
 Frc consts  --      1.0344                 1.6229                 2.0047
 IR Inten    --      0.0565                14.0348                 6.5434

                     55                     56                     57
                      A                      A                      A
 Frequencies --   1229.7386              1284.2653              1301.9548
 Red. masses --      1.1895                 2.2767                 1.2718
 Frc consts  --      1.0598                 2.2124                 1.2702
 IR Inten    --     11.4374               119.3968                53.8085

                     58                     59                     60
                      A                      A                      A
 Frequencies --   1331.9781              1340.6448              1352.8453
 Red. masses --      8.2500                 1.7105                 1.3445
 Frc consts  --      8.6238                 1.8114                 1.4498
 IR Inten    --     20.9315                14.0934                 0.3555

                     61                     62                     63
                      A                      A                      A
 Frequencies --   1359.7375              1383.5013              1429.1931
 Red. masses --      2.6434                 4.1962                 1.2568
 Frc consts  --      2.8796                 4.7322                 1.5125
 IR Inten    --     35.4481                54.3156                 5.7352

                     64                     65                     66
                      A                      A                      A
 Frequencies --   1442.2213              1446.7241              1453.7871
 Red. masses --      4.5751                 1.2253                 2.7062
 Frc consts  --      5.6068                 1.5110                 3.3699
 IR Inten    --     25.2277                 2.2197                39.6936

                     67                     68                     69
                      A                      A                      A
 Frequencies --   1474.1154              1495.5696              1512.8169
 Red. masses --      1.4076                 1.3972                 1.0439
 Frc consts  --      1.8022                 1.8413                 1.4076
 IR Inten    --      3.2937                 2.1546                 2.3475

                     70                     71                     72
                      A                      A                      A
 Frequencies --   1513.1687              1519.3977              1523.2191
 Red. masses --      1.0410                 2.8216                 1.0513
 Frc consts  --      1.4043                 3.8378                 1.4371
 IR Inten    --      9.4529               135.7820                 0.4703

                     73                     74                     75
                      A                      A                      A
 Frequencies --   1528.6328              1539.3199              1545.6093
 Red. masses --      1.0449                 1.0478                 1.3456
 Frc consts  --      1.4386                 1.4629                 1.8940
 IR Inten    --      5.5945                 6.8379                83.9249

                     76                     77                     78
                      A                      A                      A
 Frequencies --   1552.9419              1556.1987              1608.0513
 Red. masses --      2.3504                 3.5477                 6.6786
 Frc consts  --      3.3397                 5.0620                10.1751
 IR Inten    --     16.1786               112.5211                21.3015

                     79                     80                     81
                      A                      A                      A
 Frequencies --   1655.3832              1768.1789              2931.7024
 Red. masses --      5.3201                 8.8091                 1.0806
 Frc consts  --      8.5894                16.2269                 5.4722
 IR Inten    --      2.9021               198.8880               172.2846

                     82                     83                     84
                      A                      A                      A
 Frequencies --   3044.2203              3049.6785              3061.4673
 Red. masses --      1.0386                 1.0393                 1.0838
 Frc consts  --      5.6709                 5.6953                 5.9848
 IR Inten    --     17.0857                39.9129                15.1034

                     85                     86                     87
                      A                      A                      A
 Frequencies --   3070.7988              3110.6818              3115.8377
 Red. masses --      1.0329                 1.0975                 1.0980
 Frc consts  --      5.7386                 6.2572                 6.2806
 IR Inten    --     57.3347                 2.2203                54.1567

                     88                     89                     90
                      A                      A                      A
 Frequencies --   3136.4032              3138.4549              3139.1525
 Red. masses --      1.1034                 1.1066                 1.1028
 Frc consts  --      6.3951                 6.4221                 6.4030
 IR Inten    --     14.5112                11.4346                28.7927

                     91                     92                     93
                      A                      A                      A
 Frequencies --   3161.9546              3209.5451              3210.9966
 Red. masses --      1.1040                 1.0896                 1.0905
 Frc consts  --      6.5035                 6.6134                 6.6248
 IR Inten    --      7.7436                 6.6727                 4.1670

                     94                     95                     96
                      A                      A                      A
 Frequencies --   3237.6207              3246.0648              3257.3047
 Red. masses --      1.0924                 1.0926                 1.0972
 Frc consts  --      6.7463                 6.7831                 6.8587
 IR Inten    --      2.6194                35.6156                 6.3004

 - Thermochemistry -
 -------------------
 Temperature   298.150 Kelvin.  Pressure   1.00000 Atm.
 Atom     1 has atomic number  6 and mass  12.00000

 Molecular mass:   260.09834 amu.
 Principal axes and moments of inertia in atomic units:
                           1         2         3
     Eigenvalues --  1946.03686********************
           X            0.99995  -0.00085  -0.01033
           Y            0.00086   1.00000   0.00169
           Z            0.01033  -0.00170   0.99995
 This molecule is an asymmetric top.
 Rotational symmetry number  1.
 Warning -- assumption of classical behavior for rotation
           may cause significant error
 Rotational temperatures (Kelvin)      0.04451     0.00806     0.00741
 Rotational constants (GHZ):           0.92739     0.16787     0.15446
 Zero-point vibrational energy     728015.0 (Joules/Mol)
                                  173.99977 (Kcal/Mol)
 Warning -- explicit consideration of  27 degrees of freedom as
           vibrations may cause significant error
 Vibrational temperatures:     24.65    52.62    60.92    97.14   113.17
          (Kelvin)            169.64   199.75   218.83   269.92   328.92
                              345.32   362.14   373.01   382.35   403.52
                              410.01   462.01   495.86   506.43   548.90
                              610.43   652.30   687.09   723.90   795.78
                              818.02   865.00   908.61   938.90   956.38
                             1042.38  1100.15  1116.48  1194.67  1217.85
                             1251.77  1264.93  1297.08  1364.18  1391.86
                             1432.81  1444.26  1445.05  1460.91  1498.56
                             1567.69  1570.06  1610.06  1639.87  1645.08
                             1647.28  1667.21  1729.27  1736.78  1769.32
                             1847.77  1873.22  1916.42  1928.89  1946.44
                             1956.36  1990.55  2056.29  2075.03  2081.51
                             2091.68  2120.92  2151.79  2176.61  2177.11
                             2186.07  2191.57  2199.36  2214.74  2223.79
                             2234.34  2239.02  2313.63  2381.73  2544.02
                             4218.07  4379.95  4387.81  4404.77  4418.19
                             4475.58  4483.00  4512.58  4515.54  4516.54
                             4549.35  4617.82  4619.91  4658.21  4670.36
                             4686.53

 Zero-point correction=                           0.277286 (Hartree/Particle)
 Thermal correction to Energy=                    0.294816
 Thermal correction to Enthalpy=                  0.295760
 Thermal correction to Gibbs Free Energy=         0.230145
 Sum of electronic and zero-point Energies=          -1125.840002
 Sum of electronic and thermal Energies=             -1125.822473
 Sum of electronic and thermal Enthalpies=           -1125.821528
 Sum of electronic and thermal Free Energies=        -1125.887143

                     E (Thermal)             CV                S
                      KCal/Mol        Cal/Mol-Kelvin    Cal/Mol-Kelvin
 Total                  185.000             65.523            138.099
 Electronic               0.000              0.000              0.000
 Translational            0.889              2.981             42.567
 Rotational               0.889              2.981             33.857
 Vibrational            183.222             59.562             61.674
 Vibration     1          0.593              1.986              6.941
 Vibration     2          0.594              1.982              5.437
 Vibration     3          0.595              1.980              5.146
 Vibration     4          0.598              1.970              4.225
 Vibration     5          0.600              1.964              3.924
 Vibration     6          0.608              1.934              3.134
 Vibration     7          0.614              1.915              2.820
 Vibration     8          0.619              1.900              2.646
 Vibration     9          0.632              1.857              2.251
 Vibration    10          0.651              1.797              1.890
 Vibration    11          0.657              1.779              1.803
 Vibration    12          0.664              1.760              1.719
 Vibration    13          0.668              1.747              1.667
 Vibration    14          0.672              1.736              1.624
 Vibration    15          0.680              1.710              1.531
 Vibration    16          0.683              1.702              1.504
 Vibration    17          0.707              1.633              1.304
 Vibration    18          0.723              1.586              1.191
 Vibration    19          0.729              1.571              1.157
 Vibration    20          0.751              1.510              1.033
 Vibration    21          0.786              1.417              0.878
 Vibration    22          0.812              1.353              0.786
 Vibration    23          0.834              1.300              0.717
 Vibration    24          0.858              1.243              0.650
 Vibration    25          0.908              1.133              0.538
 Vibration    26          0.925              1.099              0.507
 Vibration    27          0.959              1.029              0.448

                           ! Non-Optimized Parameters !
 Normal termination of Gaussian 16 at Fri Dec 11 23:18:19 2020.

 ----------------------------------------------------------------------
 # B3LYP/6-311++G(d,p) empiricaldispersion=gd3bj scf=xqc pop=npa geom=c
 heck
 ----------------------------------------------------------------------

 --------------------------------------
 CID_84187471_JID_8932_Energie_neutraal
 --------------------------------------
 Structure from the checkpoint file:  "JID_8932.chk"
 Charge =  0 Multiplicity = 1

 SCF Done:  E(RB3LYP) =  -1126.33406296     A.U. after   16 cycles
 Normal termination of Gaussian 16 at Fri Dec 11 23:23:48 2020.

 ----------------------------------------------------------------------
 # B3LYP/6-311++G(d,p) empiricaldispersion=gd3bj scf=xqc pop=npa geom=c
 heck
 ----------------------------------------------------------------------

 ------------------------------------
 CID_84187471_JID_8932_Energie_kation
 ------------------------------------
 Structure from the checkpoint file:  "JID_8932.chk"
 Charge =  1 Multiplicity = 2

 SCF Done:  E(UB3LYP) =  -1126.04991030     A.U. after   28 cycles
 Normal termination of Gaussian 16 at Fri Dec 11 23:36:41 2020.
 Gaussian 16:  ES64L-G16RevA.03 25-Dec-2016

 ----------------------------------------------------------------------
 # B3LYP/6-311++G(d,p) empiricaldispersion=gd3bj scf=xqc pop=npa geom=c
 heck
 ----------------------------------------------------------------------

 -----------------------------------
 CID_84187471_JID_8932_Energie_anion
 -----------------------------------
 Structure from the checkpoint file:  "JID_8932.chk"
 Charge = -1 Multiplicity = 2

                         Standard orientation:
 ---------------------------------------------------------------------
 Center     Atomic      Atomic             Coordinates (Angstroms)
 Number     Number       Type             X           Y           Z
 ---------------------------------------------------------------------
      1          6           0       -4.310638   -1.137031    1.465913
      2          6           0       -4.584242    0.131320    0.659935
      3          6           0       -4.104821    1.389759    1.380728
      4         16           0       -3.913900    0.017928   -1.076284
      5          6           0       -2.154451   -0.120486   -0.774078
      6          6           0       -1.350634    1.023174   -0.700686
      7          6           0        0.019751    0.921614   -0.474081
      8          6           0        0.622907   -0.337754   -0.321991
      9          6           0       -0.186874   -1.487211   -0.410892
     10          6           0       -1.552766   -1.379949   -0.636079
     11          6           0        2.059327   -0.526177   -0.080667
     12          6           0        3.129850    0.386155    0.065485
     13          7           0        4.259952   -0.420765    0.276177
     14          6           0        3.836402   -1.703574    0.248214
     15          7           0        2.540029   -1.808020    0.039673
     16          6           0        5.635725    0.002367    0.486989
     17          6           0        3.293889    1.825523    0.050496
     18          8           0        2.432369    2.678381   -0.116000
     19          1           0       -3.235603   -1.271800    1.624657
     20          1           0       -4.695701   -2.024329    0.954987
     21          1           0       -4.789372   -1.067068    2.450871
     22          1           0       -5.660595    0.212374    0.465641
     23          1           0       -3.021349    1.359509    1.536066
     24          1           0       -4.343968    2.291399    0.809461
     25          1           0       -4.583407    1.464182    2.365443
     26          1           0       -1.805050    2.000696   -0.825019
     27          1           0        0.626635    1.816005   -0.415024
     28          1           0        0.277032   -2.460275   -0.302033
     29          1           0       -2.165067   -2.272802   -0.709629
     30          1           0        4.517447   -2.533812    0.385812
     31          1           0        6.007792    0.566145   -0.373107
     32          1           0        5.722178    0.619324    1.385885
     33          1           0        6.250337   -0.891004    0.613762
     34          1           0        4.341724    2.152676    0.214104
 ---------------------------------------------------------------------

 SCF Done:  E(UB3LYP) =  -1126.36338636     A.U. after   23 cycles

 The electronic state is 2-A.
 Alpha  occ. eigenvalues --  -88.72379 -18.93349 -14.24103 -14.16453 -10.11558
 Alpha  occ. eigenvalues --  -10.10432 -10.09923 -10.07913 -10.06845 -10.06701
 Alpha  occ. eigenvalues --  -10.06459 -10.06149 -10.05488 -10.04704 -10.04588
 Alpha  occ. eigenvalues --  -10.04351 -10.03444 -10.02573  -7.80966  -5.77350
 Alpha  occ. eigenvalues --   -5.76999  -5.76355  -0.89489  -0.87035  -0.76896
 Alpha  occ. eigenvalues --   -0.73388  -0.70898  -0.65185  -0.63234  -0.61466
 Alpha  occ. eigenvalues --   -0.60594  -0.59473  -0.57065  -0.51326  -0.48753
 Alpha  occ. eigenvalues --   -0.48032  -0.45843  -0.44292  -0.42263  -0.38731
 Alpha  occ. eigenvalues --   -0.36610  -0.36596  -0.36279  -0.35055  -0.33344
 Alpha  occ. eigenvalues --   -0.33041  -0.31884  -0.31394  -0.30483  -0.29617
 Alpha  occ. eigenvalues --   -0.29028  -0.29011  -0.28845  -0.27478  -0.26272
 Alpha  occ. eigenvalues --   -0.25725  -0.25142  -0.24605  -0.23614  -0.21930
 Alpha  occ. eigenvalues --   -0.21100  -0.19967  -0.16634  -0.15012  -0.13331
 Alpha  occ. eigenvalues --   -0.12644  -0.11800  -0.09699  -0.08952   0.02567
 Alpha virt. eigenvalues --    0.06844   0.06908   0.08893   0.09111   0.09297
 Alpha virt. eigenvalues --    0.10149   0.10217   0.11215   0.11456   0.11738
 Alpha virt. eigenvalues --    0.12046   0.12262   0.12676   0.13289   0.13640

  Beta  occ. eigenvalues --  -88.72383 -18.92732 -14.23865 -14.16494 -10.11564
  Beta  occ. eigenvalues --  -10.10387 -10.09880 -10.07636 -10.06847 -10.06702
  Beta  occ. eigenvalues --  -10.06278 -10.06116 -10.05225 -10.04742 -10.04568
  Beta  occ. eigenvalues --  -10.04377 -10.03351 -10.02485  -7.80970  -5.77358
  Beta  occ. eigenvalues --   -5.77007  -5.76357  -0.89201  -0.85958  -0.76655
  Beta  occ. eigenvalues --   -0.73231  -0.70818  -0.64897  -0.63025  -0.61318
  Beta  occ. eigenvalues --   -0.60422  -0.59466  -0.56930  -0.50687  -0.48479
  Beta  occ. eigenvalues --   -0.47897  -0.45669  -0.44148  -0.42092  -0.38391
  Beta  occ. eigenvalues --   -0.36569  -0.36185  -0.36164  -0.34932  -0.33245
  Beta  occ. eigenvalues --   -0.32908  -0.31854  -0.31321  -0.30355  -0.29573
  Beta  occ. eigenvalues --   -0.28850  -0.28775  -0.28460  -0.27379  -0.25769
  Beta  occ. eigenvalues --   -0.25685  -0.24988  -0.24231  -0.21738  -0.21035
  Beta  occ. eigenvalues --   -0.20929  -0.19741  -0.15710  -0.14987  -0.12447
  Beta  occ. eigenvalues --   -0.12193  -0.11780  -0.09178  -0.07577
  Beta virt. eigenvalues --    0.06785   0.06850   0.07884   0.09040   0.09248
  Beta virt. eigenvalues --    0.09361   0.10120   0.10540   0.11167   0.11552
  Beta virt. eigenvalues --    0.12061   0.12273   0.12618   0.12859   0.13272

 Mulliken charges and spin densities:
               1          2
     1  C   -0.602065   0.006441
     2  C   -0.060425  -0.031879
     3  C   -0.590121   0.007342
     4  S   -0.286900   0.002938
     5  C    1.219226   0.129110
     6  C   -0.920214  -0.009539
     7  C   -0.710964   0.075714
     8  C    0.698370  -0.003059
     9  C   -0.411760   0.083546
    10  C   -0.629498  -0.021143
    11  C   -0.310063   0.130494
    12  C    0.116462   0.125435
    13  N    0.061368   0.067207
    14  C    0.339576   0.067541
    15  N   -0.097175  -0.021360
    16  C   -0.306691  -0.054225
    17  C   -0.399740   0.161682
    18  O   -0.414048   0.206434
    19  H    0.171353   0.000414
    20  H    0.133212   0.000835
    21  H    0.103911  -0.000603
    22  H    0.166619   0.023132
    23  H    0.179401  -0.000491
    24  H    0.130217   0.000076
    25  H    0.103805  -0.000208
    26  H    0.176165   0.001601
    27  H    0.234223  -0.009678
    28  H    0.190001  -0.003371
    29  H    0.152008   0.002306
    30  H    0.148778  -0.003019
    31  H    0.138359   0.041892
    32  H    0.135842   0.042953
    33  H    0.099753  -0.000192
    34  H    0.041015  -0.018326
 Sum of Mulliken charges =  -1.00000   1.00000

 Dipole moment (field-independent basis, Debye):
    X=             -1.2324    Y=             -2.7659    Z=              2.6688  Tot=              4.0363
 Quadrupole moment (field-independent basis, Debye-Ang):
   XX=           -143.5232   YY=           -142.7101   ZZ=           -127.8188
   XY=            -10.1835   XZ=             -5.1341   YZ=              0.1660

 Summary of Natural Population Analysis:

                                       Natural Population
                Natural  -----------------------------------------------
    Atom  No    Charge         Core      Valence    Rydberg      Total
 -----------------------------------------------------------------------
      C    1   -0.29350      0.99964     2.28797    0.00589     3.29350
      C    2   -0.15581      0.99959     2.14611    0.01011     3.15581
      C    3   -0.29364      0.99964     2.28808    0.00592     3.29364
      S    4    0.08324      4.99955     2.89715    0.02006     7.91676
      C    5   -0.08129      0.99941     2.06816    0.01372     3.08129
      C    6   -0.10858      0.99944     2.09886    0.01028     3.10858
      C    7   -0.08234      0.99956     2.07303    0.00976     3.08234
      C    8   -0.02293      0.99941     2.01363    0.00988     3.02293
      C    9   -0.06971      0.99947     2.06152    0.00872     3.06971
      C   10   -0.11621      0.99943     2.10625    0.01053     3.11621
      C   11    0.09426      0.99956     1.88694    0.01924     2.90574
      C   12    0.08388      0.99950     1.90404    0.01258     2.91612
      N   13   -0.18528      0.99964     2.67417    0.01147     3.68528
      C   14    0.11392      0.99965     1.86985    0.01659     2.88608
      N   15   -0.27162      0.99971     2.76040    0.01151     3.77162
      C   16   -0.17567      0.99966     2.16877    0.00725     3.17567
      C   17    0.19655      0.99973     1.77745    0.02627     2.80345
      O   18   -0.23587      0.99988     3.22770    0.00829     4.23587
      H   19    0.10814      0.00000     0.39092    0.00094     0.39186
      H   20    0.10033      0.00000     0.39862    0.00105     0.39967
      H   21    0.09260      0.00000     0.40633    0.00107     0.40740
      H   22    0.09185      0.00000     0.40593    0.00222     0.40815
      H   23    0.10882      0.00000     0.39025    0.00094     0.39118
      H   24    0.10112      0.00000     0.39786    0.00102     0.39888
      H   25    0.09252      0.00000     0.40642    0.00106     0.40748
      H   26    0.09796      0.00000     0.40083    0.00121     0.40204
      H   27    0.12518      0.00000     0.37294    0.00188     0.37482
      H   28    0.10734      0.00000     0.39069    0.00197     0.39266
      H   29    0.09662      0.00000     0.40201    0.00137     0.40338
      H   30    0.08172      0.00000     0.41713    0.00115     0.41828
      H   31    0.09800      0.00000     0.40052    0.00148     0.40200
      H   32    0.09790      0.00000     0.40061    0.00148     0.40210
      H   33    0.09290      0.00000     0.40614    0.00096     0.40710
      H   34    0.03289      0.00000     0.46455    0.00256     0.46711
 =======================================================================
   * Total *    0.00526     21.99245    46.76184    0.24046    68.99474

 Normal termination of Gaussian 16 at Fri Dec 11 23:47:18 2020.
