 Gaussian 16, Revision A.03,

 -----------------------------------------------------------
 # opt freq B3LYP/6-31G(d) empiricaldispersion=gd3bj scf=xqc
 -----------------------------------------------------------

 -------------------------------
 CID_117233542_JID_2201_neutraal
 -------------------------------
 Symbolic Z-matrix:
 Charge =  0 Multiplicity = 1

 SCF Done:  E(RB3LYP) =  -914.849309115     A.U. after   15 cycles
 SCF Done:  E(RB3LYP) =  -914.853391843     A.U. after   12 cycles
 SCF Done:  E(RB3LYP) =  -914.853403015     A.U. after   12 cycles
 SCF Done:  E(RB3LYP) =  -914.854352910     A.U. after   12 cycles
 SCF Done:  E(RB3LYP) =  -914.854441484     A.U. after   10 cycles
 SCF Done:  E(RB3LYP) =  -914.854462968     A.U. after   11 cycles
 SCF Done:  E(RB3LYP) =  -914.854475866     A.U. after   10 cycles
 SCF Done:  E(RB3LYP) =  -914.854484756     A.U. after   12 cycles
 SCF Done:  E(RB3LYP) =  -914.854486511     A.U. after   11 cycles
 SCF Done:  E(RB3LYP) =  -914.854487946     A.U. after    9 cycles
 SCF Done:  E(RB3LYP) =  -914.854489870     A.U. after    9 cycles
 SCF Done:  E(RB3LYP) =  -914.854490179     A.U. after    7 cycles
 SCF Done:  E(RB3LYP) =  -914.854490475     A.U. after    8 cycles
 Optimization completed.
    -- Stationary point found.
 Normal termination of Gaussian 16 at Wed Dec  9 16:54:55 2020.

 --------------------------------------------------------------------
 #N Geom=AllCheck Guess=TCheck SCRF=Check GenChk RB3LYP/6-31G(d) Freq
 --------------------------------------------------------------------

 Structure from the checkpoint file:  "JID_2201.chk"
 -------------------------------
 CID_117233542_JID_2201_neutraal
 -------------------------------
 Charge =  0 Multiplicity = 1

 SCF Done:  E(RB3LYP) =  -914.854490475     A.U. after    1 cycles

  Exact polarizability: 118.532 -15.259  96.293   7.300  11.012  93.639
 Approx polarizability: 172.676 -32.380 161.876  16.279  22.097 155.967

                      1                      2                      3
                      A                      A                      A
 Frequencies --     24.9245                70.8881                84.1030
 Red. masses --      3.8432                 6.6155                 6.5534
 Frc consts  --      0.0014                 0.0196                 0.0273
 IR Inten    --      0.4092                 0.1357                 0.9319

                      4                      5                      6
                      A                      A                      A
 Frequencies --    159.2830               208.7502               276.3176
 Red. masses --      3.9586                 2.4502                 4.5050
 Frc consts  --      0.0592                 0.0629                 0.2027
 IR Inten    --      2.4901                 1.7139                 1.2113

                      7                      8                      9
                      A                      A                      A
 Frequencies --    325.6983               360.8376               419.0921
 Red. masses --      2.8051                 3.1796                 2.4377
 Frc consts  --      0.1753                 0.2439                 0.2523
 IR Inten    --      0.6396                 3.0001                 2.2874

                     10                     11                     12
                      A                      A                      A
 Frequencies --    438.9091               489.4397               499.2171
 Red. masses --      3.1669                 3.8274                 5.9405
 Frc consts  --      0.3594                 0.5402                 0.8723
 IR Inten    --      5.4312                 3.8123                 1.3356

                     13                     14                     15
                      A                      A                      A
 Frequencies --    510.2883               559.8538               650.1037
 Red. masses --      2.8922                 5.3182                 3.6169
 Frc consts  --      0.4437                 0.9821                 0.9006
 IR Inten    --      2.1558                18.7603                 7.8023

                     16                     17                     18
                      A                      A                      A
 Frequencies --    680.1411               725.9947               759.5780
 Red. masses --      4.8667                 2.3885                 6.7226
 Frc consts  --      1.3264                 0.7417                 2.2852
 IR Inten    --      4.7008                 8.0462                30.6875

                     19                     20                     21
                      A                      A                      A
 Frequencies --    790.6582               800.7786               832.7511
 Red. masses --      1.6809                 1.6794                 3.3654
 Frc consts  --      0.6191                 0.6345                 1.3751
 IR Inten    --     21.0862                 1.5829                 2.6755

                     22                     23                     24
                      A                      A                      A
 Frequencies --    860.0558               876.1985               889.8800
 Red. masses --      3.6878                 3.1778                 2.4763
 Frc consts  --      1.6072                 1.4374                 1.1554
 IR Inten    --     14.1189                28.3452                 0.1678

                     25                     26                     27
                      A                      A                      A
 Frequencies --    900.2808               949.0375              1009.7415
 Red. masses --      1.4780                 3.4780                 2.7602
 Frc consts  --      0.7058                 1.8456                 1.6581
 IR Inten    --      8.8412                11.0211                20.1992

                     28                     29                     30
                      A                      A                      A
 Frequencies --   1027.0549              1043.8212              1062.4791
 Red. masses --      2.1262                 1.4374                 2.6084
 Frc consts  --      1.3214                 0.9228                 1.7348
 IR Inten    --     26.6808                 0.9918                66.6819

                     31                     32                     33
                      A                      A                      A
 Frequencies --   1109.2545              1139.9051              1158.4919
 Red. masses --      1.9010                 3.7720                 1.9858
 Frc consts  --      1.3782                 2.8878                 1.5703
 IR Inten    --     57.4056                 9.3045                 3.0974

                     34                     35                     36
                      A                      A                      A
 Frequencies --   1187.5032              1228.5786              1246.8974
 Red. masses --      2.1683                 1.2951                 1.3990
 Frc consts  --      1.8015                 1.1517                 1.2816
 IR Inten    --    113.3363                 5.7612                21.8377

                     37                     38                     39
                      A                      A                      A
 Frequencies --   1258.8455              1305.3216              1339.5746
 Red. masses --      1.3974                 1.3074                 1.2745
 Frc consts  --      1.3047                 1.3125                 1.3475
 IR Inten    --     45.4678                25.6206                14.8199

                     40                     41                     42
                      A                      A                      A
 Frequencies --   1365.5448              1377.7310              1385.6011
 Red. masses --      1.3649                 2.9844                 1.3303
 Frc consts  --      1.4995                 3.3376                 1.5048
 IR Inten    --      0.7249                59.5944                 2.0823

                     43                     44                     45
                      A                      A                      A
 Frequencies --   1408.0387              1415.2600              1419.2065
 Red. masses --      1.4689                 1.7667                 1.3714
 Frc consts  --      1.7159                 2.0849                 1.6275
 IR Inten    --      2.8419                 3.6549                13.9845

                     46                     47                     48
                      A                      A                      A
 Frequencies --   1447.6590              1456.3814              1490.3242
 Red. masses --      1.5874                 2.1309                 1.0903
 Frc consts  --      1.9600                 2.6629                 1.4268
 IR Inten    --     26.7502                13.3578                10.4716

                     49                     50                     51
                      A                      A                      A
 Frequencies --   1501.7605              1530.2187              1542.2841
 Red. masses --      1.0969                 1.0802                 1.1046
 Frc consts  --      1.4575                 1.4903                 1.5480
 IR Inten    --      7.6308                 0.9253                 1.7588

                     52                     53                     54
                      A                      A                      A
 Frequencies --   1593.4342              3025.9495              3031.9498
 Red. masses --      5.8884                 1.0683                 1.0679
 Frc consts  --      8.8088                 5.7633                 5.7840
 IR Inten    --     57.3473                25.1759                47.7444

                     55                     56                     57
                      A                      A                      A
 Frequencies --   3052.0249              3053.9089              3096.8121
 Red. masses --      1.0616                 1.0630                 1.0934
 Frc consts  --      5.8265                 5.8409                 6.1780
 IR Inten    --     11.8856                16.3332                24.2098

                     58                     59                     60
                      A                      A                      A
 Frequencies --   3098.7272              3101.6691              3109.4148
 Red. masses --      1.0976                 1.0957                 1.0991
 Frc consts  --      6.2096                 6.2104                 6.2611
 IR Inten    --     32.2111                43.0353                36.1999

                     61                     62                     63
                      A                      A                      A
 Frequencies --   3112.1177              3207.7336              3276.0188
 Red. masses --      1.0995                 1.0927                 1.0948
 Frc consts  --      6.2740                 6.6245                 6.9225
 IR Inten    --     62.0090                 6.9018                 2.0315

 - Thermochemistry -
 -------------------
 Temperature   298.150 Kelvin.  Pressure   1.00000 Atm.
 Atom     1 has atomic number  6 and mass  12.00000

 Molecular mass:   185.05105 amu.
 Principal axes and moments of inertia in atomic units:
                           1         2         3
     Eigenvalues --  1230.348053137.541983209.45924
           X            1.00000  -0.00254  -0.00029
           Y            0.00235   0.86914   0.49456
           Z           -0.00101  -0.49456   0.86914
 This molecule is an asymmetric top.
 Rotational symmetry number  1.
 Warning -- assumption of classical behavior for rotation
           may cause significant error
 Rotational temperatures (Kelvin)      0.07040     0.02761     0.02699
 Rotational constants (GHZ):           1.46685     0.57521     0.56232
 Zero-point vibrational energy     492624.0 (Joules/Mol)
                                  117.73996 (Kcal/Mol)
 Warning -- explicit consideration of  14 degrees of freedom as
           vibrations may cause significant error
 Vibrational temperatures:     35.86   101.99   121.01   229.17   300.35
          (Kelvin)            397.56   468.61   519.16   602.98   631.49
                              704.19   718.26   734.19   805.50   935.35
                              978.57  1044.54  1092.86  1137.58  1152.14
                             1198.14  1237.43  1260.65  1280.34  1295.30
                             1365.45  1452.79  1477.70  1501.83  1528.67
                             1595.97  1640.07  1666.81  1708.55  1767.65
                             1794.01  1811.20  1878.07  1927.35  1964.71
                             1982.25  1993.57  2025.85  2036.24  2041.92
                             2082.86  2095.41  2144.24  2160.70  2201.64
                             2219.00  2292.60  4353.67  4362.30  4391.18
                             4393.89  4455.62  4458.38  4462.61  4473.75
                             4477.64  4615.21  4713.46

 Zero-point correction=                           0.187631 (Hartree/Particle)
 Thermal correction to Energy=                    0.198002
 Thermal correction to Enthalpy=                  0.198946
 Thermal correction to Gibbs Free Energy=         0.150113
 Sum of electronic and zero-point Energies=           -914.666860
 Sum of electronic and thermal Energies=              -914.656489
 Sum of electronic and thermal Enthalpies=            -914.655545
 Sum of electronic and thermal Free Energies=         -914.704378

                     E (Thermal)             CV                S
                      KCal/Mol        Cal/Mol-Kelvin    Cal/Mol-Kelvin
 Total                  124.248             40.220            102.778
 Electronic               0.000              0.000              0.000
 Translational            0.889              2.981             41.553
 Rotational               0.889              2.981             30.894
 Vibrational            122.470             34.259             30.331
 Vibration     1          0.593              1.985              6.197
 Vibration     2          0.598              1.968              4.129
 Vibration     3          0.601              1.960              3.793
 Vibration     4          0.621              1.892              2.558
 Vibration     5          0.642              1.827              2.055
 Vibration     6          0.678              1.717              1.556
 Vibration     7          0.710              1.624              1.281
 Vibration     8          0.735              1.553              1.118
 Vibration     9          0.782              1.429              0.895
 Vibration    10          0.799              1.385              0.830
 Vibration    11          0.845              1.273              0.685
 Vibration    12          0.855              1.252              0.660
 Vibration    13          0.865              1.227              0.633
 Vibration    14          0.915              1.118              0.524

                           ! Non-Optimized Parameters !
 Normal termination of Gaussian 16 at Wed Dec  9 17:00:42 2020.

 ----------------------------------------------------------------------
 # B3LYP/6-311++G(d,p) empiricaldispersion=gd3bj scf=xqc pop=npa geom=c
 heck
 ----------------------------------------------------------------------

 ---------------------------------------
 CID_117233542_JID_2201_Energie_neutraal
 ---------------------------------------
 Structure from the checkpoint file:  "JID_2201.chk"
 Charge =  0 Multiplicity = 1

 SCF Done:  E(RB3LYP) =  -915.024715094     A.U. after   15 cycles
 Normal termination of Gaussian 16 at Wed Dec  9 17:03:27 2020.

 ----------------------------------------------------------------------
 # B3LYP/6-311++G(d,p) empiricaldispersion=gd3bj scf=xqc pop=npa geom=c
 heck
 ----------------------------------------------------------------------

 -------------------------------------
 CID_117233542_JID_2201_Energie_kation
 -------------------------------------
 Structure from the checkpoint file:  "JID_2201.chk"
 Charge =  1 Multiplicity = 2

 SCF Done:  E(UB3LYP) =  -914.702217327     A.U. after   25 cycles
 Normal termination of Gaussian 16 at Wed Dec  9 17:09:31 2020.
 Gaussian 16:  ES64L-G16RevA.03 25-Dec-2016

 ----------------------------------------------------------------------
 # B3LYP/6-311++G(d,p) empiricaldispersion=gd3bj scf=xqc pop=npa geom=c
 heck
 ----------------------------------------------------------------------

 ------------------------------------
 CID_117233542_JID_2201_Energie_anion
 ------------------------------------
 Structure from the checkpoint file:  "JID_2201.chk"
 Charge = -1 Multiplicity = 2

                         Standard orientation:
 ---------------------------------------------------------------------
 Center     Atomic      Atomic             Coordinates (Angstroms)
 Number     Number       Type             X           Y           Z
 ---------------------------------------------------------------------
      1          6           0       -1.878334   -0.590232   -1.267751
      2          6           0       -1.624258   -1.587716   -0.131390
      3          8           0       -2.264999   -1.172752    1.067494
      4          6           0       -1.718249    0.053707    1.533823
      5          6           0       -1.987374    1.188384    0.538913
      6          6           0       -1.554961    0.868429   -0.902198
      7          8           0       -0.187683    1.254840   -1.202747
      8          6           0        0.856627    0.655363   -0.563812
      9          6           0        1.569234   -0.421570   -1.033012
     10         16           0        2.851601   -0.770907    0.061230
     11          7           0        2.480925    0.489986    1.121060
     12          6           0        1.434628    1.136794    0.657025
     13          1           0       -2.946243   -0.631976   -1.515816
     14          1           0       -1.325295   -0.873363   -2.170879
     15          1           0       -2.049055   -2.564099   -0.382685
     16          1           0       -0.547803   -1.720973    0.047872
     17          1           0       -0.641913   -0.066220    1.725866
     18          1           0       -2.207827    0.263328    2.489312
     19          1           0       -1.515909    2.122232    0.865880
     20          1           0       -3.070421    1.362851    0.519976
     21          1           0       -2.103377    1.525689   -1.581722
     22          1           0        1.391896   -0.985226   -1.938462
     23          1           0        1.061437    1.996714    1.206009
 ---------------------------------------------------------------------

 SCF Done:  E(UB3LYP) =  -915.016158811     A.U. after   33 cycles
 SCF Done:  E(UB3LYP) =  -915.016158812     a.u. after    1 cycles

 The electronic state is 2-A.
 Alpha  occ. eigenvalues --  -88.76441 -19.02256 -19.01468 -14.19476 -10.11862
 Alpha  occ. eigenvalues --  -10.10562 -10.10492 -10.10407 -10.07761 -10.06690
 Alpha  occ. eigenvalues --  -10.06108 -10.06000  -7.84913  -5.81298  -5.80828
 Alpha  occ. eigenvalues --   -5.80468  -0.93833  -0.92833  -0.83018  -0.69068
 Alpha  occ. eigenvalues --   -0.65872  -0.65332  -0.61613  -0.54094  -0.53593
 Alpha  occ. eigenvalues --   -0.47677  -0.46486  -0.43211  -0.40642  -0.37534
 Alpha  occ. eigenvalues --   -0.36831  -0.35633  -0.33960  -0.33504  -0.32075
 Alpha  occ. eigenvalues --   -0.30317  -0.28950  -0.28454  -0.25962  -0.25374
 Alpha  occ. eigenvalues --   -0.24612  -0.24040  -0.23085  -0.20171  -0.18392
 Alpha  occ. eigenvalues --   -0.15308  -0.14903  -0.14769  -0.12262   0.04959
 Alpha virt. eigenvalues --    0.06929   0.08073   0.08764   0.09335   0.10680
 Alpha virt. eigenvalues --    0.10852   0.11289   0.11650   0.11959   0.12929
 Alpha virt. eigenvalues --    0.13837   0.14781   0.15080   0.15401   0.16175

  Beta  occ. eigenvalues --  -88.76402 -19.02260 -19.01462 -14.19159 -10.11845
  Beta  occ. eigenvalues --  -10.10559 -10.10498 -10.10391 -10.07702 -10.06432
  Beta  occ. eigenvalues --  -10.06090 -10.05972  -7.84878  -5.81283  -5.80814
  Beta  occ. eigenvalues --   -5.80332  -0.93812  -0.92819  -0.82633  -0.68995
  Beta  occ. eigenvalues --   -0.65794  -0.64971  -0.61415  -0.54001  -0.53546
  Beta  occ. eigenvalues --   -0.47532  -0.46108  -0.43060  -0.40564  -0.37470
  Beta  occ. eigenvalues --   -0.36796  -0.35575  -0.33897  -0.33429  -0.31940
  Beta  occ. eigenvalues --   -0.30206  -0.28427  -0.28357  -0.25753  -0.25317
  Beta  occ. eigenvalues --   -0.24386  -0.23973  -0.22906  -0.20060  -0.18167
  Beta  occ. eigenvalues --   -0.14853  -0.14628  -0.13991  -0.11487
  Beta virt. eigenvalues --    0.07589   0.08588   0.09363   0.09401   0.09616
  Beta virt. eigenvalues --    0.10889   0.11183   0.11480   0.12113   0.12423
  Beta virt. eigenvalues --    0.12997   0.13973   0.15028   0.15327   0.15431

 Mulliken charges and spin densities:
               1          2
     1  C    1.079484  -1.410898
     2  C   -0.294166  -0.102925
     3  O   -0.146298   0.018163
     4  C   -0.105063  -0.197267
     5  C    0.865330  -1.304444
     6  C   -0.824547   1.022000
     7  O   -0.146530  -0.015313
     8  C    0.637359  -0.876523
     9  C   -0.158650   0.441938
    10  S    0.096248  -0.029309
    11  N   -0.093317   0.125790
    12  C   -0.734555   0.148394
    13  H   -0.296946   0.465102
    14  H   -0.022233   0.150840
    15  H    0.020559   0.166996
    16  H    0.139541   0.053620
    17  H    0.232931  -0.033440
    18  H   -0.135432   0.324871
    19  H    0.060508   0.069225
    20  H   -0.410079   0.576229
    21  H   -0.943492   1.198030
    22  H    0.034112   0.191427
    23  H    0.145237   0.017495
 Sum of Mulliken charges =  -1.00000   1.00000

 Dipole moment (field-independent basis, Debye):
    X=              3.2341    Y=             -2.1048    Z=              1.0515  Tot=              3.9994
 Quadrupole moment (field-independent basis, Debye-Ang):
   XX=           -139.3555   YY=           -102.2935   ZZ=           -109.7114
   XY=              3.0316   XZ=             -7.9369   YZ=              5.9339

 Summary of Natural Population Analysis:

                                       Natural Population
                Natural  -----------------------------------------------
    Atom  No    Charge         Core      Valence    Rydberg      Total
 -----------------------------------------------------------------------
      C    1   -0.21979      0.99960     2.21024    0.00994     3.21979
      C    2   -0.01358      0.99958     2.00156    0.01245     3.01358
      O    3   -0.30216      0.99989     3.29312    0.00914     4.30216
      C    4   -0.01385      0.99958     2.00114    0.01313     3.01385
      C    5   -0.22025      0.99960     2.21082    0.00983     3.22025
      C    6    0.07095      0.99950     1.91185    0.01769     2.92905
      O    7   -0.29449      0.99986     3.28389    0.01075     4.29449
      C    8    0.09461      0.99930     1.88953    0.01656     2.90539
      C    9   -0.17873      0.99949     2.16581    0.01344     3.17873
      S   10    0.28204      4.99947     2.69095    0.02755     7.71796
      N   11   -0.26964      0.99974     2.75925    0.01065     3.76964
      C   12   -0.00223      0.99957     1.98684    0.01582     3.00223
      H   13    0.10509      0.00000     0.39318    0.00173     0.39491
      H   14    0.10532      0.00000     0.39327    0.00140     0.39468
      H   15    0.08729      0.00000     0.41151    0.00120     0.41271
      H   16    0.08500      0.00000     0.41304    0.00196     0.41500
      H   17    0.08535      0.00000     0.41301    0.00164     0.41465
      H   18    0.08899      0.00000     0.40978    0.00123     0.41101
      H   19    0.10466      0.00000     0.39417    0.00117     0.39534
      H   20    0.10623      0.00000     0.39131    0.00245     0.39377
      H   21    0.09776      0.00000     0.39920    0.00304     0.40224
      H   22    0.10790      0.00000     0.39075    0.00135     0.39210
      H   23    0.09352      0.00000     0.40442    0.00207     0.40648
 =======================================================================
   * Total *   -0.00000     15.99517    32.81866    0.18618    49.00000

 Normal termination of Gaussian 16 at Wed Dec  9 17:17:34 2020.
