 Gaussian 16, Revision A.03,

 -----------------------------------------------------------
 # opt freq B3LYP/6-31G(d) empiricaldispersion=gd3bj scf=xqc
 -----------------------------------------------------------

 -------------------------------
 CID_149378521_JID_1246_neutraal
 -------------------------------
 Symbolic Z-matrix:
 Charge =  0 Multiplicity = 1

 SCF Done:  E(RB3LYP) =  -481.865188803     A.U. after   16 cycles
 SCF Done:  E(RB3LYP) =  -481.872535505     A.U. after   14 cycles
 SCF Done:  E(RB3LYP) =  -481.873273007     A.U. after   14 cycles
 SCF Done:  E(RB3LYP) =  -481.873582572     A.U. after   13 cycles
 SCF Done:  E(RB3LYP) =  -481.873648589     A.U. after   12 cycles
 SCF Done:  E(RB3LYP) =  -481.873658089     A.U. after   10 cycles
 SCF Done:  E(RB3LYP) =  -481.873659968     A.U. after   10 cycles
 SCF Done:  E(RB3LYP) =  -481.873660591     A.U. after    9 cycles
 SCF Done:  E(RB3LYP) =  -481.873660695     A.U. after    8 cycles
 Optimization completed.
    -- Stationary point found.
 Normal termination of Gaussian 16 at Tue Dec  8 19:31:48 2020.

 --------------------------------------------------------------------
 #N Geom=AllCheck Guess=TCheck SCRF=Check GenChk RB3LYP/6-31G(d) Freq
 --------------------------------------------------------------------

 Structure from the checkpoint file:  "JID_1246.chk"
 -------------------------------
 CID_149378521_JID_1246_neutraal
 -------------------------------
 Charge =  0 Multiplicity = 1

 SCF Done:  E(RB3LYP) =  -481.873660695     A.U. after    1 cycles

  Exact polarizability: 111.095  -2.147  94.919  -0.390  -2.425  91.825
 Approx polarizability: 147.200  -8.375 139.285   3.479 -10.830 149.366

                      1                      2                      3
                      A                      A                      A
 Frequencies --     46.1794                70.9956               118.1549
 Red. masses --      4.0535                 2.5861                 4.2655
 Frc consts  --      0.0051                 0.0077                 0.0351
 IR Inten    --      1.3289                 0.3794                 2.3365

                      4                      5                      6
                      A                      A                      A
 Frequencies --    155.2636               207.7382               226.4068
 Red. masses --      5.1481                 2.7557                 3.2258
 Frc consts  --      0.0731                 0.0701                 0.0974
 IR Inten    --      1.2624                 0.4805                 0.2869

                      7                      8                      9
                      A                      A                      A
 Frequencies --    236.2339               275.2151               300.2899
 Red. masses --      1.2054                 1.0982                 2.9151
 Frc consts  --      0.0396                 0.0490                 0.1549
 IR Inten    --      0.0951                 0.0083                 0.5840

                     10                     11                     12
                      A                      A                      A
 Frequencies --    319.4746               354.7676               363.0619
 Red. masses --      2.6438                 2.4461                 2.6277
 Frc consts  --      0.1590                 0.1814                 0.2041
 IR Inten    --      1.6541                 0.3443                 0.2115

                     13                     14                     15
                      A                      A                      A
 Frequencies --    408.6605               431.8196               501.4863
 Red. masses --      2.6026                 2.6575                 2.8876
 Frc consts  --      0.2561                 0.2920                 0.4279
 IR Inten    --      0.2362                 1.0183                 0.1969

                     16                     17                     18
                      A                      A                      A
 Frequencies --    629.7262               724.0535               734.8761
 Red. masses --      3.3103                 2.9782                 1.4214
 Frc consts  --      0.7734                 0.9199                 0.4523
 IR Inten    --      0.5318                 2.1153                 1.5211

                     19                     20                     21
                      A                      A                      A
 Frequencies --    786.4987               795.4796               841.1892
 Red. masses --      3.3610                 2.5613                 3.2134
 Frc consts  --      1.2249                 0.9549                 1.3397
 IR Inten    --     12.9716                 7.1443                55.1516

                     22                     23                     24
                      A                      A                      A
 Frequencies --    880.0824               886.5146               903.5440
 Red. masses --      2.0735                 1.4514                 2.1148
 Frc consts  --      0.9462                 0.6721                 1.0172
 IR Inten    --      2.5764                 4.3797                28.1501

                     25                     26                     27
                      A                      A                      A
 Frequencies --    929.7872               960.8039               965.9030
 Red. masses --      2.2893                 2.1582                 1.5816
 Frc consts  --      1.1660                 1.1739                 0.8694
 IR Inten    --     38.1449                 4.8963                 8.5586

                     28                     29                     30
                      A                      A                      A
 Frequencies --    989.8707               995.4035              1033.9282
 Red. masses --      2.0921                 1.5220                 1.5096
 Frc consts  --      1.2078                 0.8885                 0.9508
 IR Inten    --     11.1151                 1.2871                 3.2841

                     31                     32                     33
                      A                      A                      A
 Frequencies --   1051.1574              1062.2164              1086.0863
 Red. masses --      2.0183                 1.3256                 1.3073
 Frc consts  --      1.3139                 0.8813                 0.9086
 IR Inten    --      2.8416                 0.4005                10.7200

                     34                     35                     36
                      A                      A                      A
 Frequencies --   1130.4442              1153.4761              1184.7945
 Red. masses --      1.2103                 1.5042                 1.7118
 Frc consts  --      0.9113                 1.1791                 1.4158
 IR Inten    --      1.2926                 6.2197                 6.8887

                     37                     38                     39
                      A                      A                      A
 Frequencies --   1210.7340              1225.4704              1236.3023
 Red. masses --      1.9759                 1.7360                 1.6197
 Frc consts  --      1.7065                 1.5361                 1.4586
 IR Inten    --      8.8849                 1.1898                 0.2217

                     40                     41                     42
                      A                      A                      A
 Frequencies --   1253.8742              1261.3011              1291.8469
 Red. masses --      1.7382                 1.6759                 1.5238
 Frc consts  --      1.6101                 1.5709                 1.4983
 IR Inten    --      3.0066                 1.9532                 0.7828

                     43                     44                     45
                      A                      A                      A
 Frequencies --   1302.3235              1314.4138              1335.4087
 Red. masses --      1.5329                 1.9650                 1.5270
 Frc consts  --      1.5318                 2.0002                 1.6044
 IR Inten    --      2.2720                 7.2789                 4.9255

                     46                     47                     48
                      A                      A                      A
 Frequencies --   1370.6161              1430.5757              1447.2644
 Red. masses --      1.5119                 1.2768                 1.2378
 Frc consts  --      1.6734                 1.5395                 1.5276
 IR Inten    --     35.0298                 6.9367                 2.3350

                     49                     50                     51
                      A                      A                      A
 Frequencies --   1451.5448              1493.3650              1508.9509
 Red. masses --      1.4284                 1.4390                 1.0739
 Frc consts  --      1.7732                 1.8908                 1.4407
 IR Inten    --      3.4682                23.3352                 0.2921

                     52                     53                     54
                      A                      A                      A
 Frequencies --   1514.2388              1520.1571              1528.4539
 Red. masses --      1.0469                 1.0593                 1.1059
 Frc consts  --      1.4143                 1.4423                 1.5222
 IR Inten    --      0.7368                 3.8241                 1.8823

                     55                     56                     57
                      A                      A                      A
 Frequencies --   1533.3513              1537.7506              1622.5374
 Red. masses --      1.0609                 1.0582                 7.9003
 Frc consts  --      1.4696                 1.4744                12.2541
 IR Inten    --      5.4633                 6.0112                68.9663

                     58                     59                     60
                      A                      A                      A
 Frequencies --   3036.1690              3041.6964              3060.7475
 Red. masses --      1.0349                 1.0363                 1.0583
 Frc consts  --      5.6210                 5.6490                 5.8413
 IR Inten    --     25.6990                27.5771                39.0056

                     61                     62                     63
                      A                      A                      A
 Frequencies --   3077.7067              3099.2665              3103.8497
 Red. masses --      1.0601                 1.1024                 1.1055
 Frc consts  --      5.9165                 6.2390                 6.2751
 IR Inten    --     29.8368                 2.3617                 2.6985

                     64                     65                     66
                      A                      A                      A
 Frequencies --   3105.0600              3108.2674              3109.1767
 Red. masses --      1.0994                 1.1017                 1.0915
 Frc consts  --      6.2453                 6.2715                 6.2169
 IR Inten    --     46.6180                33.6333                18.1745

                     67                     68                     69
                      A                      A                      A
 Frequencies --   3114.7177              3129.5500              3147.5679
 Red. masses --      1.1009                 1.1060                 1.0884
 Frc consts  --      6.2926                 6.3824                 6.3532
 IR Inten    --     32.4272                41.1599                18.9710

                     70                     71                     72
                      A                      A                      A
 Frequencies --   3149.9998              3210.1600              3239.8528
 Red. masses --      1.0530                 1.0912                 1.1177
 Frc consts  --      6.1559                 6.6252                 6.9123
 IR Inten    --      7.4161                 9.5617                 4.0912

 - Thermochemistry -
 -------------------
 Temperature   298.150 Kelvin.  Pressure   1.00000 Atm.
 Atom     1 has atomic number  6 and mass  12.00000

 Molecular mass:   153.11536 amu.
 Principal axes and moments of inertia in atomic units:
                           1         2         3
     Eigenvalues --   967.770492451.969402604.74235
           X            0.99970   0.01633  -0.01843
           Y           -0.01581   0.99949   0.02767
           Z            0.01888  -0.02737   0.99945
 This molecule is an asymmetric top.
 Rotational symmetry number  1.
 Warning -- assumption of classical behavior for rotation
           may cause significant error
 Rotational temperatures (Kelvin)      0.08950     0.03532     0.03325
 Rotational constants (GHZ):           1.86484     0.73604     0.69287
 Zero-point vibrational energy     597330.4 (Joules/Mol)
                                  142.76540 (Kcal/Mol)
 Warning -- explicit consideration of  15 degrees of freedom as
           vibrations may cause significant error
 Vibrational temperatures:     66.44   102.15   170.00   223.39   298.89
          (Kelvin)            325.75   339.89   395.97   432.05   459.65
                              510.43   522.37   587.97   621.29   721.53
                              906.04  1041.75  1057.32  1131.60  1144.52
                             1210.28  1266.24  1275.50  1300.00  1337.76
                             1382.38  1389.72  1424.20  1432.16  1487.59
                             1512.38  1528.29  1562.64  1626.46  1659.59
                             1704.65  1741.98  1763.18  1778.76  1804.05
                             1814.73  1858.68  1873.75  1891.15  1921.36
                             1972.01  2058.28  2082.29  2088.45  2148.62
                             2171.04  2178.65  2187.17  2199.10  2206.15
                             2212.48  2334.47  4368.37  4376.32  4403.73
                             4428.13  4459.15  4465.75  4467.49  4472.10
                             4473.41  4481.38  4502.72  4528.65  4532.15
                             4618.70  4661.43

 Zero-point correction=                           0.227511 (Hartree/Particle)
 Thermal correction to Energy=                    0.238972
 Thermal correction to Enthalpy=                  0.239916
 Thermal correction to Gibbs Free Energy=         0.190401
 Sum of electronic and zero-point Energies=           -481.646150
 Sum of electronic and thermal Energies=              -481.634689
 Sum of electronic and thermal Enthalpies=            -481.633745
 Sum of electronic and thermal Free Energies=         -481.683260

                     E (Thermal)             CV                S
                      KCal/Mol        Cal/Mol-Kelvin    Cal/Mol-Kelvin
 Total                  149.957             43.833            104.213
 Electronic               0.000              0.000              0.000
 Translational            0.889              2.981             40.988
 Rotational               0.889              2.981             30.203
 Vibrational            148.180             37.872             33.022
 Vibration     1          0.595              1.979              4.975
 Vibration     2          0.598              1.968              4.126
 Vibration     3          0.608              1.934              3.130
 Vibration     4          0.620              1.897              2.607
 Vibration     5          0.641              1.829              2.063
 Vibration     6          0.650              1.801              1.907
 Vibration     7          0.655              1.785              1.831
 Vibration     8          0.677              1.719              1.563
 Vibration     9          0.693              1.673              1.415
 Vibration    10          0.705              1.636              1.313
 Vibration    11          0.731              1.565              1.145
 Vibration    12          0.737              1.548              1.109
 Vibration    13          0.773              1.451              0.931
 Vibration    14          0.793              1.401              0.853
 Vibration    15          0.857              1.247              0.654

 Optimization completed.
    -- Stationary point found.
 Normal termination of Gaussian 16 at Tue Dec  8 19:37:35 2020.

 ----------------------------------------------------------------------
 # B3LYP/6-311++G(d,p) empiricaldispersion=gd3bj scf=xqc pop=npa geom=c
 heck
 ----------------------------------------------------------------------

 ---------------------------------------
 CID_149378521_JID_1246_Energie_neutraal
 ---------------------------------------
 Structure from the checkpoint file:  "JID_1246.chk"
 Charge =  0 Multiplicity = 1

 SCF Done:  E(RB3LYP) =  -482.006906013     A.U. after   15 cycles
 Normal termination of Gaussian 16 at Tue Dec  8 19:39:52 2020.

 ----------------------------------------------------------------------
 # B3LYP/6-311++G(d,p) empiricaldispersion=gd3bj scf=xqc pop=npa geom=c
 heck
 ----------------------------------------------------------------------

 -------------------------------------
 CID_149378521_JID_1246_Energie_kation
 -------------------------------------
 Structure from the checkpoint file:  "JID_1246.chk"
 Charge =  1 Multiplicity = 2

 SCF Done:  E(UB3LYP) =  -481.696518450     A.U. after   24 cycles
 Normal termination of Gaussian 16 at Tue Dec  8 19:44:37 2020.
 Gaussian 16:  ES64L-G16RevA.03 25-Dec-2016

 ----------------------------------------------------------------------
 # B3LYP/6-311++G(d,p) empiricaldispersion=gd3bj scf=xqc pop=npa geom=c
 heck
 ----------------------------------------------------------------------

 ------------------------------------
 CID_149378521_JID_1246_Energie_anion
 ------------------------------------
 Structure from the checkpoint file:  "JID_1246.chk"
 Charge = -1 Multiplicity = 2

                         Standard orientation:
 ---------------------------------------------------------------------
 Center     Atomic      Atomic             Coordinates (Angstroms)
 Number     Number       Type             X           Y           Z
 ---------------------------------------------------------------------
      1          6           0       -2.281578   -0.407315    1.487662
      2          6           0       -1.692539    0.143567    0.187228
      3          6           0       -2.114115   -0.712299   -1.045889
      4          6           0       -0.772751   -1.483393   -0.956979
      5          6           0       -0.216094   -0.383530   -0.009341
      6          6           0        0.714849    0.583584   -0.687592
      7          6           0        1.567078    1.537788    0.068875
      8          6           0        2.257077    0.395399   -0.652144
      9          7           0        2.844258   -0.709388    0.060693
     10          8           0        2.483053   -0.830997    1.223718
     11          6           0       -1.937120    1.645658    0.088393
     12          1           0       -3.362128   -0.223655    1.534354
     13          1           0       -2.121257   -1.488046    1.576059
     14          1           0       -1.818024    0.070858    2.359190
     15          1           0       -3.036311   -1.293896   -0.943405
     16          1           0       -2.187630   -0.109794   -1.958016
     17          1           0       -0.225118   -1.631282   -1.892984
     18          1           0       -0.867583   -2.452815   -0.460281
     19          1           0        0.240242   -0.746641    0.914341
     20          1           0        0.387914    0.911174   -1.673428
     21          1           0        1.736939    2.538133   -0.318224
     22          1           0        1.572272    1.439556    1.151268
     23          1           0        2.782427    0.578729   -1.583080
     24          1           0       -1.539897    2.066977   -0.840990
     25          1           0       -3.013468    1.856612    0.114628
     26          1           0       -1.471450    2.181021    0.924695
 ---------------------------------------------------------------------

 SCF Done:  E(UB3LYP) =  -482.019694563     A.U. after   33 cycles
 SCF Done:  E(UB3LYP) =  -482.019694563     a.u. after    1 cycles

 The electronic state is 2-A.
 Alpha  occ. eigenvalues --  -18.91270 -14.15159 -10.06129 -10.04983 -10.04797
 Alpha  occ. eigenvalues --  -10.04560 -10.04180 -10.03422 -10.03378 -10.03169
 Alpha  occ. eigenvalues --  -10.02345  -0.90706  -0.74063  -0.70456  -0.62636
 Alpha  occ. eigenvalues --   -0.57571  -0.55641  -0.53069  -0.48853  -0.45143
 Alpha  occ. eigenvalues --   -0.40488  -0.37991  -0.36015  -0.34338  -0.33261
 Alpha  occ. eigenvalues --   -0.32365  -0.30103  -0.29535  -0.27726  -0.27028
 Alpha  occ. eigenvalues --   -0.25014  -0.24210  -0.23660  -0.22961  -0.22597
 Alpha  occ. eigenvalues --   -0.20180  -0.18776  -0.18033  -0.17259  -0.14283
 Alpha  occ. eigenvalues --   -0.12361  -0.00312   0.05346
 Alpha virt. eigenvalues --    0.07119   0.08855   0.09291   0.10060   0.11097
 Alpha virt. eigenvalues --    0.11290   0.11908   0.12238   0.13340   0.13802
 Alpha virt. eigenvalues --    0.14750   0.15333   0.15624   0.16033   0.16722

  Beta  occ. eigenvalues --  -18.90373 -14.14148 -10.06116 -10.04977 -10.04788
  Beta  occ. eigenvalues --  -10.04554 -10.04180 -10.03416 -10.03259 -10.03228
  Beta  occ. eigenvalues --  -10.02287  -0.88926  -0.73999  -0.70238  -0.62622
  Beta  occ. eigenvalues --   -0.57543  -0.55229  -0.51940  -0.48802  -0.44962
  Beta  occ. eigenvalues --   -0.40243  -0.37528  -0.35923  -0.34034  -0.33184
  Beta  occ. eigenvalues --   -0.32311  -0.30044  -0.29120  -0.27685  -0.26914
  Beta  occ. eigenvalues --   -0.24228  -0.24012  -0.22858  -0.22427  -0.21161
  Beta  occ. eigenvalues --   -0.19333  -0.18625  -0.17575  -0.16234  -0.13912
  Beta  occ. eigenvalues --   -0.10822   0.00778
  Beta virt. eigenvalues --    0.07316   0.08879   0.09275   0.10052   0.11089
  Beta virt. eigenvalues --    0.11274   0.11829   0.12123   0.13323   0.13760
  Beta virt. eigenvalues --    0.14546   0.15182   0.15451   0.15859   0.16173

 Mulliken charges and spin densities:
               1          2
     1  C   -0.208763  -0.427289
     2  C   -0.113686   0.676649
     3  C   -0.112481  -0.315385
     4  C   -0.678311   0.058184
     5  C    0.376866  -0.442772
     6  C    0.226045   0.099950
     7  C   -0.610190   0.027865
     8  C   -0.189481  -0.050052
     9  N   -0.248351   0.511477
    10  O   -0.306742   0.279305
    11  C   -0.433404  -0.201896
    12  H   -0.093279   0.218739
    13  H    0.072040   0.067853
    14  H    0.115373   0.015879
    15  H   -0.061834   0.193758
    16  H    0.104652   0.002785
    17  H    0.131424  -0.004241
    18  H    0.115090   0.015739
    19  H    0.268857   0.021258
    20  H    0.200071  -0.004393
    21  H    0.063435   0.047614
    22  H    0.146834  -0.031813
    23  H    0.086117  -0.017217
    24  H    0.099639   0.036086
    25  H   -0.053870   0.185676
    26  H    0.103947   0.036241
 Sum of Mulliken charges =  -1.00000   1.00000

 Dipole moment (field-independent basis, Debye):
    X=             -6.0299    Y=              2.6008    Z=             -2.5999  Tot=              7.0628
 Quadrupole moment (field-independent basis, Debye-Ang):
   XX=           -122.0417   YY=            -85.4263   ZZ=            -81.7626
   XY=              9.9819   XZ=             -4.4331   YZ=              0.6934

 Summary of Natural Population Analysis:

                                       Natural Population
                Natural  -----------------------------------------------
    Atom  No    Charge         Core      Valence    Rydberg      Total
 -----------------------------------------------------------------------
      C    1   -0.28260      0.99962     2.27631    0.00667     3.28260
      C    2   -0.03722      0.99957     2.02688    0.01077     3.03722
      C    3   -0.18960      0.99961     2.18117    0.00882     3.18960
      C    4   -0.18991      0.99964     2.18000    0.01027     3.18991
      C    5   -0.11129      0.99954     2.09679    0.01496     3.11129
      C    6   -0.09224      0.99956     2.08061    0.01207     3.09224
      C    7   -0.20293      0.99959     2.19378    0.00956     3.20293
      C    8   -0.06144      0.99959     2.04080    0.02105     3.06144
      N    9    0.12205      0.99978     2.34430    0.03387     3.37795
      O   10   -0.13145      0.99990     3.11923    0.01232     4.13145
      C   11   -0.28626      0.99962     2.28024    0.00640     3.28626
      H   12    0.09323      0.00000     0.40583    0.00093     0.40677
      H   13    0.09895      0.00000     0.40027    0.00078     0.40105
      H   14    0.09942      0.00000     0.39980    0.00078     0.40058
      H   15    0.09140      0.00000     0.40737    0.00123     0.40860
      H   16    0.09316      0.00000     0.40585    0.00099     0.40684
      H   17    0.09655      0.00000     0.40237    0.00108     0.40345
      H   18    0.09539      0.00000     0.40365    0.00096     0.40461
      H   19    0.12120      0.00000     0.37680    0.00199     0.37880
      H   20    0.09099      0.00000     0.40750    0.00151     0.40901
      H   21    0.09268      0.00000     0.40645    0.00087     0.40732
      H   22    0.10913      0.00000     0.38845    0.00242     0.39087
      H   23    0.08613      0.00000     0.41007    0.00381     0.41387
      H   24    0.10001      0.00000     0.39916    0.00083     0.39999
      H   25    0.09348      0.00000     0.40569    0.00084     0.40652
      H   26    0.10117      0.00000     0.39806    0.00077     0.39883
 =======================================================================
   * Total *   -0.00000     10.99603    30.83743    0.16654    42.00000

 Normal termination of Gaussian 16 at Tue Dec  8 19:52:05 2020.
