 Gaussian 16, Revision A.03,

 -----------------------------------------------------------
 # opt freq B3LYP/6-31G(d) empiricaldispersion=gd3bj scf=xqc
 -----------------------------------------------------------

 -------------------------------
 CID_107752586_JID_2443_neutraal
 -------------------------------
 Symbolic Z-matrix:
 Charge =  0 Multiplicity = 1

 SCF Done:  E(RB3LYP) =  -866.577428506     A.U. after   14 cycles
 SCF Done:  E(RB3LYP) =  -866.572871167     A.U. after   14 cycles
 SCF Done:  E(RB3LYP) =  -866.580268799     A.U. after   13 cycles
 SCF Done:  E(RB3LYP) =  -866.580048339     A.U. after   13 cycles
 SCF Done:  E(RB3LYP) =  -866.581156631     A.U. after   13 cycles
 SCF Done:  E(RB3LYP) =  -866.581196721     A.U. after   12 cycles
 SCF Done:  E(RB3LYP) =  -866.581962693     A.U. after   12 cycles
 SCF Done:  E(RB3LYP) =  -866.582228115     A.U. after   13 cycles
 SCF Done:  E(RB3LYP) =  -866.582582736     A.U. after   14 cycles
 SCF Done:  E(RB3LYP) =  -866.583222021     A.U. after   12 cycles
 SCF Done:  E(RB3LYP) =  -866.585703169     A.U. after    9 cycles
 SCF Done:  E(RB3LYP) =  -866.585704828     A.U. after    9 cycles
 SCF Done:  E(RB3LYP) =  -866.585704966     A.U. after    8 cycles
 SCF Done:  E(RB3LYP) =  -866.585705210     A.U. after    8 cycles
 SCF Done:  E(RB3LYP) =  -866.585705419     A.U. after    8 cycles
 Optimization completed.
    -- Stationary point found.
 Normal termination of Gaussian 16 at Wed Dec  9 17:58:09 2020.

 --------------------------------------------------------------------
 #N Geom=AllCheck Guess=TCheck SCRF=Check GenChk RB3LYP/6-31G(d) Freq
 --------------------------------------------------------------------

 Structure from the checkpoint file:  "JID_2443.chk"
 -------------------------------
 CID_107752586_JID_2443_neutraal
 -------------------------------
 Charge =  0 Multiplicity = 1

 SCF Done:  E(RB3LYP) =  -866.585705419     A.U. after    1 cycles

  Exact polarizability: 133.327  -5.830 125.754  -0.764  -0.098 111.078
 Approx polarizability: 186.536  -6.910 163.796  -5.444   1.706 182.408

                      1                      2                      3
                      A                      A                      A
 Frequencies --     39.6375                59.7333                70.1105
 Red. masses --      4.7184                 3.3480                 2.7085
 Frc consts  --      0.0044                 0.0070                 0.0078
 IR Inten    --      2.2462                 1.1809                 0.0571

                      4                      5                      6
                      A                      A                      A
 Frequencies --     84.0132               117.1789               134.5305
 Red. masses --      3.2520                 3.2889                 1.1778
 Frc consts  --      0.0135                 0.0266                 0.0126
 IR Inten    --      1.8898                 0.9516                 0.0821

                      7                      8                      9
                      A                      A                      A
 Frequencies --    160.5231               173.3345               203.0299
 Red. masses --      2.7419                 3.4934                 1.6707
 Frc consts  --      0.0416                 0.0618                 0.0406
 IR Inten    --      4.5841                 0.1505                 0.3829

                     10                     11                     12
                      A                      A                      A
 Frequencies --    226.4984               241.6720               250.5851
 Red. masses --      1.4264                 1.1466                 1.3651
 Frc consts  --      0.0431                 0.0395                 0.0505
 IR Inten    --      0.0671                 0.5561                 0.4737

                     13                     14                     15
                      A                      A                      A
 Frequencies --    266.9001               297.4777               311.8787
 Red. masses --      1.2590                 2.5112                 2.3037
 Frc consts  --      0.0528                 0.1309                 0.1320
 IR Inten    --      0.2037                 2.1459                 0.5157

                     16                     17                     18
                      A                      A                      A
 Frequencies --    354.3566               362.6306               371.3639
 Red. masses --      2.4383                 2.6575                 2.3716
 Frc consts  --      0.1804                 0.2059                 0.1927
 IR Inten    --      0.5001                 1.9539                 0.0467

                     19                     20                     21
                      A                      A                      A
 Frequencies --    402.7561               416.4868               456.8035
 Red. masses --      3.0021                 2.4144                 2.5607
 Frc consts  --      0.2869                 0.2468                 0.3148
 IR Inten    --      4.5780                 0.9996                 0.2974

                     22                     23                     24
                      A                      A                      A
 Frequencies --    480.9114               524.6604               583.5975
 Red. masses --      2.2176                 3.2945                 3.6646
 Frc consts  --      0.3022                 0.5343                 0.7354
 IR Inten    --      1.3489                 0.0987                 8.3947

                     25                     26                     27
                      A                      A                      A
 Frequencies --    621.8473               677.5380               811.7082
 Red. masses --      3.4996                 3.3241                 2.2767
 Frc consts  --      0.7973                 0.8991                 0.8838
 IR Inten    --      3.6204                 1.9374                 0.6436

                     28                     29                     30
                      A                      A                      A
 Frequencies --    818.5582               862.0475               924.4130
 Red. masses --      2.5192                 1.5741                 2.2175
 Frc consts  --      0.9945                 0.6892                 1.1165
 IR Inten    --      1.3418                 2.8296                 1.6301

                     31                     32                     33
                      A                      A                      A
 Frequencies --    928.7565               944.5269               976.5839
 Red. masses --      2.3433                 1.1646                 1.4467
 Frc consts  --      1.1909                 0.6121                 0.8129
 IR Inten    --      6.4664                 1.1786                 1.4046

                     34                     35                     36
                      A                      A                      A
 Frequencies --    978.7779               989.1448              1007.6430
 Red. masses --      1.5085                 1.2658                 1.5242
 Frc consts  --      0.8515                 0.7297                 0.9118
 IR Inten    --      1.9343                 4.0385                 2.2449

                     37                     38                     39
                      A                      A                      A
 Frequencies --   1049.1805              1075.4888              1094.7548
 Red. masses --      1.9550                 1.6160                 2.3959
 Frc consts  --      1.2680                 1.1013                 1.6918
 IR Inten    --      8.8407                16.1592                 3.8277

                     40                     41                     42
                      A                      A                      A
 Frequencies --   1111.5402              1147.7842              1156.8759
 Red. masses --      1.9150                 2.1360                 1.9979
 Frc consts  --      1.3940                 1.6580                 1.5754
 IR Inten    --      9.1719                 1.3021                 5.1156

                     43                     44                     45
                      A                      A                      A
 Frequencies --   1188.8617              1200.9840              1203.2903
 Red. masses --      1.8966                 2.1133                 1.7646
 Frc consts  --      1.5794                 1.7960                 1.5053
 IR Inten    --     24.3788                26.7310                13.7595

                     46                     47                     48
                      A                      A                      A
 Frequencies --   1228.6982              1289.4263              1318.3820
 Red. masses --      1.3851                 1.3053                 1.3622
 Frc consts  --      1.2320                 1.2787                 1.3950
 IR Inten    --      6.7735                27.5797                16.7323

                     49                     50                     51
                      A                      A                      A
 Frequencies --   1321.9858              1347.3781              1362.5083
 Red. masses --      1.3112                 1.2307                 1.3587
 Frc consts  --      1.3501                 1.3163                 1.4861
 IR Inten    --      1.9021                 8.6696                 0.8201

                     52                     53                     54
                      A                      A                      A
 Frequencies --   1386.9304              1399.6797              1415.2976
 Red. masses --      1.3652                 1.4408                 1.4615
 Frc consts  --      1.5472                 1.6631                 1.7249
 IR Inten    --      0.3070                 8.9264                48.8710

                     55                     56                     57
                      A                      A                      A
 Frequencies --   1429.0406              1436.0871              1440.1922
 Red. masses --      1.2463                 1.2260                 1.2225
 Frc consts  --      1.4996                 1.4898                 1.4939
 IR Inten    --      1.6995                 1.7734                 7.5748

                     58                     59                     60
                      A                      A                      A
 Frequencies --   1451.4155              1489.9599              1493.1240
 Red. masses --      1.2174                 1.0806                 1.0553
 Frc consts  --      1.5110                 1.4134                 1.3861
 IR Inten    --      5.9802                 9.7478                 7.9077

                     61                     62                     63
                      A                      A                      A
 Frequencies --   1505.0736              1516.2697              1518.7612
 Red. masses --      1.0522                 1.0478                 1.0470
 Frc consts  --      1.4044                 1.4193                 1.4229
 IR Inten    --      6.6561                 1.1127                 5.5232

                     64                     65                     66
                      A                      A                      A
 Frequencies --   1521.1012              1526.5301              1531.7648
 Red. masses --      1.0459                 1.0440                 1.0472
 Frc consts  --      1.4258                 1.4333                 1.4477
 IR Inten    --      1.2799                13.0374                 7.3962

                     67                     68                     69
                      A                      A                      A
 Frequencies --   1537.0785              1540.9792              1550.6910
 Red. masses --      1.0463                 1.0502                 1.0470
 Frc consts  --      1.4565                 1.4693                 1.4833
 IR Inten    --      2.8287                 6.2814                 4.0560

                     70                     71                     72
                      A                      A                      A
 Frequencies --   1820.4228              3005.7778              3025.9177
 Red. masses --     10.3299                 1.0722                 1.0820
 Frc consts  --     20.1692                 5.7077                 5.8369
 IR Inten    --    104.7084                17.8152                 0.3630

                     73                     74                     75
                      A                      A                      A
 Frequencies --   3042.2234              3043.8932              3045.5854
 Red. masses --      1.0394                 1.0639                 1.0450
 Frc consts  --      5.6677                 5.8075                 5.7108
 IR Inten    --     13.4722                 8.6503                41.1667

                     76                     77                     78
                      A                      A                      A
 Frequencies --   3050.4443              3052.2139              3059.1920
 Red. masses --      1.0553                 1.0402                 1.0379
 Frc consts  --      5.7859                 5.7092                 5.7228
 IR Inten    --     57.6750                10.5545                18.1847

                     79                     80                     81
                      A                      A                      A
 Frequencies --   3078.3096              3100.1153              3106.3009
 Red. masses --      1.0835                 1.1013                 1.0893
 Frc consts  --      6.0493                 6.2358                 6.1926
 IR Inten    --      1.1061                 8.5879                 8.6872

                     82                     83                     84
                      A                      A                      A
 Frequencies --   3110.5010              3111.8550              3117.2691
 Red. masses --      1.0993                 1.0977                 1.0984
 Frc consts  --      6.2668                 6.2628                 6.2888
 IR Inten    --     47.3214                27.8503                64.1993

                     85                     86                     87
                      A                      A                      A
 Frequencies --   3122.4121              3131.7165              3145.3234
 Red. masses --      1.0935                 1.0994                 1.1015
 Frc consts  --      6.2815                 6.3529                 6.4203
 IR Inten    --      8.0844                31.6074                18.8724

                     88                     89                     90
                      A                      A                      A
 Frequencies --   3151.0901              3154.9777              3167.3404
 Red. masses --      1.1023                 1.0974                 1.1022
 Frc consts  --      6.4490                 6.4360                 6.5145
 IR Inten    --     15.5650                14.0318                 9.9875

 - Thermochemistry -
 -------------------
 Temperature   298.150 Kelvin.  Pressure   1.00000 Atm.
 Atom     1 has atomic number  6 and mass  12.00000

 Molecular mass:   188.12349 amu.
 Principal axes and moments of inertia in atomic units:
                           1         2         3
     Eigenvalues --  2087.654782678.072403712.73335
           X            0.99763  -0.06806   0.00984
           Y            0.06824   0.99749  -0.01903
           Z           -0.00852   0.01965   0.99977
 This molecule is an asymmetric top.
 Rotational symmetry number  1.
 Warning -- assumption of classical behavior for rotation
           may cause significant error
 Rotational temperatures (Kelvin)      0.04149     0.03234     0.02333
 Rotational constants (GHZ):           0.86448     0.67390     0.48610
 Zero-point vibrational energy     751028.8 (Joules/Mol)
                                  179.50019 (Kcal/Mol)
 Warning -- explicit consideration of  24 degrees of freedom as
           vibrations may cause significant error
 Vibrational temperatures:     57.03    85.94   100.87   120.88   168.59
          (Kelvin)            193.56   230.96   249.39   292.11   325.88
                              347.71   360.54   384.01   428.00   448.72
                              509.84   521.74   534.31   579.48   599.23
                              657.24   691.92   754.87   839.67   894.70
                              974.83  1167.87  1177.72  1240.29  1330.02
                             1336.27  1358.96  1405.09  1408.24  1423.16
                             1449.77  1509.54  1547.39  1575.11  1599.26
                             1651.41  1664.49  1710.51  1727.95  1731.27
                             1767.82  1855.20  1896.86  1902.04  1938.58
                             1960.35  1995.48  2013.83  2036.30  2056.07
                             2066.21  2072.12  2088.26  2143.72  2148.27
                             2165.47  2181.57  2185.16  2188.53  2196.34
                             2203.87  2211.51  2217.13  2231.10  2619.18
                             4324.64  4353.62  4377.08  4379.48  4381.92
                             4388.91  4391.46  4401.50  4429.00  4460.37
                             4469.27  4475.32  4477.27  4485.06  4492.45
                             4505.84  4525.42  4533.72  4539.31  4557.10

 Zero-point correction=                           0.286052 (Hartree/Particle)
 Thermal correction to Energy=                    0.301725
 Thermal correction to Enthalpy=                  0.302669
 Thermal correction to Gibbs Free Energy=         0.243612
 Sum of electronic and zero-point Energies=           -866.299654
 Sum of electronic and thermal Energies=              -866.283981
 Sum of electronic and thermal Enthalpies=            -866.283036
 Sum of electronic and thermal Free Energies=         -866.342093

                     E (Thermal)             CV                S
                      KCal/Mol        Cal/Mol-Kelvin    Cal/Mol-Kelvin
 Total                  189.335             57.370            124.296
 Electronic               0.000              0.000              0.000
 Translational            0.889              2.981             41.602
 Rotational               0.889              2.981             31.407
 Vibrational            187.558             51.408             51.287
 Vibration     1          0.594              1.981              5.277
 Vibration     2          0.597              1.974              4.466
 Vibration     3          0.598              1.968              4.150
 Vibration     4          0.601              1.960              3.795
 Vibration     5          0.608              1.935              3.146
 Vibration     6          0.613              1.919              2.880
 Vibration     7          0.622              1.891              2.544
 Vibration     8          0.627              1.875              2.399
 Vibration     9          0.639              1.836              2.105
 Vibration    10          0.650              1.801              1.907
 Vibration    11          0.658              1.776              1.791
 Vibration    12          0.663              1.762              1.726
 Vibration    13          0.672              1.734              1.616
 Vibration    14          0.691              1.678              1.431
 Vibration    15          0.700              1.651              1.352
 Vibration    16          0.730              1.566              1.147
 Vibration    17          0.736              1.549              1.111
 Vibration    18          0.743              1.531              1.074
 Vibration    19          0.768              1.464              0.953
 Vibration    20          0.780              1.434              0.904
 Vibration    21          0.815              1.346              0.775
 Vibration    22          0.837              1.292              0.708
 Vibration    23          0.880              1.195              0.599
 Vibration    24          0.940              1.067              0.479

 Optimization completed.
    -- Stationary point found.
 Normal termination of Gaussian 16 at Wed Dec  9 18:06:53 2020.

 ----------------------------------------------------------------------
 # B3LYP/6-311++G(d,p) empiricaldispersion=gd3bj scf=xqc pop=npa geom=c
 heck
 ----------------------------------------------------------------------

 ---------------------------------------
 CID_107752586_JID_2443_Energie_neutraal
 ---------------------------------------
 Structure from the checkpoint file:  "JID_2443.chk"
 Charge =  0 Multiplicity = 1

 SCF Done:  E(RB3LYP) =  -866.748652599     A.U. after   13 cycles
 Normal termination of Gaussian 16 at Wed Dec  9 18:10:36 2020.

 ----------------------------------------------------------------------
 # B3LYP/6-311++G(d,p) empiricaldispersion=gd3bj scf=xqc pop=npa geom=c
 heck
 ----------------------------------------------------------------------

 -------------------------------------
 CID_107752586_JID_2443_Energie_kation
 -------------------------------------
 Structure from the checkpoint file:  "JID_2443.chk"
 Charge =  1 Multiplicity = 2

 SCF Done:  E(UB3LYP) =  -866.454005923     A.U. after   21 cycles
 Normal termination of Gaussian 16 at Wed Dec  9 18:17:22 2020.
 Gaussian 16:  ES64L-G16RevA.03 25-Dec-2016

 ----------------------------------------------------------------------
 # B3LYP/6-311++G(d,p) empiricaldispersion=gd3bj scf=xqc pop=npa geom=c
 heck
 ----------------------------------------------------------------------

 ------------------------------------
 CID_107752586_JID_2443_Energie_anion
 ------------------------------------
 Structure from the checkpoint file:  "JID_2443.chk"
 Charge = -1 Multiplicity = 2

                         Standard orientation:
 ---------------------------------------------------------------------
 Center     Atomic      Atomic             Coordinates (Angstroms)
 Number     Number       Type             X           Y           Z
 ---------------------------------------------------------------------
      1          6           0        3.130953   -1.083304   -0.695024
      2          6           0        1.727958   -0.810995   -0.124633
      3          6           0        1.449684   -1.772340    1.037310
      4          6           0        1.584807    0.678558    0.281388
      5          6           0        1.843386    1.649956   -0.874877
      6         16           0        0.057576    1.087877    1.255421
      7          6           0       -1.378439    1.281523    0.100675
      8          6           0       -1.418712    2.633916   -0.616710
      9          6           0       -1.591054    0.112440   -0.862435
     10          6           0       -1.980328   -1.197181   -0.182385
     11          8           0       -2.508059   -1.214474    0.912145
     12          6           0       -1.708805   -2.467592   -0.963293
     13          1           0        3.905681   -0.806020    0.031580
     14          1           0        3.323070   -0.532969   -1.620513
     15          1           0        3.251675   -2.149945   -0.914215
     16          1           0        1.004999   -1.016294   -0.924919
     17          1           0        2.148212   -1.588456    1.863722
     18          1           0        0.437470   -1.658558    1.430344
     19          1           0        1.586241   -2.810934    0.713922
     20          1           0        2.342455    0.867445    1.055278
     21          1           0        1.190390    1.437787   -1.728548
     22          1           0        1.671073    2.681999   -0.560396
     23          1           0        2.877556    1.571815   -1.225267
     24          1           0       -2.200175    1.242956    0.824110
     25          1           0       -0.662177    2.705465   -1.402491
     26          1           0       -2.401411    2.779087   -1.084720
     27          1           0       -1.251081    3.450902    0.090104
     28          1           0       -2.430166    0.360928   -1.533447
     29          1           0       -0.730592   -0.036886   -1.521872
     30          1           0       -2.036824   -2.368354   -2.004971
     31          1           0       -0.628423   -2.657610   -0.982871
     32          1           0       -2.211409   -3.312476   -0.488836
 ---------------------------------------------------------------------

 SCF Done:  E(UB3LYP) =  -866.737096567     A.U. after   33 cycles
 SCF Done:  E(UB3LYP) =  -866.737096567     a.u. after    1 cycles

 The electronic state is 2-A.
 Alpha  occ. eigenvalues --  -88.72868 -19.00924 -10.15752 -10.10794 -10.10699
 Alpha  occ. eigenvalues --  -10.08256 -10.07884 -10.06915 -10.06719 -10.06512
 Alpha  occ. eigenvalues --  -10.06323 -10.05849  -7.81508  -5.77922  -5.77517
 Alpha  occ. eigenvalues --   -5.76869  -0.94292  -0.73808  -0.71091  -0.66111
 Alpha  occ. eigenvalues --   -0.64671  -0.60269  -0.59917  -0.58049  -0.52929
 Alpha  occ. eigenvalues --   -0.48690  -0.45615  -0.43000  -0.37739  -0.36749
 Alpha  occ. eigenvalues --   -0.36032  -0.35543  -0.35002  -0.33966  -0.32881
 Alpha  occ. eigenvalues --   -0.31785  -0.31198  -0.30465  -0.29833  -0.29230
 Alpha  occ. eigenvalues --   -0.28968  -0.27480  -0.27044  -0.25964  -0.25631
 Alpha  occ. eigenvalues --   -0.24571  -0.23974  -0.23574  -0.21254  -0.18883
 Alpha  occ. eigenvalues --   -0.15205  -0.12147   0.04364
 Alpha virt. eigenvalues --    0.06404   0.07165   0.07704   0.08141   0.08847
 Alpha virt. eigenvalues --    0.09335   0.09997   0.10314   0.10646   0.11368
 Alpha virt. eigenvalues --    0.11773   0.12089   0.12308   0.12990   0.13087

  Beta  occ. eigenvalues --  -88.72868 -19.00891 -10.15698 -10.10787 -10.10697
  Beta  occ. eigenvalues --  -10.08245 -10.07854 -10.06879 -10.06691 -10.06485
  Beta  occ. eigenvalues --  -10.06290 -10.05839  -7.81508  -5.77921  -5.77517
  Beta  occ. eigenvalues --   -5.76869  -0.94216  -0.73786  -0.71059  -0.66047
  Beta  occ. eigenvalues --   -0.64617  -0.60226  -0.59855  -0.58002  -0.52872
  Beta  occ. eigenvalues --   -0.48632  -0.45569  -0.42901  -0.37663  -0.36676
  Beta  occ. eigenvalues --   -0.35995  -0.35484  -0.34955  -0.33909  -0.32844
  Beta  occ. eigenvalues --   -0.31742  -0.31155  -0.30419  -0.29789  -0.29206
  Beta  occ. eigenvalues --   -0.28928  -0.27446  -0.27003  -0.25926  -0.25525
  Beta  occ. eigenvalues --   -0.24490  -0.23941  -0.23550  -0.21223  -0.18862
  Beta  occ. eigenvalues --   -0.15168  -0.12137
  Beta virt. eigenvalues --    0.06673   0.07344   0.07788   0.08102   0.08545
  Beta virt. eigenvalues --    0.09289   0.09912   0.10268   0.10597   0.10963
  Beta virt. eigenvalues --    0.11773   0.12230   0.12456   0.12589   0.13216

 Mulliken charges and spin densities:
               1          2
     1  C    1.251948  -1.854994
     2  C   -1.040798   1.571371
     3  C   -0.501211  -0.315581
     4  C   -0.341825   0.367155
     5  C    0.654966  -1.390157
     6  S    0.105360  -0.000688
     7  C   -0.742955   0.825137
     8  C    0.593420  -1.327165
     9  C    1.413544  -1.700181
    10  C   -1.535428   1.601378
    11  O   -0.201016  -0.016085
    12  C    0.884250  -1.535741
    13  H   -0.046179   0.178181
    14  H   -0.375756   0.528579
    15  H   -0.284112   0.433764
    16  H    0.370289  -0.270417
    17  H    0.073969   0.048051
    18  H    0.296111  -0.157547
    19  H   -0.042914   0.171621
    20  H    0.172410   0.073579
    21  H   -0.300379   0.477996
    22  H    0.042793   0.107226
    23  H    0.019243   0.113756
    24  H    0.244443   0.039364
    25  H   -0.013182   0.161209
    26  H   -0.298411   0.429885
    27  H    0.027924   0.102699
    28  H   -0.560658   0.796702
    29  H   -0.020211   0.199212
    30  H   -0.587416   0.766505
    31  H   -0.175584   0.330645
    32  H   -0.082635   0.244541
 Sum of Mulliken charges =  -1.00000   1.00000

 Dipole moment (field-independent basis, Debye):
    X=              2.1004    Y=              1.8903    Z=              5.1302  Tot=              5.8569
 Quadrupole moment (field-independent basis, Debye-Ang):
   XX=           -143.3974   YY=           -128.5997   ZZ=           -133.2474
   XY=             -0.5618   XZ=             -0.1341   YZ=             -2.8458

 Summary of Natural Population Analysis:

                                       Natural Population
                Natural  -----------------------------------------------
    Atom  No    Charge         Core      Valence    Rydberg      Total
 -----------------------------------------------------------------------
      C    1   -0.28355      0.99965     2.27744    0.00646     3.28355
      C    2   -0.12410      0.99957     2.11355    0.01098     3.12410
      C    3   -0.28870      0.99964     2.28281    0.00624     3.28870
      C    4   -0.16282      0.99954     2.14960    0.01368     3.16282
      C    5   -0.29152      0.99963     2.28531    0.00658     3.29152
      S    6    0.08875      4.99959     2.89620    0.01545     7.91125
      C    7   -0.16955      0.99956     2.15692    0.01308     3.16955
      C    8   -0.28640      0.99963     2.28031    0.00647     3.28640
      C    9   -0.24720      0.99953     2.23583    0.01184     3.24720
      C   10    0.30426      0.99968     1.67479    0.02127     2.69574
      O   11   -0.28689      0.99987     3.28076    0.00625     4.28689
      C   12   -0.33360      0.99961     2.32827    0.00571     3.33360
      H   13    0.09440      0.00000     0.40457    0.00103     0.40560
      H   14    0.10243      0.00000     0.39638    0.00119     0.39757
      H   15    0.10171      0.00000     0.39727    0.00103     0.39829
      H   16    0.09414      0.00000     0.40264    0.00322     0.40586
      H   17    0.09487      0.00000     0.40434    0.00079     0.40513
      H   18    0.11194      0.00000     0.38715    0.00091     0.38806
      H   19    0.09747      0.00000     0.40177    0.00076     0.40253
      H   20    0.10136      0.00000     0.39754    0.00110     0.39864
      H   21    0.10015      0.00000     0.39835    0.00151     0.39985
      H   22    0.10416      0.00000     0.39490    0.00094     0.39584
      H   23    0.10246      0.00000     0.39650    0.00105     0.39754
      H   24    0.11285      0.00000     0.38532    0.00183     0.38715
      H   25    0.10022      0.00000     0.39849    0.00129     0.39978
      H   26    0.10039      0.00000     0.39841    0.00120     0.39961
      H   27    0.10130      0.00000     0.39769    0.00101     0.39870
      H   28    0.12147      0.00000     0.37506    0.00347     0.37853
      H   29    0.10677      0.00000     0.39080    0.00243     0.39323
      H   30    0.11384      0.00000     0.38296    0.00321     0.38616
      H   31    0.11132      0.00000     0.38729    0.00139     0.38868
      H   32    0.10810      0.00000     0.39097    0.00094     0.39190
 =======================================================================
   * Total *   -0.00000     15.99551    35.85019    0.15430    52.00000

 Normal termination of Gaussian 16 at Wed Dec  9 18:28:00 2020.
