 Gaussian 16, Revision A.03,

 -----------------------------------------------------------
 # opt freq B3LYP/6-31G(d) empiricaldispersion=gd3bj scf=xqc
 -----------------------------------------------------------

 --------------------------------
 CID_111468688_JID_10163_neutraal
 --------------------------------
 Symbolic Z-matrix:
 Charge =  0 Multiplicity = 1

 SCF Done:  E(RB3LYP) =  -900.173391117     A.U. after   14 cycles
 SCF Done:  E(RB3LYP) =  -900.179067901     A.U. after   12 cycles
 SCF Done:  E(RB3LYP) =  -900.180240092     A.U. after   12 cycles
 SCF Done:  E(RB3LYP) =  -900.180995401     A.U. after   11 cycles
 SCF Done:  E(RB3LYP) =  -900.181501821     A.U. after   12 cycles
 SCF Done:  E(RB3LYP) =  -900.181862265     A.U. after   11 cycles
 SCF Done:  E(RB3LYP) =  -900.182081096     A.U. after   11 cycles
 SCF Done:  E(RB3LYP) =  -900.182162222     A.U. after   11 cycles
 SCF Done:  E(RB3LYP) =  -900.182207541     A.U. after   10 cycles
 SCF Done:  E(RB3LYP) =  -900.182214410     A.U. after   11 cycles
 SCF Done:  E(RB3LYP) =  -900.182269033     A.U. after    8 cycles
 SCF Done:  E(RB3LYP) =  -900.182269360     A.U. after    8 cycles
 SCF Done:  E(RB3LYP) =  -900.182269603     A.U. after    8 cycles
 SCF Done:  E(RB3LYP) =  -900.182269647     A.U. after    7 cycles
 Optimization completed.
    -- Stationary point found.
 Normal termination of Gaussian 16 at Mon Dec 14 13:38:52 2020.

 --------------------------------------------------------------------
 #N Geom=AllCheck Guess=TCheck SCRF=Check GenChk RB3LYP/6-31G(d) Freq
 --------------------------------------------------------------------

 Structure from the checkpoint file:  "JID_10163.chk"
 --------------------------------
 CID_111468688_JID_10163_neutraal
 --------------------------------
 Charge =  0 Multiplicity = 1

 SCF Done:  E(RB3LYP) =  -900.182269647     A.U. after    1 cycles

  Exact polarizability: 244.038   3.618 179.410  -8.206  -2.185 116.803
 Approx polarizability: 296.138   2.148 287.023 -18.053  -7.342 183.149

                      1                      2                      3
                      A                      A                      A
 Frequencies --     18.0310                21.1679                36.6115
 Red. masses --      4.3253                 3.8974                 4.2412
 Frc consts  --      0.0008                 0.0010                 0.0033
 IR Inten    --      0.4992                 0.1963                 0.2151

                      4                      5                      6
                      A                      A                      A
 Frequencies --     42.8936                46.7867                62.1399
 Red. masses --      4.1999                 2.5869                 3.4510
 Frc consts  --      0.0046                 0.0033                 0.0079
 IR Inten    --      0.7647                 0.1343                 0.5464

                      7                      8                      9
                      A                      A                      A
 Frequencies --     96.5232               106.0199               113.2256
 Red. masses --      3.8708                 2.7595                 1.2413
 Frc consts  --      0.0212                 0.0183                 0.0094
 IR Inten    --      1.5993                 1.1186                 0.1016

                     10                     11                     12
                      A                      A                      A
 Frequencies --    130.4356               141.4492               153.3272
 Red. masses --      1.2317                 2.4926                 4.2394
 Frc consts  --      0.0123                 0.0294                 0.0587
 IR Inten    --      1.0707                 0.8673                 3.2787

                     13                     14                     15
                      A                      A                      A
 Frequencies --    169.4462               216.7225               229.8577
 Red. masses --      2.7454                 1.1926                 1.7971
 Frc consts  --      0.0464                 0.0330                 0.0559
 IR Inten    --      0.3346                 0.6820                 2.3376

                     16                     17                     18
                      A                      A                      A
 Frequencies --    245.7666               270.4623               277.4752
 Red. masses --      2.2797                 1.9989                 2.9125
 Frc consts  --      0.0811                 0.0861                 0.1321
 IR Inten    --      1.3332                 1.4337                 6.9841

                     19                     20                     21
                      A                      A                      A
 Frequencies --    300.8247               309.4671               315.9907
 Red. masses --      1.9468                 2.5403                 2.1460
 Frc consts  --      0.1038                 0.1433                 0.1263
 IR Inten    --      2.6071                 1.1981                 2.0603

                     22                     23                     24
                      A                      A                      A
 Frequencies --    326.0527               341.8432               360.1455
 Red. masses --      1.4407                 2.9832                 3.6957
 Frc consts  --      0.0902                 0.2054                 0.2824
 IR Inten    --     60.2783                 9.0213                 0.9088

                     25                     26                     27
                      A                      A                      A
 Frequencies --    376.1031               420.6164               444.0670
 Red. masses --      1.9944                 3.7514                 4.1634
 Frc consts  --      0.1662                 0.3910                 0.4837
 IR Inten    --     71.7154                 2.8617                 2.7292

                     28                     29                     30
                      A                      A                      A
 Frequencies --    457.0736               497.6562               537.6524
 Red. masses --      4.2608                 3.2820                 2.7690
 Frc consts  --      0.5245                 0.4789                 0.4716
 IR Inten    --     10.8125                 6.6913                 7.8980

                     31                     32                     33
                      A                      A                      A
 Frequencies --    598.6933               609.6182               638.0239
 Red. masses --      4.0528                 3.4059                 3.4137
 Frc consts  --      0.8559                 0.7458                 0.8188
 IR Inten    --      1.2702                 4.0782                 2.2502

                     34                     35                     36
                      A                      A                      A
 Frequencies --    662.6195               685.6994               703.9962
 Red. masses --      6.5630                 2.2864                 4.2272
 Frc consts  --      1.6978                 0.6334                 1.2344
 IR Inten    --      0.2487                22.0332                11.9715

                     37                     38                     39
                      A                      A                      A
 Frequencies --    712.1968               736.7675               759.4275
 Red. masses --      2.7168                 1.6293                 2.7027
 Frc consts  --      0.8119                 0.5211                 0.9184
 IR Inten    --      5.7983                31.6816                 7.0713

                     40                     41                     42
                      A                      A                      A
 Frequencies --    781.0920               809.7931               815.3925
 Red. masses --      1.7282                 1.2885                 1.2590
 Frc consts  --      0.6212                 0.4978                 0.4932
 IR Inten    --    121.2857                 1.2161                18.2179

                     43                     44                     45
                      A                      A                      A
 Frequencies --    842.5804               855.6358               866.8657
 Red. masses --      3.0845                 2.6682                 1.3247
 Frc consts  --      1.2902                 1.1509                 0.5865
 IR Inten    --      3.8381                 1.5831                 0.6257

                     46                     47                     48
                      A                      A                      A
 Frequencies --    907.7506               915.1365               951.7893
 Red. masses --      6.2489                 2.7751                 2.8651
 Frc consts  --      3.0338                 1.3693                 1.5292
 IR Inten    --      7.1041                 7.7834                18.0053

                     49                     50                     51
                      A                      A                      A
 Frequencies --    961.8808               973.5579               984.6010
 Red. masses --      1.9497                 1.9456                 1.9325
 Frc consts  --      1.0628                 1.0865                 1.1038
 IR Inten    --      2.8331                10.4579                12.5354

                     52                     53                     54
                      A                      A                      A
 Frequencies --   1027.4398              1041.8949              1044.8619
 Red. masses --      1.7601                 1.6339                 1.9072
 Frc consts  --      1.0947                 1.0450                 1.2268
 IR Inten    --      9.3907                37.0212                14.0197

                     55                     56                     57
                      A                      A                      A
 Frequencies --   1077.1688              1078.3305              1084.5865
 Red. masses --      1.4666                 1.5144                 1.8702
 Frc consts  --      1.0026                 1.0375                 1.2962
 IR Inten    --      1.9447                 4.7765                 3.8661

                     58                     59                     60
                      A                      A                      A
 Frequencies --   1097.0940              1100.7572              1111.1556
 Red. masses --      2.0986                 2.0963                 2.5849
 Frc consts  --      1.4882                 1.4966                 1.8804
 IR Inten    --      0.0152                74.1352                14.4959

                     61                     62                     63
                      A                      A                      A
 Frequencies --   1115.4383              1151.8031              1173.0261
 Red. masses --      1.9072                 2.7033                 3.5066
 Frc consts  --      1.3981                 2.1130                 2.8429
 IR Inten    --      7.5743                21.3988                87.5425

                     64                     65                     66
                      A                      A                      A
 Frequencies --   1176.8673              1189.2889              1193.7383
 Red. masses --      2.3005                 2.5887                 2.0517
 Frc consts  --      1.8773                 2.1573                 1.7226
 IR Inten    --     26.9175                 7.9334                 8.2927

                     67                     68                     69
                      A                      A                      A
 Frequencies --   1243.1274              1244.4949              1262.9604
 Red. masses --      2.7263                 3.0130                 1.3068
 Frc consts  --      2.4823                 2.7494                 1.2281
 IR Inten    --      2.7575                 8.7489                16.3729

                     70                     71                     72
                      A                      A                      A
 Frequencies --   1275.9848              1303.6887              1346.7949
 Red. masses --      1.8637                 2.4019                 1.2357
 Frc consts  --      1.7878                 2.4052                 1.3206
 IR Inten    --     15.8762                 7.3407                 5.0524

                     73                     74                     75
                      A                      A                      A
 Frequencies --   1363.5924              1368.1857              1406.1760
 Red. masses --      1.9145                 1.4319                 1.3438
 Frc consts  --      2.0973                 1.5792                 1.5655
 IR Inten    --     40.6686                52.2353                27.8515

                     76                     77                     78
                      A                      A                      A
 Frequencies --   1409.3792              1410.8927              1428.9999
 Red. masses --      1.5283                 1.5986                 2.1606
 Frc consts  --      1.7886                 1.8749                 2.5995
 IR Inten    --     14.2304                11.0416                 9.6428

                     79                     80                     81
                      A                      A                      A
 Frequencies --   1433.7088              1434.5449              1435.0087
 Red. masses --      1.4036                 1.3432                 1.2688
 Frc consts  --      1.6998                 1.6287                 1.5394
 IR Inten    --      1.4573                 6.9902                11.4420

                     82                     83                     84
                      A                      A                      A
 Frequencies --   1437.3331              1443.9129              1494.1094
 Red. masses --      1.6402                 1.5710                 1.0943
 Frc consts  --      1.9965                 1.9298                 1.4394
 IR Inten    --     10.8560                13.0275                 1.9390

                     85                     86                     87
                      A                      A                      A
 Frequencies --   1497.6257              1506.7595              1511.7173
 Red. masses --      1.4381                 1.0864                 1.1929
 Frc consts  --      1.9004                 1.4532                 1.6061
 IR Inten    --     47.5322                 1.0709                30.6113

                     88                     89                     90
                      A                      A                      A
 Frequencies --   1513.0982              1517.6393              1519.5950
 Red. masses --      1.0924                 1.3006                 1.1420
 Frc consts  --      1.4736                 1.7649                 1.5537
 IR Inten    --     19.6065                 4.7730                10.2864

                     91                     92                     93
                      A                      A                      A
 Frequencies --   1523.1149              1527.0708              1529.0349
 Red. masses --      1.0901                 1.0655                 1.1315
 Frc consts  --      1.4900                 1.4640                 1.5586
 IR Inten    --     10.1591                 1.1685                 7.7921

                     94                     95                     96
                      A                      A                      A
 Frequencies --   1531.9465              1536.8061              1543.9758
 Red. masses --      1.7571                 1.2602                 2.4701
 Frc consts  --      2.4296                 1.7536                 3.4693
 IR Inten    --     12.2260                 7.4533                13.9649

                     97                     98                     99
                      A                      A                      A
 Frequencies --   1551.0354              1553.8554              1623.8828
 Red. masses --      2.8447                 1.3276                 6.0027
 Frc consts  --      4.0321                 1.8886                 9.3263
 IR Inten    --      7.7584                 3.9490                35.9019

                    100                    101                    102
                      A                      A                      A
 Frequencies --   1646.3960              3025.1841              3036.5832
 Red. masses --      6.1065                 1.0628                 1.0416
 Frc consts  --      9.7523                 5.7307                 5.6589
 IR Inten    --      1.9129                30.8340                41.3787

                    103                    104                    105
                      A                      A                      A
 Frequencies --   3043.0436              3052.5587              3056.5491
 Red. masses --      1.0403                 1.0543                 1.0353
 Frc consts  --      5.6755                 5.7883                 5.6990
 IR Inten    --     26.5323                49.4037                25.9752

                    106                    107                    108
                      A                      A                      A
 Frequencies --   3057.0419              3059.6931              3082.6284
 Red. masses --      1.0438                 1.0927                 1.0646
 Frc consts  --      5.7475                 6.0271                 5.9607
 IR Inten    --      8.9613                21.5436                16.9845

                    109                    110                    111
                      A                      A                      A
 Frequencies --   3086.7830              3091.0131              3102.9330
 Red. masses --      1.0956                 1.1006                 1.1053
 Frc consts  --      6.1504                 6.1954                 6.2700
 IR Inten    --     28.8550                23.4357                19.5230

                    112                    113                    114
                      A                      A                      A
 Frequencies --   3120.1777              3125.9242              3132.9331
 Red. masses --      1.1035                 1.1016                 1.1012
 Frc consts  --      6.3295                 6.3422                 6.3680
 IR Inten    --     14.4124                19.3309                31.9326

                    115                    116                    117
                      A                      A                      A
 Frequencies --   3138.2198              3141.1054              3147.9757
 Red. masses --      1.1031                 1.0994                 1.1050
 Frc consts  --      6.4006                 6.3913                 6.4520
 IR Inten    --     35.8501                14.5474                25.9513

                    118                    119                    120
                      A                      A                      A
 Frequencies --   3152.1906              3267.7388              3282.3423
 Red. masses --      1.0979                 1.0907                 1.0973
 Frc consts  --      6.4276                 6.8619                 6.9653
 IR Inten    --      0.9869                 5.5170                 1.6799

                    121                    122                    123
                      A                      A                      A
 Frequencies --   3304.1276              3509.3878              3730.0026
 Red. masses --      1.1051                 1.0740                 1.0660
 Frc consts  --      7.1082                 7.7931                 8.7380
 IR Inten    --      1.7203                 0.3997                15.8308

 - Thermochemistry -
 -------------------
 Temperature   298.150 Kelvin.  Pressure   1.00000 Atm.
 Atom     1 has atomic number  6 and mass  12.00000

 Molecular mass:   277.17903 amu.
 Principal axes and moments of inertia in atomic units:
                           1         2         3
     Eigenvalues --  1797.99725********************
           X            0.99998   0.00499   0.00349
           Y           -0.00501   0.99996   0.00684
           Z           -0.00346  -0.00685   0.99997
 This molecule is an asymmetric top.
 Rotational symmetry number  1.
 Warning -- assumption of classical behavior for rotation
           may cause significant error
 Rotational temperatures (Kelvin)      0.04817     0.00596     0.00552
 Rotational constants (GHZ):           1.00375     0.12428     0.11506
 Zero-point vibrational energy     972713.4 (Joules/Mol)
                                  232.48409 (Kcal/Mol)
 Warning -- explicit consideration of  32 degrees of freedom as
           vibrations may cause significant error
 Vibrational temperatures:     25.94    30.46    52.68    61.71    67.32
          (Kelvin)             89.41   138.88   152.54   162.91   187.67
                              203.51   220.60   243.80   311.82   330.71
                              353.60   389.13   399.22   432.82   445.25
                              454.64   469.12   491.84   518.17   541.13
                              605.17   638.91   657.63   716.02   773.56
                              861.39   877.10   917.97   953.36   986.57
                             1012.89  1024.69  1060.04  1092.65  1123.82
                             1165.11  1173.17  1212.29  1231.07  1247.23
                             1306.05  1316.68  1369.41  1383.93  1400.73
                             1416.62  1478.26  1499.05  1503.32  1549.81
                             1551.48  1560.48  1578.47  1583.74  1598.71
                             1604.87  1657.19  1687.72  1693.25  1711.12
                             1717.52  1788.58  1790.55  1817.12  1835.86
                             1875.72  1937.74  1961.91  1968.51  2023.17
                             2027.78  2029.96  2056.01  2062.79  2063.99
                             2064.66  2068.00  2077.47  2149.69  2154.75
                             2167.89  2175.02  2177.01  2183.54  2186.36
                             2191.42  2197.11  2199.94  2204.13  2211.12
                             2221.44  2231.59  2235.65  2336.41  2368.80
                             4352.57  4368.97  4378.26  4391.95  4397.69
                             4398.40  4402.22  4435.21  4441.19  4447.28
                             4464.43  4489.24  4497.51  4507.59  4515.20
                             4519.35  4529.23  4535.30  4701.55  4722.56
                             4753.90  5049.23  5366.64

 Zero-point correction=                           0.370487 (Hartree/Particle)
 Thermal correction to Energy=                    0.392000
 Thermal correction to Enthalpy=                  0.392944
 Thermal correction to Gibbs Free Energy=         0.317483
 Sum of electronic and zero-point Energies=           -899.811783
 Sum of electronic and thermal Energies=              -899.790269
 Sum of electronic and thermal Enthalpies=            -899.789325
 Sum of electronic and thermal Free Energies=         -899.864787

                     E (Thermal)             CV                S
                      KCal/Mol        Cal/Mol-Kelvin    Cal/Mol-Kelvin
 Total                  245.984             79.375            158.823
 Electronic               0.000              0.000              0.000
 Translational            0.889              2.981             42.757
 Rotational               0.889              2.981             34.370
 Vibrational            244.206             73.414             81.696
 Vibration     1          0.593              1.986              6.840
 Vibration     2          0.593              1.985              6.522
 Vibration     3          0.594              1.982              5.434
 Vibration     4          0.595              1.980              5.121
 Vibration     5          0.595              1.979              4.949
 Vibration     6          0.597              1.972              4.388
 Vibration     7          0.603              1.952              3.523
 Vibration     8          0.605              1.944              3.341
 Vibration     9          0.607              1.938              3.213
 Vibration    10          0.612              1.923              2.940
 Vibration    11          0.615              1.912              2.784
 Vibration    12          0.619              1.899              2.631
 Vibration    13          0.625              1.880              2.442
 Vibration    14          0.646              1.816              1.986
 Vibration    15          0.652              1.795              1.880
 Vibration    16          0.660              1.770              1.761
 Vibration    17          0.674              1.728              1.593
 Vibration    18          0.678              1.715              1.549
 Vibration    19          0.693              1.672              1.412
 Vibration    20          0.699              1.656              1.365
 Vibration    21          0.703              1.643              1.331
 Vibration    22          0.710              1.623              1.280
 Vibration    23          0.721              1.592              1.204
 Vibration    24          0.735              1.554              1.121
 Vibration    25          0.747              1.521              1.055
 Vibration    26          0.783              1.425              0.890
 Vibration    27          0.804              1.374              0.814
 Vibration    28          0.815              1.345              0.775
 Vibration    29          0.853              1.255              0.664
 Vibration    30          0.893              1.167              0.570
 Vibration    31          0.957              1.035              0.452
 Vibration    32          0.969              1.011              0.433

                           ! Non-Optimized Parameters !
 Normal termination of Gaussian 16 at Mon Dec 14 13:59:36 2020.

 ----------------------------------------------------------------------
 # B3LYP/6-311++G(d,p) empiricaldispersion=gd3bj scf=xqc pop=npa geom=c
 heck
 ----------------------------------------------------------------------

 ----------------------------------------
 CID_111468688_JID_10163_Energie_neutraal
 ----------------------------------------
 Structure from the checkpoint file:  "JID_10163.chk"
 Charge =  0 Multiplicity = 1

 SCF Done:  E(RB3LYP) =  -900.438099937     A.U. after   15 cycles
 Normal termination of Gaussian 16 at Mon Dec 14 14:08:33 2020.

 ----------------------------------------------------------------------
 # B3LYP/6-311++G(d,p) empiricaldispersion=gd3bj scf=xqc pop=npa geom=c
 heck
 ----------------------------------------------------------------------

 --------------------------------------
 CID_111468688_JID_10163_Energie_kation
 --------------------------------------
 Structure from the checkpoint file:  "JID_10163.chk"
 Charge =  1 Multiplicity = 2

 SCF Done:  E(UB3LYP) =  -900.160886524     A.U. after   33 cycles
 SCF Done:  E(UB3LYP) =  -900.160886524     a.u. after    2 cycles
 Normal termination of Gaussian 16 at Mon Dec 14 15:07:43 2020.
 Gaussian 16:  ES64L-G16RevA.03 25-Dec-2016

 ----------------------------------------------------------------------
 # B3LYP/6-311++G(d,p) empiricaldispersion=gd3bj scf=xqc pop=npa geom=c
 heck
 ----------------------------------------------------------------------

 -------------------------------------
 CID_111468688_JID_10163_Energie_anion
 -------------------------------------
 Structure from the checkpoint file:  "JID_10163.chk"
 Charge = -1 Multiplicity = 2

                         Standard orientation:
 ---------------------------------------------------------------------
 Center     Atomic      Atomic             Coordinates (Angstroms)
 Number     Number       Type             X           Y           Z
 ---------------------------------------------------------------------
      1          6           0       -6.240597   -0.793955   -0.641845
      2          6           0       -5.392577   -0.693105    0.626676
      3          7           0       -4.084107   -0.118385    0.369721
      4          6           0       -2.938453   -0.757294   -0.005294
      5          6           0       -2.006499    0.240557   -0.264721
      6          6           0       -2.695489    1.457424   -0.018933
      7          7           0       -3.956448    1.234745    0.355513
      8          6           0       -2.173094    2.857203   -0.127314
      9          6           0       -0.576567    0.072083   -0.677610
     10          7           0        0.147313   -0.762213    0.297737
     11          6           0        1.559442   -0.984695    0.044045
     12          6           0        2.513589    0.234812    0.085634
     13          6           0        2.276205    1.102178    1.331371
     14          6           0        3.940142   -0.244529    0.045842
     15          6           0        4.573794   -1.448880    0.119340
     16          6           0        5.981119   -1.187500   -0.011055
     17          6           0        6.105652    0.157481   -0.157633
     18          8           0        4.874298    0.751635   -0.121544
     19          8           0        2.252672    1.008689   -1.098794
     20          6           0       -2.807123   -2.242901   -0.094839
     21          1           0       -6.357958    0.197170   -1.089779
     22          1           0       -7.233448   -1.195198   -0.409802
     23          1           0       -5.766700   -1.451167   -1.378794
     24          1           0       -5.876265   -0.048105    1.364357
     25          1           0       -5.249845   -1.678504    1.080863
     26          1           0       -1.294094    3.011965    0.510953
     27          1           0       -1.871770    3.099466   -1.153653
     28          1           0       -2.948759    3.563975    0.179007
     29          1           0       -0.497210   -0.438741   -1.647598
     30          1           0       -0.120142    1.059469   -0.822787
     31          1           0       -0.001706   -0.389821    1.232536
     32          1           0        1.912966   -1.709025    0.787227
     33          1           0        1.665604   -1.445055   -0.944838
     34          1           0        2.409192    0.518828    2.249580
     35          1           0        2.987317    1.933982    1.356312
     36          1           0        1.263262    1.514887    1.313071
     37          1           0        4.105609   -2.413994    0.245017
     38          1           0        6.783564   -1.911509    0.001031
     39          1           0        6.943637    0.823772   -0.291507
     40          1           0        2.956369    1.675154   -1.159325
     41          1           0       -3.329849   -2.652796   -0.969241
     42          1           0       -1.747182   -2.496581   -0.165608
     43          1           0       -3.212934   -2.743069    0.792883
 ---------------------------------------------------------------------

 SCF Done:  E(UB3LYP) =  -900.426985719     A.U. after   33 cycles
 SCF Done:  E(UB3LYP) =  -900.426985720     a.u. after    1 cycles

 The electronic state is 2-A.
 Alpha  occ. eigenvalues --  -19.10917 -19.04099 -14.29026 -14.22908 -14.21225
 Alpha  occ. eigenvalues --  -10.15843 -10.14399 -10.14079 -10.12911 -10.11814
 Alpha  occ. eigenvalues --  -10.11102 -10.10450 -10.10188 -10.09217 -10.09172
 Alpha  occ. eigenvalues --  -10.08544 -10.08500 -10.08299 -10.08237 -10.07049
 Alpha  occ. eigenvalues --   -1.03234  -0.95322  -0.94547  -0.82042  -0.76416
 Alpha  occ. eigenvalues --   -0.72626  -0.71822  -0.70640  -0.67586  -0.64966
 Alpha  occ. eigenvalues --   -0.63335  -0.61823  -0.60746  -0.57648  -0.53843
 Alpha  occ. eigenvalues --   -0.52883  -0.50801  -0.48539  -0.47482  -0.46744
 Alpha  occ. eigenvalues --   -0.45549  -0.41883  -0.41132  -0.39298  -0.38566
 Alpha  occ. eigenvalues --   -0.37873  -0.37271  -0.37010  -0.35823  -0.34586
 Alpha  occ. eigenvalues --   -0.34108  -0.33680  -0.33331  -0.33125  -0.32548
 Alpha  occ. eigenvalues --   -0.32281  -0.31785  -0.31045  -0.30889  -0.30193
 Alpha  occ. eigenvalues --   -0.29927  -0.28969  -0.28379  -0.27934  -0.27565
 Alpha  occ. eigenvalues --   -0.27333  -0.26900  -0.26509  -0.20487  -0.20168
 Alpha  occ. eigenvalues --   -0.19947  -0.15147  -0.15071  -0.14566  -0.13729
 Alpha  occ. eigenvalues --    0.03606
 Alpha virt. eigenvalues --    0.04722   0.06065   0.06323   0.07060   0.07187
 Alpha virt. eigenvalues --    0.07414   0.07675   0.08255   0.08581   0.09338
 Alpha virt. eigenvalues --    0.09421   0.09762   0.10092   0.10323   0.10845

  Beta  occ. eigenvalues --  -19.10908 -19.04085 -14.29027 -14.22901 -14.21218
  Beta  occ. eigenvalues --  -10.15841 -10.14400 -10.14060 -10.12893 -10.11812
  Beta  occ. eigenvalues --  -10.11093 -10.10445 -10.10187 -10.09205 -10.09160
  Beta  occ. eigenvalues --  -10.08516 -10.08475 -10.08292 -10.08213 -10.07048
  Beta  occ. eigenvalues --   -1.03219  -0.95317  -0.94518  -0.82030  -0.76404
  Beta  occ. eigenvalues --   -0.72609  -0.71804  -0.70619  -0.67565  -0.64940
  Beta  occ. eigenvalues --   -0.63308  -0.61795  -0.60713  -0.57617  -0.53802
  Beta  occ. eigenvalues --   -0.52853  -0.50769  -0.48527  -0.47449  -0.46706
  Beta  occ. eigenvalues --   -0.45527  -0.41855  -0.41105  -0.39271  -0.38541
  Beta  occ. eigenvalues --   -0.37854  -0.37251  -0.36988  -0.35799  -0.34558
  Beta  occ. eigenvalues --   -0.34087  -0.33653  -0.33311  -0.33098  -0.32522
  Beta  occ. eigenvalues --   -0.32255  -0.31761  -0.31028  -0.30869  -0.30175
  Beta  occ. eigenvalues --   -0.29906  -0.28948  -0.28356  -0.27910  -0.27545
  Beta  occ. eigenvalues --   -0.27313  -0.26884  -0.26492  -0.20473  -0.20152
  Beta  occ. eigenvalues --   -0.19927  -0.15135  -0.15058  -0.14555  -0.13719
  Beta virt. eigenvalues --    0.05421   0.05772   0.06547   0.06887   0.07313
  Beta virt. eigenvalues --    0.07510   0.07615   0.07932   0.08479   0.08983
  Beta virt. eigenvalues --    0.09407   0.09529   0.09860   0.10255   0.10491

 Mulliken charges and spin densities:
               1          2
     1  C    0.361441  -0.802542
     2  C   -0.442770   0.252295
     3  N    0.282861   0.026801
     4  C   -1.280435   0.858238
     5  C    1.910391  -0.443305
     6  C   -0.089035  -0.210364
     7  N   -0.201118   0.103105
     8  C   -0.465994  -0.289726
     9  C   -1.857027   0.466270
    10  N    0.038634   0.054087
    11  C   -0.218750  -0.756831
    12  C    1.550074  -1.052372
    13  C    0.145894  -0.701708
    14  C   -0.154983  -0.564834
    15  C   -1.658948   2.188437
    16  C    1.541522  -2.157151
    17  C   -0.192814   0.263833
    18  O   -0.059528   0.042024
    19  O   -0.101421  -0.004768
    20  C    0.922640  -1.334027
    21  H    0.136401   0.018365
    22  H   -0.334686   0.470076
    23  H   -0.070957   0.220231
    24  H   -0.026997   0.209684
    25  H   -0.087033   0.204263
    26  H   -0.025750   0.176722
    27  H    0.107843   0.046061
    28  H    0.143277   0.008375
    29  H    0.046055   0.105168
    30  H    0.305177  -0.064693
    31  H    0.121209   0.118484
    32  H   -0.145275   0.328071
    33  H    0.208149  -0.011620
    34  H   -0.036145   0.213283
    35  H   -0.181147   0.342679
    36  H    0.386356  -0.235667
    37  H   -0.205720   0.395341
    38  H   -0.538460   0.714867
    39  H   -0.860739   1.050490
    40  H    0.133563   0.131006
    41  H   -0.065997   0.230422
    42  H    0.158704   0.042836
    43  H   -0.198461   0.348094
 Sum of Mulliken charges =  -1.00000   1.00000

 Dipole moment (field-independent basis, Debye):
    X=             -2.6600    Y=              2.0582    Z=             -0.4701  Tot=              3.3960
 Quadrupole moment (field-independent basis, Debye-Ang):
   XX=           -288.6821   YY=           -165.6669   ZZ=           -151.6469
   XY=             -7.7914   XZ=              1.2981   YZ=              0.3637

 Summary of Natural Population Analysis:

                                       Natural Population
                Natural  -----------------------------------------------
    Atom  No    Charge         Core      Valence    Rydberg      Total
 -----------------------------------------------------------------------
      C    1   -0.28967      0.99966     2.28526    0.00475     3.28967
      C    2   -0.08347      0.99962     2.07305    0.01080     3.08347
      N    3   -0.11270      0.99961     2.60026    0.01283     3.61270
      C    4    0.10166      0.99947     1.88775    0.01112     2.89834
      C    5   -0.08049      0.99941     2.07225    0.00883     3.08049
      C    6    0.07865      0.99955     1.90854    0.01327     2.92135
      N    7   -0.16779      0.99970     2.65717    0.01092     3.66779
      C    8   -0.29911      0.99963     2.29466    0.00483     3.29911
      C    9   -0.09520      0.99959     2.08652    0.00910     3.09520
      N   10   -0.33803      0.99975     2.82739    0.01089     3.83803
      C   11   -0.08793      0.99958     2.07517    0.01319     3.08793
      C   12    0.10086      0.99948     1.88510    0.01455     2.89914
      C   13   -0.29790      0.99962     2.29035    0.00793     3.29790
      C   14    0.14465      0.99942     1.83871    0.01721     2.85535
      C   15   -0.14529      0.99949     2.13733    0.00848     3.14529
      C   16   -0.14738      0.99957     2.13853    0.00928     3.14738
      C   17    0.06241      0.99950     1.92391    0.01418     2.93759
      O   18   -0.24593      0.99986     3.23646    0.00961     4.24593
      O   19   -0.37414      0.99989     3.36764    0.00660     4.37414
      C   20   -0.30868      0.99963     2.30347    0.00557     3.30868
      H   21    0.10300      0.00000     0.39601    0.00098     0.39700
      H   22    0.10045      0.00000     0.39835    0.00120     0.39955
      H   23    0.09948      0.00000     0.39949    0.00103     0.40052
      H   24    0.10337      0.00000     0.39523    0.00139     0.39663
      H   25    0.09983      0.00000     0.39878    0.00139     0.40017
      H   26    0.10295      0.00000     0.39586    0.00119     0.39705
      H   27    0.10270      0.00000     0.39612    0.00119     0.39730
      H   28    0.10750      0.00000     0.39148    0.00102     0.39250
      H   29    0.09514      0.00000     0.40381    0.00105     0.40486
      H   30    0.09813      0.00000     0.40002    0.00185     0.40187
      H   31    0.17333      0.00000     0.32411    0.00257     0.32667
      H   32    0.09934      0.00000     0.39947    0.00119     0.40066
      H   33    0.10037      0.00000     0.39842    0.00120     0.39963
      H   34    0.10399      0.00000     0.39503    0.00099     0.39601
      H   35    0.10608      0.00000     0.39272    0.00120     0.39392
      H   36    0.10288      0.00000     0.39602    0.00110     0.39712
      H   37    0.11263      0.00000     0.38632    0.00105     0.38737
      H   38    0.11084      0.00000     0.38774    0.00142     0.38916
      H   39    0.09850      0.00000     0.39930    0.00220     0.40150
      H   40    0.23302      0.00000     0.26412    0.00286     0.26698
      H   41    0.10468      0.00000     0.39424    0.00108     0.39532
      H   42    0.12135      0.00000     0.37735    0.00131     0.37865
      H   43    0.10594      0.00000     0.39278    0.00128     0.39406
 =======================================================================
   * Total *    0.00000     19.99203    54.77230    0.23567    75.00000

 Normal termination of Gaussian 16 at Mon Dec 14 15:33:04 2020.
