 Gaussian 16, Revision A.03,

 -----------------------------------------------------------
 # opt freq B3LYP/6-31G(d) empiricaldispersion=gd3bj scf=xqc
 -----------------------------------------------------------

 -------------------------------
 CID_43359070_JID_10342_neutraal
 -------------------------------
 Symbolic Z-matrix:
 Charge =  0 Multiplicity = 1

 SCF Done:  E(RB3LYP) =  -1259.33881030     A.U. after   15 cycles
 SCF Done:  E(RB3LYP) =  -1259.31915589     A.U. after   14 cycles
 SCF Done:  E(RB3LYP) =  -1259.34328880     A.U. after   14 cycles
 SCF Done:  E(RB3LYP) =  -1259.34429445     A.U. after   13 cycles
 SCF Done:  E(RB3LYP) =  -1259.34575528     A.U. after   13 cycles
 SCF Done:  E(RB3LYP) =  -1259.34588530     A.U. after   12 cycles
 SCF Done:  E(RB3LYP) =  -1259.34603370     A.U. after   12 cycles
 SCF Done:  E(RB3LYP) =  -1259.34613550     A.U. after   11 cycles
 SCF Done:  E(RB3LYP) =  -1259.34618332     A.U. after   11 cycles
 SCF Done:  E(RB3LYP) =  -1259.34619085     A.U. after   10 cycles
 SCF Done:  E(RB3LYP) =  -1259.34620421     A.U. after   11 cycles
 SCF Done:  E(RB3LYP) =  -1259.34621106     A.U. after   10 cycles
 SCF Done:  E(RB3LYP) =  -1259.34621562     A.U. after   10 cycles
 SCF Done:  E(RB3LYP) =  -1259.34621600     A.U. after    9 cycles
 SCF Done:  E(RB3LYP) =  -1259.34621607     A.U. after    7 cycles
 SCF Done:  E(RB3LYP) =  -1259.34621611     A.U. after    7 cycles
 Optimization completed.
    -- Stationary point found.
 Normal termination of Gaussian 16 at Sat Dec 12 15:33:17 2020.

 --------------------------------------------------------------------
 #N Geom=AllCheck Guess=TCheck SCRF=Check GenChk RB3LYP/6-31G(d) Freq
 --------------------------------------------------------------------

 Structure from the checkpoint file:  "JID_10342.chk"
 -------------------------------
 CID_43359070_JID_10342_neutraal
 -------------------------------
 Charge =  0 Multiplicity = 1

 SCF Done:  E(RB3LYP) =  -1259.34621611     A.U. after    1 cycles

  Exact polarizability: 236.353   3.222 188.698  31.400   5.720 131.261
 Approx polarizability: 334.835  16.009 336.512  70.390  27.977 227.232

                      1                      2                      3
                      A                      A                      A
 Frequencies --     20.0040                28.8065                30.1198
 Red. masses --      4.0766                 1.9307                 1.6186
 Frc consts  --      0.0010                 0.0009                 0.0009
 IR Inten    --      0.1897                 0.2003                 0.1906

                      4                      5                      6
                      A                      A                      A
 Frequencies --     42.4688                54.8606                68.4079
 Red. masses --      2.7228                 5.9451                 6.1208
 Frc consts  --      0.0029                 0.0105                 0.0169
 IR Inten    --      0.1079                 1.9437                 1.3931

                      7                      8                      9
                      A                      A                      A
 Frequencies --     89.1535               108.3379               113.9254
 Red. masses --      5.4013                 7.2753                 5.2967
 Frc consts  --      0.0253                 0.0503                 0.0405
 IR Inten    --      0.5490                 0.6020                 0.1668

                     10                     11                     12
                      A                      A                      A
 Frequencies --    142.5745               168.2902               188.2756
 Red. masses --      4.2474                 3.7329                 5.0126
 Frc consts  --      0.0509                 0.0623                 0.1047
 IR Inten    --      2.1904                 2.6113                 1.2385

                     13                     14                     15
                      A                      A                      A
 Frequencies --    202.6496               224.9918               253.7650
 Red. masses --      3.9979                 1.4612                 4.0901
 Frc consts  --      0.0967                 0.0436                 0.1552
 IR Inten    --      1.2019                 2.1871                 2.0733

                     16                     17                     18
                      A                      A                      A
 Frequencies --    299.5446               322.0587               343.2286
 Red. masses --      5.6245                 2.7857                 4.2276
 Frc consts  --      0.2973                 0.1702                 0.2934
 IR Inten    --      2.7168                 3.9551                 0.6447

                     19                     20                     21
                      A                      A                      A
 Frequencies --    371.5471               373.4346               399.7291
 Red. masses --      3.4667                 4.2122                 4.9290
 Frc consts  --      0.2820                 0.3461                 0.4640
 IR Inten    --      6.5548                 2.5793                 3.0732

                     22                     23                     24
                      A                      A                      A
 Frequencies --    424.1198               445.4443               475.9871
 Red. masses --      5.1547                 5.1009                 2.9506
 Frc consts  --      0.5463                 0.5963                 0.3939
 IR Inten    --     10.1914                 3.4858                16.1700

                     25                     26                     27
                      A                      A                      A
 Frequencies --    492.8277               550.4636               554.2656
 Red. masses --      1.8138                 4.2927                 3.2644
 Frc consts  --      0.2596                 0.7664                 0.5909
 IR Inten    --     70.5483                 1.5252                12.5087

                     28                     29                     30
                      A                      A                      A
 Frequencies --    578.1754               610.3374               615.6141
 Red. masses --      4.0038                 3.7819                 4.0930
 Frc consts  --      0.7886                 0.8300                 0.9139
 IR Inten    --     13.9049                 1.0752                 4.5452

                     31                     32                     33
                      A                      A                      A
 Frequencies --    619.6879               642.9371               663.8629
 Red. masses --      1.4612                 4.0361                 4.8498
 Frc consts  --      0.3306                 0.9830                 1.2593
 IR Inten    --     89.3154                 8.9309                40.4646

                     34                     35                     36
                      A                      A                      A
 Frequencies --    690.2912               727.2314               740.7608
 Red. masses --      6.1587                 4.5098                 5.0711
 Frc consts  --      1.7290                 1.4052                 1.6395
 IR Inten    --      3.0321                 8.1807                 9.4563

                     37                     38                     39
                      A                      A                      A
 Frequencies --    750.3776               765.3685               789.7999
 Red. masses --      5.5766                 6.0293                 4.8858
 Frc consts  --      1.8500                 2.0809                 1.7957
 IR Inten    --     95.1700                 3.2893                 9.3999

                     40                     41                     42
                      A                      A                      A
 Frequencies --    804.3292               825.4724               839.7431
 Red. masses --      1.2740                 1.3145                 1.4866
 Frc consts  --      0.4856                 0.5277                 0.6177
 IR Inten    --      2.1843                18.9030                 5.5703

                     43                     44                     45
                      A                      A                      A
 Frequencies --    876.4256               906.0892               924.7922
 Red. masses --      3.2748                 1.4201                 1.4096
 Frc consts  --      1.4821                 0.6869                 0.7103
 IR Inten    --     27.1807                 2.9597                 1.2770

                     46                     47                     48
                      A                      A                      A
 Frequencies --    948.9893               961.1260               966.3616
 Red. masses --      4.5482                 2.1586                 1.3317
 Frc consts  --      2.4133                 1.1748                 0.7327
 IR Inten    --      2.9949                 4.1070                 1.5592

                     49                     50                     51
                      A                      A                      A
 Frequencies --   1033.1135              1038.7368              1077.1726
 Red. masses --      1.5172                 2.0804                 1.6260
 Frc consts  --      0.9541                 1.3225                 1.1116
 IR Inten    --      9.3816                14.6582                21.4410

                     52                     53                     54
                      A                      A                      A
 Frequencies --   1078.6759              1096.4542              1098.5370
 Red. masses --      2.0875                 3.4576                 1.7691
 Frc consts  --      1.4311                 2.4491                 1.2579
 IR Inten    --      6.6761                56.6703                15.3332

                     55                     56                     57
                      A                      A                      A
 Frequencies --   1114.0519              1180.0158              1197.7537
 Red. masses --      1.9053                 1.3478                 3.0832
 Frc consts  --      1.3932                 1.1057                 2.6061
 IR Inten    --     30.9328                 4.5543                 7.1529

                     58                     59                     60
                      A                      A                      A
 Frequencies --   1205.8585              1254.7548              1261.0879
 Red. masses --      1.8141                 1.4245                 2.7958
 Frc consts  --      1.5542                 1.3214                 2.6197
 IR Inten    --    159.0020                 2.8734                39.5400

                     61                     62                     63
                      A                      A                      A
 Frequencies --   1274.4779              1305.0703              1309.6121
 Red. masses --      2.1558                 1.3569                 1.6450
 Frc consts  --      2.0631                 1.3616                 1.6622
 IR Inten    --     19.7138                 0.3702                 6.0859

                     64                     65                     66
                      A                      A                      A
 Frequencies --   1346.3970              1362.5620              1366.4338
 Red. masses --      5.3505                 1.6178                 4.0907
 Frc consts  --      5.7147                 1.7696                 4.5001
 IR Inten    --     65.6781               103.0161               288.8245

                     67                     68                     69
                      A                      A                      A
 Frequencies --   1391.4534              1394.4779              1435.1670
 Red. masses --      2.3141                 2.7956                 1.2775
 Frc consts  --      2.6398                 3.2029                 1.5503
 IR Inten    --      6.8190                93.1131                 3.6161

                     70                     71                     72
                      A                      A                      A
 Frequencies --   1437.1749              1445.1938              1478.0632
 Red. masses --      1.9509                 1.2802                 2.1818
 Frc consts  --      2.3741                 1.5753                 2.8084
 IR Inten    --      1.7131                 0.1476                84.6087

                     73                     74                     75
                      A                      A                      A
 Frequencies --   1512.8405              1516.6838              1520.7179
 Red. masses --      1.0949                 1.0483                 3.1905
 Frc consts  --      1.4765                 1.4208                 4.3471
 IR Inten    --      6.8552                 7.3181                76.8211

                     76                     77                     78
                      A                      A                      A
 Frequencies --   1525.1414              1526.6471              1537.8640
 Red. masses --      1.0457                 1.2017                 1.1854
 Frc consts  --      1.4332                 1.6501                 1.6518
 IR Inten    --     12.0824                10.1760                24.9321

                     79                     80                     81
                      A                      A                      A
 Frequencies --   1554.2957              1603.8553              1631.7646
 Red. masses --      3.1325                 5.4565                 6.1924
 Frc consts  --      4.4586                 8.2697                 9.7146
 IR Inten    --     69.9384                 7.6934                26.1776

                     82                     83                     84
                      A                      A                      A
 Frequencies --   1670.5882              1768.8927              1826.5687
 Red. masses --      5.9155                 8.9110                 9.9377
 Frc consts  --      9.7270                16.4278                19.5347
 IR Inten    --      8.1571               314.7509               269.3333

                     85                     86                     87
                      A                      A                      A
 Frequencies --   3045.5454              3047.2473              3052.4265
 Red. masses --      1.0392                 1.0609                 1.0348
 Frc consts  --      5.6793                 5.8044                 5.6806
 IR Inten    --     35.3024                28.8605                26.0943

                     88                     89                     90
                      A                      A                      A
 Frequencies --   3085.5055              3100.7642              3124.9047
 Red. masses --      1.1020                 1.0984                 1.1029
 Frc consts  --      6.1816                 6.2220                 6.3455
 IR Inten    --      6.7334                17.4955                47.5990

                     91                     92                     93
                      A                      A                      A
 Frequencies --   3127.6234              3130.9405              3183.8064
 Red. masses --      1.1039                 1.1017                 1.0881
 Frc consts  --      6.3621                 6.3632                 6.4983
 IR Inten    --     28.5326                13.8825                13.5033

                     94                     95                     96
                      A                      A                      A
 Frequencies --   3204.4112              3213.4736              3215.8685
 Red. masses --      1.0941                 1.0912                 1.0904
 Frc consts  --      6.6191                 6.6390                 6.6441
 IR Inten    --     13.3202                10.1800                 2.8297

                     97                     98                     99
                      A                      A                      A
 Frequencies --   3241.5955              3582.8638              3687.9834
 Red. masses --      1.0953                 1.0751                 1.0639
 Frc consts  --      6.7811                 8.1313                 8.5255
 IR Inten    --      2.8904                46.1426                52.3911

 - Thermochemistry -
 -------------------
 Temperature   298.150 Kelvin.  Pressure   1.00000 Atm.
 Atom     1 has atomic number  6 and mass  12.00000

 Molecular mass:   289.07727 amu.
 Principal axes and moments of inertia in atomic units:
                           1         2         3
     Eigenvalues --  3489.747147948.960539235.76901
           X            0.99988  -0.01331   0.00766
           Y            0.01335   0.99990  -0.00527
           Z           -0.00759   0.00537   0.99996
 This molecule is an asymmetric top.
 Rotational symmetry number  1.
 Warning -- assumption of classical behavior for rotation
           may cause significant error
 Rotational temperatures (Kelvin)      0.02482     0.01090     0.00938
 Rotational constants (GHZ):           0.51716     0.22704     0.19541
 Zero-point vibrational energy     720511.8 (Joules/Mol)
                                  172.20646 (Kcal/Mol)
 Warning -- explicit consideration of  31 degrees of freedom as
           vibrations may cause significant error
 Vibrational temperatures:     28.78    41.45    43.34    61.10    78.93
          (Kelvin)             98.42   128.27   155.87   163.91   205.13
                              242.13   270.89   291.57   323.71   365.11
                              430.98   463.37   493.83   534.57   537.29
                              575.12   610.21   640.90   684.84   709.07
                              791.99   797.46   831.87   878.14   885.73
                              891.59   925.04   955.15   993.18  1046.32
                             1065.79  1079.63  1101.19  1136.35  1157.25
                             1187.67  1208.20  1260.98  1303.66  1330.57
                             1365.38  1382.85  1390.38  1486.42  1494.51
                             1549.81  1551.97  1577.55  1580.55  1602.87
                             1697.78  1723.30  1734.96  1805.31  1814.42
                             1833.69  1877.71  1884.24  1937.16  1960.42
                             1965.99  2001.99  2006.34  2064.89  2067.77
                             2079.31  2126.60  2176.64  2182.17  2187.97
                             2194.34  2196.50  2212.64  2236.28  2307.59
                             2347.75  2403.60  2545.04  2628.03  4381.86
                             4384.31  4391.76  4439.35  4461.31  4496.04
                             4499.95  4504.73  4580.79  4610.43  4623.47
                             4626.92  4663.93  5154.94  5306.19

 Zero-point correction=                           0.274428 (Hartree/Particle)
 Thermal correction to Energy=                    0.293944
 Thermal correction to Enthalpy=                  0.294888
 Thermal correction to Gibbs Free Energy=         0.223583
 Sum of electronic and zero-point Energies=          -1259.071788
 Sum of electronic and thermal Energies=             -1259.052272
 Sum of electronic and thermal Enthalpies=           -1259.051328
 Sum of electronic and thermal Free Energies=        -1259.122633

                     E (Thermal)             CV                S
                      KCal/Mol        Cal/Mol-Kelvin    Cal/Mol-Kelvin
 Total                  184.452             71.925            150.074
 Electronic               0.000              0.000              0.000
 Translational            0.889              2.981             42.882
 Rotational               0.889              2.981             33.904
 Vibrational            182.675             65.963             73.287
 Vibration     1          0.593              1.986              6.634
 Vibration     2          0.593              1.984              5.910
 Vibration     3          0.594              1.984              5.822
 Vibration     4          0.595              1.980              5.140
 Vibration     5          0.596              1.976              4.634
 Vibration     6          0.598              1.969              4.199
 Vibration     7          0.602              1.957              3.679
 Vibration     8          0.606              1.943              3.298
 Vibration     9          0.607              1.938              3.201
 Vibration    10          0.616              1.911              2.769
 Vibration    11          0.625              1.881              2.454
 Vibration    12          0.633              1.856              2.245
 Vibration    13          0.639              1.836              2.109
 Vibration    14          0.650              1.803              1.919
 Vibration    15          0.665              1.756              1.704
 Vibration    16          0.692              1.675              1.419
 Vibration    17          0.707              1.631              1.300
 Vibration    18          0.722              1.589              1.197
 Vibration    19          0.743              1.531              1.073
 Vibration    20          0.745              1.527              1.066
 Vibration    21          0.766              1.471              0.964
 Vibration    22          0.786              1.418              0.878
 Vibration    23          0.805              1.371              0.810
 Vibration    24          0.833              1.303              0.721
 Vibration    25          0.849              1.266              0.676
 Vibration    26          0.906              1.139              0.543
 Vibration    27          0.910              1.130              0.535
 Vibration    28          0.935              1.078              0.489
 Vibration    29          0.969              1.010              0.432
 Vibration    30          0.975              0.999              0.424
 Vibration    31          0.980              0.990              0.417

                           ! Non-Optimized Parameters !
 Normal termination of Gaussian 16 at Sat Dec 12 15:54:36 2020.

 ----------------------------------------------------------------------
 # B3LYP/6-311++G(d,p) empiricaldispersion=gd3bj scf=xqc pop=npa geom=c
 heck
 ----------------------------------------------------------------------

 ---------------------------------------
 CID_43359070_JID_10342_Energie_neutraal
 ---------------------------------------
 Structure from the checkpoint file:  "JID_10342.chk"
 Charge =  0 Multiplicity = 1

 SCF Done:  E(RB3LYP) =  -1259.61758053     A.U. after   16 cycles
 Normal termination of Gaussian 16 at Sat Dec 12 16:04:16 2020.

 ----------------------------------------------------------------------
 # B3LYP/6-311++G(d,p) empiricaldispersion=gd3bj scf=xqc pop=npa geom=c
 heck
 ----------------------------------------------------------------------

 -------------------------------------
 CID_43359070_JID_10342_Energie_kation
 -------------------------------------
 Structure from the checkpoint file:  "JID_10342.chk"
 Charge =  1 Multiplicity = 2

 SCF Done:  E(UB3LYP) =  -1259.32747042     A.U. after   29 cycles
 Normal termination of Gaussian 16 at Sat Dec 12 16:29:14 2020.
 Gaussian 16:  ES64L-G16RevA.03 25-Dec-2016

 ----------------------------------------------------------------------
 # B3LYP/6-311++G(d,p) empiricaldispersion=gd3bj scf=xqc pop=npa geom=c
 heck
 ----------------------------------------------------------------------

 ------------------------------------
 CID_43359070_JID_10342_Energie_anion
 ------------------------------------
 Structure from the checkpoint file:  "JID_10342.chk"
 Charge = -1 Multiplicity = 2

                         Standard orientation:
 ---------------------------------------------------------------------
 Center     Atomic      Atomic             Coordinates (Angstroms)
 Number     Number       Type             X           Y           Z
 ---------------------------------------------------------------------
      1          6           0        4.222288   -2.251628    0.494781
      2          6           0        4.118720   -1.489633   -0.837409
      3          6           0        2.882248   -0.643994   -0.929804
      4          6           0        1.758193   -0.875330   -1.685241
      5          6           0        0.729928    0.082816   -1.472814
      6          6           0        1.077724    1.045755   -0.555228
      7         16           0        2.694415    0.787748    0.044698
      8          6           0        0.340676    2.228431   -0.064413
      9          8           0        0.912555    3.248211    0.295685
     10          7           0       -1.044613    2.170117   -0.085580
     11          6           0       -1.898935    1.043938   -0.089056
     12          6           0       -1.642324   -0.133493    0.641788
     13          6           0       -2.506390   -1.227381    0.508609
     14          6           0       -3.659275   -1.171528   -0.275664
     15          6           0       -3.922755    0.020822   -0.961079
     16          6           0       -3.049157    1.100144   -0.883928
     17          6           0       -4.600740   -2.346820   -0.366991
     18          6           0       -0.515132   -0.222846    1.610556
     19          8           0       -0.106039    0.683882    2.304010
     20          8           0        0.008084   -1.474017    1.678142
     21          1           0        4.283223   -1.556319    1.338886
     22          1           0        5.114554   -2.886799    0.512317
     23          1           0        3.341754   -2.885870    0.643325
     24          1           0        5.014279   -0.870255   -0.974039
     25          1           0        4.102339   -2.202625   -1.670002
     26          1           0        1.670664   -1.714976   -2.366835
     27          1           0       -0.228329    0.062008   -1.977059
     28          1           0       -1.460512    3.060772    0.161403
     29          1           0       -2.274491   -2.134334    1.056954
     30          1           0       -4.809688    0.097250   -1.585251
     31          1           0       -3.235296    1.999613   -1.463529
     32          1           0       -5.501101   -2.182650    0.238860
     33          1           0       -4.931173   -2.514800   -1.398091
     34          1           0       -4.126060   -3.265541   -0.009704
     35          1           0        0.714256   -1.420412    2.349327
 ---------------------------------------------------------------------

 SCF Done:  E(UB3LYP) =  -1259.63007008     A.U. after   29 cycles

 The electronic state is 2-A.
 Alpha  occ. eigenvalues --  -88.74402 -19.03927 -18.97222 -18.94471 -14.20832
 Alpha  occ. eigenvalues --  -10.16126 -10.13239 -10.08488 -10.08369 -10.08086
 Alpha  occ. eigenvalues --  -10.07177 -10.06781 -10.06781 -10.05701 -10.05484
 Alpha  occ. eigenvalues --  -10.05435 -10.05192 -10.05035 -10.04964 -10.04723
 Alpha  occ. eigenvalues --   -7.83041  -5.79329  -5.78965  -5.78646  -0.97708
 Alpha  occ. eigenvalues --   -0.90202  -0.88375  -0.80201  -0.75998  -0.73189
 Alpha  occ. eigenvalues --   -0.68382  -0.65595  -0.63981  -0.61377  -0.60554
 Alpha  occ. eigenvalues --   -0.57584  -0.54193  -0.53205  -0.49307  -0.48679
 Alpha  occ. eigenvalues --   -0.45960  -0.42780  -0.41699  -0.40905  -0.38173
 Alpha  occ. eigenvalues --   -0.37440  -0.35909  -0.35499  -0.34917  -0.33021
 Alpha  occ. eigenvalues --   -0.32547  -0.32254  -0.31877  -0.31594  -0.30897
 Alpha  occ. eigenvalues --   -0.29178  -0.28837  -0.28209  -0.27767  -0.27412
 Alpha  occ. eigenvalues --   -0.27064  -0.25144  -0.25085  -0.24494  -0.24176
 Alpha  occ. eigenvalues --   -0.23476  -0.22793  -0.21669  -0.19565  -0.16691
 Alpha  occ. eigenvalues --   -0.15024  -0.14159  -0.13143  -0.12638  -0.11218
 Alpha  occ. eigenvalues --   -0.09925   0.03716
 Alpha virt. eigenvalues --    0.06278   0.07222   0.07441   0.08632   0.08882
 Alpha virt. eigenvalues --    0.09197   0.09713   0.09912   0.10745   0.11137
 Alpha virt. eigenvalues --    0.11391   0.11984   0.12343   0.13140   0.13462

  Beta  occ. eigenvalues --  -88.74372 -19.03874 -18.97107 -18.94213 -14.20901
  Beta  occ. eigenvalues --  -10.15966 -10.13076 -10.08374 -10.08280 -10.07970
  Beta  occ. eigenvalues --  -10.07159 -10.06788 -10.06688 -10.05630 -10.05521
  Beta  occ. eigenvalues --  -10.05509 -10.05173 -10.04967 -10.04790 -10.04515
  Beta  occ. eigenvalues --   -7.83013  -5.79311  -5.78949  -5.78556  -0.97525
  Beta  occ. eigenvalues --   -0.89796  -0.88172  -0.80008  -0.75858  -0.72957
  Beta  occ. eigenvalues --   -0.68291  -0.65342  -0.63694  -0.61239  -0.60353
  Beta  occ. eigenvalues --   -0.57372  -0.53959  -0.52884  -0.49179  -0.48494
  Beta  occ. eigenvalues --   -0.45745  -0.42633  -0.41546  -0.40794  -0.38049
  Beta  occ. eigenvalues --   -0.37234  -0.35787  -0.35388  -0.34750  -0.32811
  Beta  occ. eigenvalues --   -0.32387  -0.31958  -0.31732  -0.31368  -0.30639
  Beta  occ. eigenvalues --   -0.28979  -0.28611  -0.27998  -0.27644  -0.27227
  Beta  occ. eigenvalues --   -0.26660  -0.25006  -0.24840  -0.24380  -0.23861
  Beta  occ. eigenvalues --   -0.23322  -0.22277  -0.21533  -0.18996  -0.15981
  Beta  occ. eigenvalues --   -0.14715  -0.13523  -0.12692  -0.12215  -0.10474
  Beta  occ. eigenvalues --   -0.09307
  Beta virt. eigenvalues --    0.06393   0.07211   0.08131   0.08587   0.08596
  Beta virt. eigenvalues --    0.08844   0.09243   0.09840   0.09918   0.10715
  Beta virt. eigenvalues --    0.11209   0.11470   0.11980   0.12353   0.13068

 Mulliken charges and spin densities:
               1          2
     1  C   -0.375967  -0.188866
     2  C   -0.533095   0.142984
     3  C    0.531064  -0.034720
     4  C   -0.398624  -0.076076
     5  C   -0.426867   0.039877
     6  C    0.324694   0.042424
     7  S   -0.001823   0.090987
     8  C   -0.107189   0.030131
     9  O   -0.369779   0.092012
    10  N   -0.211609  -0.018136
    11  C    0.064129   0.056479
    12  C    1.460216   0.127857
    13  C   -0.632974   0.020589
    14  C    0.219813   0.042281
    15  C   -0.465023   0.178845
    16  C   -0.341099   0.014028
    17  C   -0.389095  -0.015816
    18  C   -1.187206   0.070024
    19  O   -0.163626   0.031226
    20  O   -0.069802   0.010100
    21  H    0.138114   0.003039
    22  H   -0.001192   0.115080
    23  H    0.133952   0.013763
    24  H    0.055575   0.091064
    25  H    0.104782   0.046106
    26  H    0.114415   0.020146
    27  H    0.183714  -0.004864
    28  H    0.296909   0.015354
    29  H    0.183173   0.000237
    30  H    0.114610  -0.011519
    31  H    0.114266   0.025911
    32  H    0.124737   0.022868
    33  H    0.124870   0.004388
    34  H    0.130014   0.001079
    35  H    0.255924   0.001119
 Sum of Mulliken charges =  -1.00000   1.00000

 Dipole moment (field-independent basis, Debye):
    X=             -0.8915    Y=             -5.1443    Z=             -1.6724  Tot=              5.4823
 Quadrupole moment (field-independent basis, Debye-Ang):
   XX=           -162.3360   YY=           -154.1410   ZZ=           -139.8555
   XY=             -9.7378   XZ=              2.6175   YZ=             -5.4538

 Summary of Natural Population Analysis:

                                       Natural Population
                Natural  -----------------------------------------------
    Atom  No    Charge         Core      Valence    Rydberg      Total
 -----------------------------------------------------------------------
      C    1   -0.28076      0.99966     2.27625    0.00485     3.28076
      C    2   -0.20358      0.99959     2.19515    0.00884     3.20358
      C    3   -0.08153      0.99950     2.06872    0.01330     3.08153
      C    4   -0.14188      0.99947     2.13202    0.01039     3.14188
      C    5   -0.09924      0.99949     2.09077    0.00898     3.09924
      C    6   -0.12800      0.99945     2.11365    0.01490     3.12800
      S    7    0.23197      4.99937     2.74798    0.02067     7.76803
      C    8    0.34994      0.99958     1.62755    0.02293     2.65006
      O    9   -0.29390      0.99988     3.28872    0.00530     4.29390
      N   10   -0.32402      0.99965     2.81440    0.00997     3.82402
      C   11    0.11911      0.99944     1.86856    0.01289     2.88089
      C   12   -0.05233      0.99941     2.03993    0.01300     3.05233
      C   13   -0.07703      0.99950     2.07018    0.00735     3.07703
      C   14   -0.02343      0.99952     2.01606    0.00785     3.02343
      C   15   -0.05977      0.99953     2.05205    0.00820     3.05977
      C   16   -0.12455      0.99953     2.11702    0.00800     3.12455
      C   17   -0.28872      0.99964     2.28459    0.00449     3.28872
      C   18    0.42126      0.99966     1.55445    0.02463     2.57874
      O   19   -0.30103      0.99987     3.29462    0.00654     4.30103
      O   20   -0.34764      0.99988     3.34046    0.00730     4.34764
      H   21    0.09860      0.00000     0.40000    0.00140     0.40140
      H   22    0.09123      0.00000     0.40717    0.00160     0.40877
      H   23    0.09908      0.00000     0.39947    0.00145     0.40092
      H   24    0.09921      0.00000     0.39897    0.00182     0.40079
      H   25    0.09897      0.00000     0.39933    0.00170     0.40103
      H   26    0.09943      0.00000     0.39929    0.00128     0.40057
      H   27    0.11063      0.00000     0.38822    0.00115     0.38937
      H   28    0.19536      0.00000     0.30305    0.00159     0.30464
      H   29    0.10024      0.00000     0.39871    0.00105     0.39976
      H   30    0.08892      0.00000     0.40973    0.00135     0.41108
      H   31    0.09603      0.00000     0.40242    0.00155     0.40397
      H   32    0.09790      0.00000     0.40105    0.00105     0.40210
      H   33    0.09699      0.00000     0.40206    0.00095     0.40301
      H   34    0.09793      0.00000     0.40118    0.00089     0.40207
      H   35    0.23459      0.00000     0.26257    0.00284     0.26541
 =======================================================================
   * Total *   -0.00000     23.99161    51.76634    0.24206    76.00000

 Normal termination of Gaussian 16 at Sat Dec 12 16:53:50 2020.
