 Gaussian 16, Revision A.03,

 -----------------------------------------------------------
 # opt freq B3LYP/6-31G(d) empiricaldispersion=gd3bj scf=xqc
 -----------------------------------------------------------

 -------------------------------
 CID_146850317_JID_5132_neutraal
 -------------------------------
 Symbolic Z-matrix:
 Charge =  0 Multiplicity = 1

 SCF Done:  E(RB3LYP) =  -652.886027038     A.U. after   15 cycles
 SCF Done:  E(RB3LYP) =  -652.889649674     A.U. after   13 cycles
 SCF Done:  E(RB3LYP) =  -652.890189803     A.U. after   13 cycles
 SCF Done:  E(RB3LYP) =  -652.890490571     A.U. after   13 cycles
 SCF Done:  E(RB3LYP) =  -652.890743524     A.U. after   12 cycles
 SCF Done:  E(RB3LYP) =  -652.890927287     A.U. after   12 cycles
 SCF Done:  E(RB3LYP) =  -652.891008605     A.U. after   12 cycles
 SCF Done:  E(RB3LYP) =  -652.891041162     A.U. after   11 cycles
 SCF Done:  E(RB3LYP) =  -652.891056891     A.U. after   10 cycles
 SCF Done:  E(RB3LYP) =  -652.891061221     A.U. after    9 cycles
 SCF Done:  E(RB3LYP) =  -652.891061902     A.U. after    9 cycles
 SCF Done:  E(RB3LYP) =  -652.891062157     A.U. after    8 cycles
 SCF Done:  E(RB3LYP) =  -652.891062671     A.U. after    9 cycles
 SCF Done:  E(RB3LYP) =  -652.891062910     A.U. after    8 cycles
 SCF Done:  E(RB3LYP) =  -652.891063095     A.U. after    8 cycles
 Optimization completed.
    -- Stationary point found.
 Normal termination of Gaussian 16 at Thu Dec 10 14:51:28 2020.

 --------------------------------------------------------------------
 #N Geom=AllCheck Guess=TCheck SCRF=Check GenChk RB3LYP/6-31G(d) Freq
 --------------------------------------------------------------------

 Structure from the checkpoint file:  "JID_5132.chk"
 -------------------------------
 CID_146850317_JID_5132_neutraal
 -------------------------------
 Charge =  0 Multiplicity = 1

 SCF Done:  E(RB3LYP) =  -652.891063095     A.U. after    1 cycles

  Exact polarizability: 163.009   0.364 154.591   8.756  -3.880  98.766
 Approx polarizability: 227.481   2.925 253.455  20.427 -11.095 146.109

                      1                      2                      3
                      A                      A                      A
 Frequencies --     17.5265                35.9892                54.2336
 Red. masses --      4.4908                 3.8162                 3.0078
 Frc consts  --      0.0008                 0.0029                 0.0052
 IR Inten    --      2.1979                 2.3178                 0.5860

                      4                      5                      6
                      A                      A                      A
 Frequencies --     73.3366                99.8487               117.4460
 Red. masses --      4.4754                 2.0315                 2.3825
 Frc consts  --      0.0142                 0.0119                 0.0194
 IR Inten    --      0.5299                 0.1666                 0.2949

                      7                      8                      9
                      A                      A                      A
 Frequencies --    150.0345               174.5922               184.3998
 Red. masses --      4.7126                 1.5803                 1.5656
 Frc consts  --      0.0625                 0.0284                 0.0314
 IR Inten    --      0.8290                 1.2016                 1.0870

                     10                     11                     12
                      A                      A                      A
 Frequencies --    203.8900               227.5390               263.0886
 Red. masses --      2.1771                 1.3525                 2.2704
 Frc consts  --      0.0533                 0.0413                 0.0926
 IR Inten    --      2.0346                 0.2667                 0.9115

                     13                     14                     15
                      A                      A                      A
 Frequencies --    268.9621               296.2703               362.5266
 Red. masses --      2.4283                 1.6557                 3.1162
 Frc consts  --      0.1035                 0.0856                 0.2413
 IR Inten    --      0.8989                 2.2764                 0.2116

                     16                     17                     18
                      A                      A                      A
 Frequencies --    391.8237               420.9252               433.6744
 Red. masses --      3.8705                 3.8651                 2.4876
 Frc consts  --      0.3501                 0.4035                 0.2757
 IR Inten    --      2.6826                 2.6677                 1.1406

                     19                     20                     21
                      A                      A                      A
 Frequencies --    445.3080               471.0643               504.5743
 Red. masses --      2.3219                 4.1220                 3.3493
 Frc consts  --      0.2713                 0.5389                 0.5024
 IR Inten    --      2.1285                 0.4168                 2.4964

                     22                     23                     24
                      A                      A                      A
 Frequencies --    529.0140               597.3075               605.3351
 Red. masses --      2.5779                 3.8017                 4.0142
 Frc consts  --      0.4251                 0.7991                 0.8666
 IR Inten    --      5.0271                 9.4037                35.7652

                     25                     26                     27
                      A                      A                      A
 Frequencies --    673.2546               721.4847               758.1369
 Red. masses --      4.5948                 4.8170                 2.3466
 Frc consts  --      1.2271                 1.4773                 0.7947
 IR Inten    --     10.7846                 3.9683                 5.5062

                     28                     29                     30
                      A                      A                      A
 Frequencies --    771.6710               797.0275               819.4205
 Red. masses --      1.8071                 1.2152                 1.5520
 Frc consts  --      0.6340                 0.4548                 0.6140
 IR Inten    --      6.9779                 8.5935                17.5518

                     31                     32                     33
                      A                      A                      A
 Frequencies --    836.5484               889.3019               907.2988
 Red. masses --      1.4500                 3.4177                 2.2165
 Frc consts  --      0.5978                 1.5925                 1.0750
 IR Inten    --      2.7595                 0.5123                 3.9963

                     34                     35                     36
                      A                      A                      A
 Frequencies --    927.5086               979.1130               996.5522
 Red. masses --      1.4865                 2.1587                 2.2042
 Frc consts  --      0.7534                 1.2193                 1.2898
 IR Inten    --      0.7456                17.5134                10.4801

                     37                     38                     39
                      A                      A                      A
 Frequencies --   1002.0417              1007.1448              1017.5089
 Red. masses --      1.3523                 2.1463                 4.9610
 Frc consts  --      0.8000                 1.2827                 3.0262
 IR Inten    --      0.2124                 9.0963                 5.8121

                     40                     41                     42
                      A                      A                      A
 Frequencies --   1053.5529              1083.1872              1106.1697
 Red. masses --      1.8670                 2.0776                 2.4160
 Frc consts  --      1.2210                 1.4362                 1.7418
 IR Inten    --      1.4141                 5.1861                15.8105

                     43                     44                     45
                      A                      A                      A
 Frequencies --   1127.7611              1131.2919              1143.8432
 Red. masses --      1.6905                 1.6648                 2.0797
 Frc consts  --      1.2667                 1.2554                 1.6032
 IR Inten    --      8.5299                15.4093                24.2571

                     46                     47                     48
                      A                      A                      A
 Frequencies --   1156.8233              1188.8093              1204.5289
 Red. masses --      2.1215                 1.4772                 1.5220
 Frc consts  --      1.6727                 1.2300                 1.3011
 IR Inten    --     34.6971                 7.9366                43.1383

                     49                     50                     51
                      A                      A                      A
 Frequencies --   1247.4108              1256.5708              1286.7462
 Red. masses --      2.0883                 2.2626                 3.2741
 Frc consts  --      1.9145                 2.1049                 3.1940
 IR Inten    --     11.9155                14.2609               105.7305

                     52                     53                     54
                      A                      A                      A
 Frequencies --   1320.2360              1334.9542              1368.8204
 Red. masses --      1.5064                 2.9469                 1.3135
 Frc consts  --      1.5470                 3.0942                 1.4500
 IR Inten    --     13.4237                 0.2760                14.4354

                     55                     56                     57
                      A                      A                      A
 Frequencies --   1389.9944              1402.6326              1408.8588
 Red. masses --      1.3399                 1.3471                 1.3058
 Frc consts  --      1.5252                 1.5614                 1.5271
 IR Inten    --      9.3896                16.7158                31.0140

                     58                     59                     60
                      A                      A                      A
 Frequencies --   1411.7108              1422.0987              1434.8034
 Red. masses --      1.2992                 1.2960                 1.2483
 Frc consts  --      1.5255                 1.5442                 1.5142
 IR Inten    --      7.4064                 4.3962                 9.5368

                     61                     62                     63
                      A                      A                      A
 Frequencies --   1447.8348              1477.6475              1490.9223
 Red. masses --      1.3903                 3.0384                 1.4643
 Frc consts  --      1.7171                 3.9087                 1.9178
 IR Inten    --     27.6891                 8.9918                17.9822

                     64                     65                     66
                      A                      A                      A
 Frequencies --   1495.0886              1501.4439              1506.0566
 Red. masses --      1.3527                 1.1078                 1.0924
 Frc consts  --      1.7815                 1.4714                 1.4599
 IR Inten    --      9.4756                 8.1068                 4.6481

                     67                     68                     69
                      A                      A                      A
 Frequencies --   1508.2068              1520.6078              1526.0865
 Red. masses --      1.0500                 1.0458                 1.0446
 Frc consts  --      1.4072                 1.4248                 1.4334
 IR Inten    --     10.3443                 0.7428                 3.9737

                     70                     71                     72
                      A                      A                      A
 Frequencies --   1532.8547              1539.2418              1549.0106
 Red. masses --      1.0652                 1.0574                 1.0759
 Frc consts  --      1.4747                 1.4760                 1.5210
 IR Inten    --      2.3614                 7.7768                 0.2641

                     73                     74                     75
                      A                      A                      A
 Frequencies --   1628.2070              1640.4583              1804.7238
 Red. masses --      5.8223                 5.6436                11.2234
 Frc consts  --      9.0942                 8.9482                21.5376
 IR Inten    --      3.0197                48.8872               117.9804

                     76                     77                     78
                      A                      A                      A
 Frequencies --   3009.2151              3022.3858              3043.5649
 Red. masses --      1.0604                 1.0608                 1.0950
 Frc consts  --      5.6576                 5.7092                 5.9761
 IR Inten    --     35.9953                50.4123                42.8135

                     79                     80                     81
                      A                      A                      A
 Frequencies --   3049.9475              3052.7256              3055.4829
 Red. masses --      1.0614                 1.0385                 1.0396
 Frc consts  --      5.8173                 5.7022                 5.7186
 IR Inten    --     26.3126                 2.9640                 9.3504

                     82                     83                     84
                      A                      A                      A
 Frequencies --   3056.4183              3061.1773              3099.6819
 Red. masses --      1.0448                 1.1002                 1.1013
 Frc consts  --      5.7505                 6.0743                 6.2343
 IR Inten    --     57.7156                40.9679                16.7695

                     85                     86                     87
                      A                      A                      A
 Frequencies --   3112.1813              3118.5886              3121.5137
 Red. masses --      1.0999                 1.0985                 1.1021
 Frc consts  --      6.2765                 6.2944                 6.3268
 IR Inten    --     10.0480                36.5986                31.2150

                     88                     89                     90
                      A                      A                      A
 Frequencies --   3141.0064              3142.3859              3172.0352
 Red. masses --      1.1014                 1.1018                 1.1010
 Frc consts  --      6.4022                 6.4100                 6.5269
 IR Inten    --     23.6190                37.3340                10.9939

                     91                     92                     93
                      A                      A                      A
 Frequencies --   3191.5988              3207.1530              3228.3378
 Red. masses --      1.0872                 1.0941                 1.0932
 Frc consts  --      6.5250                 6.6306                 6.7131
 IR Inten    --      5.4259                17.4872                 9.9094

 - Thermochemistry -
 -------------------
 Temperature   298.150 Kelvin.  Pressure   1.00000 Atm.
 Atom     1 has atomic number  6 and mass  12.00000

 Molecular mass:   206.14191 amu.
 Principal axes and moments of inertia in atomic units:
                           1         2         3
     Eigenvalues --  2165.276544082.155235174.74424
           X            0.99989   0.01494   0.00009
           Y           -0.01494   0.99964   0.02209
           Z            0.00024  -0.02209   0.99976
 This molecule is an asymmetric top.
 Rotational symmetry number  1.
 Warning -- assumption of classical behavior for rotation
           may cause significant error
 Rotational temperatures (Kelvin)      0.04000     0.02122     0.01674
 Rotational constants (GHZ):           0.83349     0.44210     0.34876
 Zero-point vibrational energy     751059.4 (Joules/Mol)
                                  179.50750 (Kcal/Mol)
 Warning -- explicit consideration of  24 degrees of freedom as
           vibrations may cause significant error
 Vibrational temperatures:     25.22    51.78    78.03   105.52   143.66
          (Kelvin)            168.98   215.87   251.20   265.31   293.35
                              327.38   378.53   386.98   426.27   521.59
                              563.75   605.62   623.96   640.70   677.76
                              725.97   761.13   859.39   870.94   968.66
                             1038.06  1090.79  1110.26  1146.74  1178.96
                             1203.61  1279.51  1305.40  1334.48  1408.73
                             1433.82  1441.71  1449.06  1463.97  1515.83
                             1558.46  1591.53  1622.60  1627.68  1645.74
                             1664.41  1710.43  1733.05  1794.75  1807.93
                             1851.34  1899.53  1920.70  1969.43  1999.89
                             2018.08  2027.03  2031.14  2046.08  2064.36
                             2083.11  2126.01  2145.10  2151.10  2160.24
                             2166.88  2169.97  2187.82  2195.70  2205.44
                             2214.63  2228.68  2342.63  2360.25  2596.60
                             4329.59  4348.54  4379.01  4388.19  4392.19
                             4396.16  4397.50  4404.35  4459.75  4477.73
                             4486.95  4491.16  4519.21  4521.19  4563.85
                             4592.00  4614.38  4644.86

 Zero-point correction=                           0.286063 (Hartree/Particle)
 Thermal correction to Energy=                    0.301806
 Thermal correction to Enthalpy=                  0.302750
 Thermal correction to Gibbs Free Energy=         0.241574
 Sum of electronic and zero-point Energies=           -652.605000
 Sum of electronic and thermal Energies=              -652.589258
 Sum of electronic and thermal Enthalpies=            -652.588313
 Sum of electronic and thermal Free Energies=         -652.649489

                     E (Thermal)             CV                S
                      KCal/Mol        Cal/Mol-Kelvin    Cal/Mol-Kelvin
 Total                  189.386             58.312            128.756
 Electronic               0.000              0.000              0.000
 Translational            0.889              2.981             41.874
 Rotational               0.889              2.981             32.192
 Vibrational            187.608             52.351             54.689
 Vibration     1          0.593              1.986              6.896
 Vibration     2          0.594              1.982              5.468
 Vibration     3          0.596              1.976              4.657
 Vibration     4          0.599              1.967              4.062
 Vibration     5          0.604              1.949              3.457
 Vibration     6          0.608              1.935              3.142
 Vibration     7          0.618              1.903              2.672
 Vibration     8          0.627              1.874              2.385
 Vibration     9          0.631              1.861              2.283
 Vibration    10          0.640              1.834              2.098
 Vibration    11          0.651              1.799              1.898
 Vibration    12          0.670              1.740              1.641
 Vibration    13          0.673              1.730              1.603
 Vibration    14          0.690              1.681              1.438
 Vibration    15          0.736              1.549              1.111
 Vibration    16          0.759              1.488              0.993
 Vibration    17          0.783              1.425              0.889
 Vibration    18          0.794              1.397              0.847
 Vibration    19          0.805              1.371              0.810
 Vibration    20          0.828              1.314              0.735
 Vibration    21          0.860              1.240              0.647
 Vibration    22          0.884              1.186              0.589
 Vibration    23          0.955              1.038              0.454
 Vibration    24          0.964              1.020              0.441

 Optimization completed.
    -- Stationary point found.
 Normal termination of Gaussian 16 at Thu Dec 10 15:02:00 2020.

 ----------------------------------------------------------------------
 # B3LYP/6-311++G(d,p) empiricaldispersion=gd3bj scf=xqc pop=npa geom=c
 heck
 ----------------------------------------------------------------------

 ---------------------------------------
 CID_146850317_JID_5132_Energie_neutraal
 ---------------------------------------
 Structure from the checkpoint file:  "JID_5132.chk"
 Charge =  0 Multiplicity = 1

 SCF Done:  E(RB3LYP) =  -653.068190302     A.U. after   15 cycles
 Normal termination of Gaussian 16 at Thu Dec 10 15:06:44 2020.

 ----------------------------------------------------------------------
 # B3LYP/6-311++G(d,p) empiricaldispersion=gd3bj scf=xqc pop=npa geom=c
 heck
 ----------------------------------------------------------------------

 -------------------------------------
 CID_146850317_JID_5132_Energie_kation
 -------------------------------------
 Structure from the checkpoint file:  "JID_5132.chk"
 Charge =  1 Multiplicity = 2

 SCF Done:  E(UB3LYP) =  -652.796367406     A.U. after   23 cycles
 Normal termination of Gaussian 16 at Thu Dec 10 15:16:47 2020.
 Gaussian 16:  ES64L-G16RevA.03 25-Dec-2016

 ----------------------------------------------------------------------
 # B3LYP/6-311++G(d,p) empiricaldispersion=gd3bj scf=xqc pop=npa geom=c
 heck
 ----------------------------------------------------------------------

 ------------------------------------
 CID_146850317_JID_5132_Energie_anion
 ------------------------------------
 Structure from the checkpoint file:  "JID_5132.chk"
 Charge = -1 Multiplicity = 2

                         Standard orientation:
 ---------------------------------------------------------------------
 Center     Atomic      Atomic             Coordinates (Angstroms)
 Number     Number       Type             X           Y           Z
 ---------------------------------------------------------------------
      1          6           0       -1.887143   -2.547289   -0.860788
      2          6           0       -2.091850   -1.550219    0.275805
      3          7           0       -2.542722   -0.232475   -0.181326
      4          6           0       -3.004202    0.636900    0.896303
      5          6           0       -1.999736    1.013004    2.000816
      6          6           0       -1.752456    0.419507   -1.218333
      7          6           0       -0.340843    0.838130   -0.838647
      8          7           0        0.498609   -0.151880   -0.521187
      9          6           0        1.744579    0.147356   -0.127455
     10          6           0        2.216393    1.463169   -0.061598
     11          6           0        1.349412    2.498979   -0.410763
     12          6           0        0.052053    2.185672   -0.798655
     13          6           0        2.605006   -1.037839    0.253537
     14          8           0        2.139666   -2.160394    0.279951
     15          6           0        4.059558   -0.779142    0.609523
     16          1           0       -2.752743   -2.562036   -1.532887
     17          1           0       -1.752677   -3.552131   -0.446628
     18          1           0       -0.985553   -2.308972   -1.431727
     19          1           0       -2.880055   -1.918995    0.946559
     20          1           0       -1.162477   -1.504126    0.862907
     21          1           0       -3.396662    1.553219    0.435473
     22          1           0       -3.861188    0.134902    1.366798
     23          1           0       -1.164907    1.603512    1.613383
     24          1           0       -2.502431    1.605428    2.774825
     25          1           0       -1.585083    0.120937    2.481102
     26          1           0       -1.682429   -0.262095   -2.072398
     27          1           0       -2.310575    1.301948   -1.554722
     28          1           0        3.230740    1.679608    0.253273
     29          1           0        1.683391    3.532130   -0.374573
     30          1           0       -0.655871    2.965567   -1.063805
     31          1           0        4.585361   -0.278093   -0.211726
     32          1           0        4.138064   -0.132237    1.491662
     33          1           0        4.541925   -1.734289    0.821986
 ---------------------------------------------------------------------

 SCF Done:  E(UB3LYP) =  -653.084474098     A.U. after   24 cycles

 The electronic state is 2-A.
 Alpha  occ. eigenvalues --  -18.91359 -14.17828 -14.12988 -10.08119 -10.06569
 Alpha  occ. eigenvalues --  -10.06285 -10.05978 -10.05479 -10.04170 -10.03248
 Alpha  occ. eigenvalues --  -10.03189 -10.02865 -10.02525 -10.02510 -10.01443
 Alpha  occ. eigenvalues --   -0.85682  -0.80242  -0.77461  -0.64885  -0.64084
 Alpha  occ. eigenvalues --   -0.63606  -0.60683  -0.58408  -0.54878  -0.50750
 Alpha  occ. eigenvalues --   -0.48702  -0.46932  -0.43185  -0.39379  -0.36858
 Alpha  occ. eigenvalues --   -0.35613  -0.34934  -0.33284  -0.32275  -0.30703
 Alpha  occ. eigenvalues --   -0.30119  -0.29330  -0.29016  -0.28177  -0.26968
 Alpha  occ. eigenvalues --   -0.26266  -0.25592  -0.25097  -0.24681  -0.23853
 Alpha  occ. eigenvalues --   -0.23241  -0.22461  -0.22105  -0.21885  -0.21459
 Alpha  occ. eigenvalues --   -0.19420  -0.13796  -0.11260  -0.10333  -0.07621
 Alpha  occ. eigenvalues --   -0.07470   0.04599
 Alpha virt. eigenvalues --    0.07984   0.09009   0.09495   0.09606   0.10495
 Alpha virt. eigenvalues --    0.11126   0.11573   0.11886   0.12300   0.12662
 Alpha virt. eigenvalues --    0.13017   0.13924   0.14135   0.14756   0.15312

  Beta  occ. eigenvalues --  -18.90816 -14.17835 -14.12627 -10.08118 -10.06565
  Beta  occ. eigenvalues --  -10.06282 -10.05714 -10.05582 -10.04167 -10.03248
  Beta  occ. eigenvalues --  -10.03107 -10.02606 -10.02552 -10.02491 -10.01133
  Beta  occ. eigenvalues --   -0.84713  -0.80176  -0.76965  -0.64557  -0.63955
  Beta  occ. eigenvalues --   -0.63340  -0.60420  -0.58263  -0.54737  -0.50737
  Beta  occ. eigenvalues --   -0.47888  -0.46883  -0.43101  -0.38919  -0.36830
  Beta  occ. eigenvalues --   -0.35511  -0.34687  -0.33226  -0.32094  -0.30559
  Beta  occ. eigenvalues --   -0.29951  -0.29006  -0.28607  -0.28141  -0.26878
  Beta  occ. eigenvalues --   -0.26144  -0.25469  -0.24731  -0.24326  -0.23722
  Beta  occ. eigenvalues --   -0.22979  -0.22417  -0.21803  -0.21426  -0.21329
  Beta  occ. eigenvalues --   -0.17207  -0.12260  -0.10302  -0.09379  -0.07426
  Beta  occ. eigenvalues --   -0.06942
  Beta virt. eigenvalues --    0.07960   0.08955   0.09467   0.09557   0.10442
  Beta virt. eigenvalues --    0.11093   0.11096   0.11584   0.12211   0.12331
  Beta virt. eigenvalues --    0.12638   0.13097   0.13916   0.14133   0.14801

 Mulliken charges and spin densities:
               1          2
     1  C   -0.521551   0.001558
     2  C   -0.174650  -0.012232
     3  N    0.175184   0.006380
     4  C   -0.209784  -0.000464
     5  C   -0.520126  -0.006382
     6  C   -0.719697   0.022317
     7  C    0.566293  -0.088024
     8  N    0.065365   0.168307
     9  C    0.378696   0.173000
    10  C   -0.436658   0.038603
    11  C   -0.456884   0.099110
    12  C   -0.471661   0.248476
    13  C   -0.156376   0.147668
    14  O   -0.373527   0.197459
    15  C   -0.478871  -0.013541
    16  H    0.118680  -0.000112
    17  H    0.103782   0.000322
    18  H    0.181146   0.004802
    19  H    0.101408  -0.000451
    20  H    0.151751   0.004522
    21  H    0.099523   0.002923
    22  H    0.126663  -0.000682
    23  H    0.200094  -0.000090
    24  H    0.108109   0.000515
    25  H    0.141642   0.001325
    26  H    0.163730  -0.002253
    27  H    0.131826   0.000448
    28  H    0.130369   0.002005
    29  H    0.124464  -0.005704
    30  H    0.097150  -0.023586
    31  H    0.103811   0.016395
    32  H    0.100225   0.019279
    33  H    0.149875  -0.001891
 Sum of Mulliken charges =  -1.00000   1.00000

 Dipole moment (field-independent basis, Debye):
    X=             -4.0263    Y=              3.1323    Z=              0.7590  Tot=              5.1574
 Quadrupole moment (field-independent basis, Debye-Ang):
   XX=           -121.3825   YY=           -117.0367   ZZ=           -102.7099
   XY=              6.4816   XZ=             -1.4747   YZ=              1.1991

 Summary of Natural Population Analysis:

                                       Natural Population
                Natural  -----------------------------------------------
    Atom  No    Charge         Core      Valence    Rydberg      Total
 -----------------------------------------------------------------------
      C    1   -0.29287      0.99966     2.28875    0.00445     3.29287
      C    2   -0.08450      0.99963     2.07558    0.00930     3.08450
      N    3   -0.28454      0.99972     2.76860    0.01622     3.78454
      C    4   -0.07704      0.99964     2.06816    0.00925     3.07704
      C    5   -0.30035      0.99966     2.29643    0.00426     3.30035
      C    6   -0.09158      0.99957     2.08033    0.01168     3.09158
      C    7    0.07013      0.99954     1.91576    0.01457     2.92987
      N    8   -0.18257      0.99964     2.67042    0.01251     3.68257
      C    9    0.10091      0.99950     1.88349    0.01610     2.89909
      C   10   -0.11541      0.99954     2.10868    0.00720     3.11541
      C   11   -0.08444      0.99958     2.07556    0.00930     3.08444
      C   12   -0.07740      0.99951     2.06917    0.00871     3.07740
      C   13    0.29131      0.99967     1.68806    0.02096     2.70869
      O   14   -0.23696      0.99987     3.22962    0.00747     4.23696
      C   15   -0.33304      0.99965     2.32935    0.00404     3.33304
      H   16    0.08754      0.00000     0.41119    0.00127     0.41246
      H   17    0.09587      0.00000     0.40331    0.00082     0.40413
      H   18    0.11406      0.00000     0.38489    0.00105     0.38594
      H   19    0.08003      0.00000     0.41876    0.00120     0.41997
      H   20    0.10050      0.00000     0.39743    0.00207     0.39950
      H   21    0.08709      0.00000     0.41176    0.00115     0.41291
      H   22    0.08287      0.00000     0.41582    0.00131     0.41713
      H   23    0.11005      0.00000     0.38897    0.00098     0.38995
      H   24    0.08824      0.00000     0.41070    0.00106     0.41176
      H   25    0.09832      0.00000     0.40072    0.00096     0.40168
      H   26    0.09840      0.00000     0.40040    0.00120     0.40160
      H   27    0.08832      0.00000     0.41069    0.00099     0.41168
      H   28    0.09438      0.00000     0.40457    0.00105     0.40562
      H   29    0.08708      0.00000     0.41123    0.00168     0.41292
      H   30    0.08723      0.00000     0.41135    0.00142     0.41277
      H   31    0.09885      0.00000     0.40011    0.00103     0.40115
      H   32    0.09922      0.00000     0.39974    0.00105     0.40078
      H   33    0.10030      0.00000     0.39799    0.00171     0.39970
 =======================================================================
   * Total *    0.00000     14.99439    40.82761    0.17800    56.00000

 Normal termination of Gaussian 16 at Thu Dec 10 15:26:19 2020.
