 Gaussian 16, Revision A.03,

 -----------------------------------------------------------
 # opt freq B3LYP/6-31G(d) empiricaldispersion=gd3bj scf=xqc
 -----------------------------------------------------------

 ------------------------------
 CID_55263678_JID_2997_neutraal
 ------------------------------
 Symbolic Z-matrix:
 Charge =  0 Multiplicity = 1

 SCF Done:  E(RB3LYP) =  -533.756608564     A.U. after   15 cycles
 SCF Done:  E(RB3LYP) =  -533.759640481     A.U. after   12 cycles
 SCF Done:  E(RB3LYP) =  -533.759816699     A.U. after   12 cycles
 SCF Done:  E(RB3LYP) =  -533.760203628     A.U. after   12 cycles
 SCF Done:  E(RB3LYP) =  -533.760221558     A.U. after   10 cycles
 SCF Done:  E(RB3LYP) =  -533.760227589     A.U. after   10 cycles
 SCF Done:  E(RB3LYP) =  -533.760229623     A.U. after    9 cycles
 SCF Done:  E(RB3LYP) =  -533.760230675     A.U. after    8 cycles
 SCF Done:  E(RB3LYP) =  -533.760230990     A.U. after    7 cycles
 SCF Done:  E(RB3LYP) =  -533.760231115     A.U. after    8 cycles
 Optimization completed.
    -- Stationary point found.
 Normal termination of Gaussian 16 at Wed Dec  9 18:21:09 2020.

 --------------------------------------------------------------------
 #N Geom=AllCheck Guess=TCheck SCRF=Check GenChk RB3LYP/6-31G(d) Freq
 --------------------------------------------------------------------

 Structure from the checkpoint file:  "JID_2997.chk"
 ------------------------------
 CID_55263678_JID_2997_neutraal
 ------------------------------
 Charge =  0 Multiplicity = 1

 SCF Done:  E(RB3LYP) =  -533.760231115     A.U. after    1 cycles

  Exact polarizability: 127.061   0.657 112.531  -2.142  -0.893  61.267
 Approx polarizability: 190.366  -1.614 178.328  -7.423  -2.990  97.897

                      1                      2                      3
                      A                      A                      A
 Frequencies --     40.3388                93.6324               143.5584
 Red. masses --      4.6205                 2.7749                 1.6096
 Frc consts  --      0.0044                 0.0143                 0.0195
 IR Inten    --      6.3998                 0.6947                 0.8222

                      4                      5                      6
                      A                      A                      A
 Frequencies --    151.4322               214.3855               255.1284
 Red. masses --      1.4774                 4.7047                 3.2814
 Frc consts  --      0.0200                 0.1274                 0.1258
 IR Inten    --      0.7590                 0.2670                 1.4601

                      7                      8                      9
                      A                      A                      A
 Frequencies --    283.1740               371.3947               402.5279
 Red. masses --      2.3505                 4.9996                 2.8032
 Frc consts  --      0.1111                 0.4063                 0.2676
 IR Inten    --      0.8313                 1.3799                 2.0766

                     10                     11                     12
                      A                      A                      A
 Frequencies --    438.6084               502.0782               510.3497
 Red. masses --      3.9284                 3.0490                 3.2474
 Frc consts  --      0.4453                 0.4528                 0.4983
 IR Inten    --      8.0797                 3.3903                 3.7439

                     13                     14                     15
                      A                      A                      A
 Frequencies --    528.3564               556.4467               573.9836
 Red. masses --      4.2513                 3.6042                 5.0611
 Frc consts  --      0.6992                 0.6575                 0.9824
 IR Inten    --      8.3728                 2.1065                 4.2860

                     16                     17                     18
                      A                      A                      A
 Frequencies --    662.3273               702.4824               754.7768
 Red. masses --      3.6691                 3.7724                 2.9941
 Frc consts  --      0.9483                 1.0968                 1.0050
 IR Inten    --      3.4548                 8.3364                 4.5278

                     19                     20                     21
                      A                      A                      A
 Frequencies --    801.0866               874.8602               882.3260
 Red. masses --      2.8171                 3.5044                 2.4156
 Frc consts  --      1.0651                 1.5803                 1.1080
 IR Inten    --      2.6410                 3.5597                 6.3691

                     22                     23                     24
                      A                      A                      A
 Frequencies --    897.2958               976.2786               980.7402
 Red. masses --      2.4421                 1.7595                 1.7358
 Frc consts  --      1.1585                 0.9881                 0.9837
 IR Inten    --      3.1280                 6.0628                 7.0581

                     25                     26                     27
                      A                      A                      A
 Frequencies --    999.4952              1053.9826              1064.5199
 Red. masses --      2.4027                 2.1432                 2.0329
 Frc consts  --      1.4142                 1.4027                 1.3573
 IR Inten    --      6.5473                 0.5793                 1.5232

                     28                     29                     30
                      A                      A                      A
 Frequencies --   1075.4556              1148.6878              1170.7644
 Red. masses --      1.8718                 1.4309                 3.7979
 Frc consts  --      1.2755                 1.1124                 3.0671
 IR Inten    --      3.3267                 6.4388                 1.4138

                     31                     32                     33
                      A                      A                      A
 Frequencies --   1216.9462              1229.8111              1240.7325
 Red. masses --      1.8614                 1.2502                 2.4199
 Frc consts  --      1.6242                 1.1140                 2.1948
 IR Inten    --     30.6043                 1.9717                 0.4402

                     34                     35                     36
                      A                      A                      A
 Frequencies --   1277.5978              1285.9050              1313.4776
 Red. masses --      1.8400                 3.6441                 2.7417
 Frc consts  --      1.7696                 3.5503                 2.7868
 IR Inten    --      9.1636                17.0686                 7.5722

                     37                     38                     39
                      A                      A                      A
 Frequencies --   1343.0074              1363.5319              1389.0071
 Red. masses --      1.4180                 1.8842                 1.7312
 Frc consts  --      1.5069                 2.0640                 1.9679
 IR Inten    --      4.4348                 2.8493                18.6974

                     40                     41                     42
                      A                      A                      A
 Frequencies --   1421.8317              1437.1843              1459.5208
 Red. masses --      2.6083                 1.7213                 1.1590
 Frc consts  --      3.1067                 2.0947                 1.4546
 IR Inten    --     14.7742                10.1778                30.7118

                     43                     44                     45
                      A                      A                      A
 Frequencies --   1489.5386              1496.1310              1508.3258
 Red. masses --      1.5660                 1.0964                 1.3997
 Frc consts  --      2.0471                 1.4459                 1.8762
 IR Inten    --     10.3777                 9.3438                37.5742

                     46                     47                     48
                      A                      A                      A
 Frequencies --   1510.3629              1522.4947              1612.3267
 Red. masses --      1.0644                 1.0735                 6.7313
 Frc consts  --      1.4306                 1.4661                10.3099
 IR Inten    --      7.5789                 3.7467                79.1882

                     49                     50                     51
                      A                      A                      A
 Frequencies --   1619.6850              1829.2521              3027.3760
 Red. masses --      7.1127                11.4049                 1.0716
 Frc consts  --     10.9937                22.4847                 5.7863
 IR Inten    --    153.5674               204.9533                 8.5926

                     52                     53                     54
                      A                      A                      A
 Frequencies --   3038.1464              3042.2292              3048.8220
 Red. masses --      1.0669                 1.0686                 1.0405
 Frc consts  --      5.8021                 5.8273                 5.6984
 IR Inten    --     11.9255                 9.9362                 9.0060

                     55                     56                     57
                      A                      A                      A
 Frequencies --   3094.4184              3101.1677              3105.1433
 Red. masses --      1.0929                 1.0988                 1.0920
 Frc consts  --      6.1658                 6.2261                 6.2037
 IR Inten    --     21.0353                 9.3544                 1.6851

                     58                     59                     60
                      A                      A                      A
 Frequencies --   3135.3353              3167.2915              3187.3005
 Red. masses --      1.0958                 1.0995                 1.0909
 Frc consts  --      6.3466                 6.4985                 6.5295
 IR Inten    --     16.0725                 7.4503                34.4140

 - Thermochemistry -
 -------------------
 Temperature   298.150 Kelvin.  Pressure   1.00000 Atm.
 Atom     1 has atomic number  6 and mass  12.00000

 Molecular mass:   162.07931 amu.
 Principal axes and moments of inertia in atomic units:
                           1         2         3
     Eigenvalues --   995.573572453.338223336.44246
           X            0.99978  -0.01994   0.00698
           Y            0.01994   0.99980   0.00029
           Z           -0.00698  -0.00015   0.99998
 This molecule is an asymmetric top.
 Rotational symmetry number  1.
 Warning -- assumption of classical behavior for rotation
           may cause significant error
 Rotational temperatures (Kelvin)      0.08700     0.03530     0.02596
 Rotational constants (GHZ):           1.81277     0.73563     0.54092
 Zero-point vibrational energy     470278.2 (Joules/Mol)
                                  112.39919 (Kcal/Mol)
 Warning -- explicit consideration of  15 degrees of freedom as
           vibrations may cause significant error
 Vibrational temperatures:     58.04   134.72   206.55   217.88   308.45
          (Kelvin)            367.07   407.42   534.35   579.15   631.06
                              722.38   734.28   760.19   800.60   825.83
                              952.94  1010.72  1085.96  1152.59  1258.73
                             1269.47  1291.01  1404.65  1411.07  1438.05
                             1516.45  1531.61  1547.34  1652.71  1684.47
                             1750.91  1769.42  1785.14  1838.18  1850.13
                             1889.80  1932.29  1961.82  1998.47  2045.70
                             2067.79  2099.92  2143.11  2152.60  2170.14
                             2173.08  2190.53  2319.78  2330.37  2631.89
                             4355.72  4371.22  4377.09  4386.57  4452.18
                             4461.89  4467.61  4511.05  4557.03  4585.81

 Zero-point correction=                           0.179120 (Hartree/Particle)
 Thermal correction to Energy=                    0.189212
 Thermal correction to Enthalpy=                  0.190156
 Thermal correction to Gibbs Free Energy=         0.142931
 Sum of electronic and zero-point Energies=           -533.581112
 Sum of electronic and thermal Energies=              -533.571019
 Sum of electronic and thermal Enthalpies=            -533.570075
 Sum of electronic and thermal Free Energies=         -533.617300

                     E (Thermal)             CV                S
                      KCal/Mol        Cal/Mol-Kelvin    Cal/Mol-Kelvin
 Total                  118.732             38.632             99.394
 Electronic               0.000              0.000              0.000
 Translational            0.889              2.981             41.157
 Rotational               0.889              2.981             30.478
 Vibrational            116.955             32.670             27.759
 Vibration     1          0.594              1.981              5.242
 Vibration     2          0.603              1.954              3.583
 Vibration     3          0.616              1.910              2.756
 Vibration     4          0.619              1.901              2.654
 Vibration     5          0.644              1.819              2.006
 Vibration     6          0.665              1.754              1.695
 Vibration     7          0.682              1.705              1.514
 Vibration     8          0.743              1.531              1.074
 Vibration     9          0.768              1.465              0.953
 Vibration    10          0.799              1.386              0.831
 Vibration    11          0.857              1.245              0.653
 Vibration    12          0.865              1.227              0.633
 Vibration    13          0.883              1.187              0.591
 Vibration    14          0.912              1.126              0.531
 Vibration    15          0.930              1.088              0.497

 Optimization completed.
    -- Stationary point found.
 Normal termination of Gaussian 16 at Wed Dec  9 18:26:27 2020.

 ----------------------------------------------------------------------
 # B3LYP/6-311++G(d,p) empiricaldispersion=gd3bj scf=xqc pop=npa geom=c
 heck
 ----------------------------------------------------------------------

 --------------------------------------
 CID_55263678_JID_2997_Energie_neutraal
 --------------------------------------
 Structure from the checkpoint file:  "JID_2997.chk"
 Charge =  0 Multiplicity = 1

 SCF Done:  E(RB3LYP) =  -533.902925572     A.U. after   14 cycles
 Normal termination of Gaussian 16 at Wed Dec  9 18:28:40 2020.

 ----------------------------------------------------------------------
 # B3LYP/6-311++G(d,p) empiricaldispersion=gd3bj scf=xqc pop=npa geom=c
 heck
 ----------------------------------------------------------------------

 ------------------------------------
 CID_55263678_JID_2997_Energie_kation
 ------------------------------------
 Structure from the checkpoint file:  "JID_2997.chk"
 Charge =  1 Multiplicity = 2

 SCF Done:  E(UB3LYP) =  -533.562908956     A.U. after   30 cycles
 Normal termination of Gaussian 16 at Wed Dec  9 18:35:00 2020.
 Gaussian 16:  ES64L-G16RevA.03 25-Dec-2016

 ----------------------------------------------------------------------
 # B3LYP/6-311++G(d,p) empiricaldispersion=gd3bj scf=xqc pop=npa geom=c
 heck
 ----------------------------------------------------------------------

 -----------------------------------
 CID_55263678_JID_2997_Energie_anion
 -----------------------------------
 Structure from the checkpoint file:  "JID_2997.chk"
 Charge = -1 Multiplicity = 2

                         Standard orientation:
 ---------------------------------------------------------------------
 Center     Atomic      Atomic             Coordinates (Angstroms)
 Number     Number       Type             X           Y           Z
 ---------------------------------------------------------------------
      1          6           0       -2.456090    1.927481   -0.160390
      2          6           0       -1.824882    0.564470   -0.064213
      3          6           0       -0.428066    0.394374   -0.027728
      4          6           0        0.531314    1.561199   -0.069537
      5          6           0        1.884446    1.218709    0.579924
      6          6           0        2.449796   -0.058837   -0.008762
      7          8           0        3.570390   -0.137485   -0.470359
      8          6           0        1.512649   -1.257221    0.029071
      9          6           0        0.037566   -0.923978    0.034258
     10          7           0       -0.797419   -1.975494    0.081384
     11          6           0       -2.098134   -1.693445    0.056805
     12          7           0       -2.660258   -0.483359   -0.019027
     13          1           0       -3.538445    1.817701   -0.243593
     14          1           0       -2.082904    2.480694   -1.030348
     15          1           0       -2.231390    2.533600    0.726421
     16          1           0        0.096627    2.429128    0.436434
     17          1           0        0.695868    1.870485   -1.111997
     18          1           0        1.728449    1.057947    1.656626
     19          1           0        2.611759    2.023884    0.452749
     20          1           0        1.747187   -1.919584   -0.811005
     21          1           0        1.741957   -1.838095    0.934452
     22          1           0       -2.780085   -2.540426    0.100063
 ---------------------------------------------------------------------

 SCF Done:  E(UB3LYP) =  -533.901914840     A.U. after   33 cycles
 SCF Done:  E(UB3LYP) =  -533.901914840     a.u. after    1 cycles

 The electronic state is 2-A.
 Alpha  occ. eigenvalues --  -18.97488 -14.17433 -14.16953 -10.11754 -10.10092
 Alpha  occ. eigenvalues --  -10.08439 -10.08047 -10.06409 -10.05823 -10.05582
 Alpha  occ. eigenvalues --  -10.04949 -10.04935  -0.91067  -0.84893  -0.75770
 Alpha  occ. eigenvalues --   -0.71103  -0.64336  -0.62548  -0.59292  -0.53363
 Alpha  occ. eigenvalues --   -0.49554  -0.47654  -0.41121  -0.39044  -0.36958
 Alpha  occ. eigenvalues --   -0.35534  -0.32369  -0.32178  -0.31374  -0.30244
 Alpha  occ. eigenvalues --   -0.29396  -0.28089  -0.26999  -0.26456  -0.25874
 Alpha  occ. eigenvalues --   -0.24427  -0.24283  -0.22261  -0.17032  -0.16626
 Alpha  occ. eigenvalues --   -0.13800  -0.12300  -0.11669   0.04911
 Alpha virt. eigenvalues --    0.07608   0.08521   0.09552   0.09662   0.10442
 Alpha virt. eigenvalues --    0.10634   0.11051   0.11815   0.12326   0.12692
 Alpha virt. eigenvalues --    0.13689   0.14759   0.15789   0.16063   0.16629

  Beta  occ. eigenvalues --  -18.97321 -14.17366 -14.16760 -10.11561 -10.10093
  Beta  occ. eigenvalues --  -10.08275 -10.07757 -10.06371 -10.05892 -10.05594
  Beta  occ. eigenvalues --  -10.04986 -10.04933  -0.90730  -0.84624  -0.75412
  Beta  occ. eigenvalues --   -0.70925  -0.64094  -0.62370  -0.59164  -0.53257
  Beta  occ. eigenvalues --   -0.49394  -0.47280  -0.40860  -0.38815  -0.36773
  Beta  occ. eigenvalues --   -0.35317  -0.32138  -0.31785  -0.30947  -0.30071
  Beta  occ. eigenvalues --   -0.29263  -0.27735  -0.26845  -0.26345  -0.25550
  Beta  occ. eigenvalues --   -0.24261  -0.24138  -0.21521  -0.16436  -0.15951
  Beta  occ. eigenvalues --   -0.13225  -0.12140  -0.11496
  Beta virt. eigenvalues --    0.07780   0.09245   0.09518   0.09807   0.10125
  Beta virt. eigenvalues --    0.10548   0.11189   0.11601   0.12218   0.12804
  Beta virt. eigenvalues --    0.13035   0.13752   0.14854   0.15761   0.15973

 Mulliken charges and spin densities:
               1          2
     1  C    1.124270  -1.736042
     2  C   -1.370473   1.570822
     3  C    1.256733  -0.180222
     4  C   -0.715198  -0.205704
     5  C    0.071700  -0.424185
     6  C   -0.219263   0.328014
     7  O   -0.357837   0.070683
     8  C    0.027970  -0.459477
     9  C   -0.276891  -0.263248
    10  N   -0.125219   0.138216
    11  C   -0.048125   0.150213
    12  N   -0.124742   0.062073
    13  H    0.035757   0.114154
    14  H   -0.263056   0.421293
    15  H    0.057877   0.090989
    16  H   -0.269513   0.432293
    17  H    0.097452   0.061983
    18  H   -0.237915   0.401482
    19  H    0.093465   0.071776
    20  H    0.214711  -0.015299
    21  H   -0.119166   0.342149
    22  H    0.147462   0.028038
 Sum of Mulliken charges =  -1.00000   1.00000

 Dipole moment (field-independent basis, Debye):
    X=             -1.5061    Y=              0.2436    Z=             -0.4057  Tot=              1.5787
 Quadrupole moment (field-independent basis, Debye-Ang):
   XX=           -121.4117   YY=            -99.2124   ZZ=            -86.9910
   XY=              3.3536   XZ=             -0.6638   YZ=              0.8552

 Summary of Natural Population Analysis:

                                       Natural Population
                Natural  -----------------------------------------------
    Atom  No    Charge         Core      Valence    Rydberg      Total
 -----------------------------------------------------------------------
      C    1   -0.30633      0.99964     2.30082    0.00587     3.30633
      C    2    0.17151      0.99951     1.81451    0.01447     2.82849
      C    3   -0.06809      0.99942     2.05994    0.00873     3.06809
      C    4   -0.19264      0.99961     2.18404    0.00899     3.19264
      C    5   -0.23346      0.99959     2.22494    0.00892     3.23346
      C    6    0.32130      0.99966     1.65753    0.02151     2.67870
      O    7   -0.28541      0.99987     3.27860    0.00694     4.28541
      C    8   -0.25502      0.99956     2.24493    0.01054     3.25502
      C    9    0.15150      0.99949     1.83531    0.01370     2.84850
      N   10   -0.23731      0.99968     2.72683    0.01080     3.73731
      C   11    0.13785      0.99966     1.84314    0.01934     2.86215
      N   12   -0.25788      0.99968     2.74829    0.00991     3.75788
      H   13    0.10659      0.00000     0.39187    0.00155     0.39341
      H   14    0.10536      0.00000     0.39294    0.00170     0.39464
      H   15    0.10412      0.00000     0.39482    0.00106     0.39588
      H   16    0.10628      0.00000     0.39175    0.00197     0.39372
      H   17    0.10060      0.00000     0.39823    0.00116     0.39940
      H   18    0.10871      0.00000     0.38861    0.00269     0.39129
      H   19    0.10468      0.00000     0.39423    0.00109     0.39532
      H   20    0.11789      0.00000     0.38100    0.00111     0.38211
      H   21    0.12508      0.00000     0.37242    0.00250     0.37492
      H   22    0.07468      0.00000     0.42429    0.00103     0.42532
 =======================================================================
   * Total *   -0.00000     11.99537    30.84905    0.15558    43.00000

 Normal termination of Gaussian 16 at Wed Dec  9 18:41:33 2020.
