 Gaussian 16, Revision A.03,

 -----------------------------------------------------------
 # opt freq B3LYP/6-31G(d) empiricaldispersion=gd3bj scf=xqc
 -----------------------------------------------------------

 -------------------------------
 CID_103715848_JID_5048_neutraal
 -------------------------------
 Symbolic Z-matrix:
 Charge =  0 Multiplicity = 1

 SCF Done:  E(RB3LYP) =  -673.892274895     A.U. after   15 cycles
 SCF Done:  E(RB3LYP) =  -673.917347461     A.U. after   13 cycles
 SCF Done:  E(RB3LYP) =  -673.918018281     A.U. after   13 cycles
 SCF Done:  E(RB3LYP) =  -673.918708996     A.U. after   12 cycles
 SCF Done:  E(RB3LYP) =  -673.920571574     A.U. after   12 cycles
 SCF Done:  E(RB3LYP) =  -673.921570793     A.U. after   11 cycles
 SCF Done:  E(RB3LYP) =  -673.921786274     A.U. after   13 cycles
 SCF Done:  E(RB3LYP) =  -673.922101574     A.U. after   11 cycles
 SCF Done:  E(RB3LYP) =  -673.921896142     A.U. after   12 cycles
 SCF Done:  E(RB3LYP) =  -673.922240044     A.U. after   11 cycles
 SCF Done:  E(RB3LYP) =  -673.922341856     A.U. after   11 cycles
 SCF Done:  E(RB3LYP) =  -673.922345016     A.U. after    9 cycles
 SCF Done:  E(RB3LYP) =  -673.922345340     A.U. after    9 cycles
 SCF Done:  E(RB3LYP) =  -673.922345742     A.U. after    7 cycles
 Optimization completed.
    -- Stationary point found.
 Normal termination of Gaussian 16 at Thu Dec 10 14:48:36 2020.

 --------------------------------------------------------------------
 #N Geom=AllCheck Guess=TCheck SCRF=Check GenChk RB3LYP/6-31G(d) Freq
 --------------------------------------------------------------------

 Structure from the checkpoint file:  "JID_5048.chk"
 -------------------------------
 CID_103715848_JID_5048_neutraal
 -------------------------------
 Charge =  0 Multiplicity = 1

 SCF Done:  E(RB3LYP) =  -673.922345742     A.U. after    1 cycles

  Exact polarizability: 137.468   1.021 120.979  -3.403  -3.915 123.663
 Approx polarizability: 178.279   4.063 183.688  -6.439 -18.346 189.987

                      1                      2                      3
                      A                      A                      A
 Frequencies --     57.8960                84.2110               117.4980
 Red. masses --      4.3174                 2.2483                 3.1748
 Frc consts  --      0.0085                 0.0094                 0.0258
 IR Inten    --      1.9624                 0.2880                 0.6597

                      4                      5                      6
                      A                      A                      A
 Frequencies --    130.4485               143.5662               162.1155
 Red. masses --      5.4729                 4.4815                 3.0109
 Frc consts  --      0.0549                 0.0544                 0.0466
 IR Inten    --      5.7406                 2.3979                 1.5618

                      7                      8                      9
                      A                      A                      A
 Frequencies --    179.0197               202.2696               251.1745
 Red. masses --      3.0605                 3.0413                 1.6547
 Frc consts  --      0.0578                 0.0733                 0.0615
 IR Inten    --      1.7049                 0.9275                 0.0812

                     10                     11                     12
                      A                      A                      A
 Frequencies --    272.4426               284.6191               308.2690
 Red. masses --      2.3059                 3.0215                 2.9082
 Frc consts  --      0.1008                 0.1442                 0.1628
 IR Inten    --      7.0527                 9.8267                 1.5780

                     13                     14                     15
                      A                      A                      A
 Frequencies --    334.1889               350.0360               357.5063
 Red. masses --      3.5576                 2.7759                 2.7864
 Frc consts  --      0.2341                 0.2004                 0.2098
 IR Inten    --      0.6215                 2.3813                 0.9842

                     16                     17                     18
                      A                      A                      A
 Frequencies --    390.2694               429.8728               445.4446
 Red. masses --      2.8023                 2.7772                 5.7101
 Frc consts  --      0.2515                 0.3024                 0.6675
 IR Inten    --      5.1298                 9.3927                 0.4031

                     19                     20                     21
                      A                      A                      A
 Frequencies --    475.8652               483.4568               544.8151
 Red. masses --      2.9907                 3.8770                 6.2068
 Frc consts  --      0.3990                 0.5339                 1.0855
 IR Inten    --      1.8480                 3.2639                 0.5377

                     22                     23                     24
                      A                      A                      A
 Frequencies --    565.2563               582.1043               608.2585
 Red. masses --      3.2590                 2.3900                 3.3910
 Frc consts  --      0.6135                 0.4772                 0.7392
 IR Inten    --      5.0189                 1.8786                 3.9492

                     25                     26                     27
                      A                      A                      A
 Frequencies --    655.2843               692.0266               791.4975
 Red. masses --      1.2530                 1.9278                 1.5316
 Frc consts  --      0.3170                 0.5439                 0.5653
 IR Inten    --    130.4854                49.5925                 0.5587

                     28                     29                     30
                      A                      A                      A
 Frequencies --    807.3073               817.0582               842.9635
 Red. masses --      1.1645                 1.4931                 1.4329
 Frc consts  --      0.4472                 0.5873                 0.5999
 IR Inten    --      0.1950                 3.2767                 5.7606

                     31                     32                     33
                      A                      A                      A
 Frequencies --    872.3567               880.7138               906.6271
 Red. masses --      2.6752                 1.7533                 2.3751
 Frc consts  --      1.1995                 0.8013                 1.1502
 IR Inten    --     10.6722                13.8305                 6.6916

                     34                     35                     36
                      A                      A                      A
 Frequencies --    915.5018               932.0199               965.6272
 Red. masses --      2.6583                 2.8511                 3.3551
 Frc consts  --      1.3127                 1.4592                 1.8432
 IR Inten    --      2.2023                14.8745                 4.6754

                     37                     38                     39
                      A                      A                      A
 Frequencies --    992.8245              1001.9723              1025.6910
 Red. masses --      1.9961                 3.2415                 2.3358
 Frc consts  --      1.1592                 1.9174                 1.4478
 IR Inten    --     27.4212                17.2337                30.8728

                     40                     41                     42
                      A                      A                      A
 Frequencies --   1037.3214              1053.7779              1077.5953
 Red. masses --      1.8628                 1.8312                 1.3748
 Frc consts  --      1.1810                 1.1981                 0.9406
 IR Inten    --      1.4969                12.6478                 6.8633

                     43                     44                     45
                      A                      A                      A
 Frequencies --   1091.0883              1098.0317              1108.3236
 Red. masses --      2.5044                 1.5757                 1.8289
 Frc consts  --      1.7566                 1.1193                 1.3237
 IR Inten    --      1.0146                12.2021                40.8612

                     46                     47                     48
                      A                      A                      A
 Frequencies --   1111.6323              1122.7432              1136.3199
 Red. masses --      2.2284                 4.2238                 2.5790
 Frc consts  --      1.6225                 3.1370                 1.9620
 IR Inten    --     20.5407                39.2107                26.7889

                     49                     50                     51
                      A                      A                      A
 Frequencies --   1157.9458              1182.1750              1197.0499
 Red. masses --      1.1230                 2.7212                 2.6240
 Frc consts  --      0.8871                 2.2406                 2.2154
 IR Inten    --      2.9452                 7.3587                16.5029

                     52                     53                     54
                      A                      A                      A
 Frequencies --   1219.4715              1232.7106              1247.3257
 Red. masses --      1.3621                 2.1161                 1.7582
 Frc consts  --      1.1934                 1.8945                 1.6117
 IR Inten    --      0.3696                19.5450                 6.9953

                     55                     56                     57
                      A                      A                      A
 Frequencies --   1256.8979              1270.6618              1330.6448
 Red. masses --      1.5137                 1.4809                 1.2214
 Frc consts  --      1.4089                 1.4088                 1.2742
 IR Inten    --      2.2710                13.6732                 5.8836

                     58                     59                     60
                      A                      A                      A
 Frequencies --   1349.8193              1355.3131              1373.0989
 Red. masses --      1.2132                 1.2633                 1.2712
 Frc consts  --      1.3023                 1.3673                 1.4121
 IR Inten    --      5.5453                 4.5154                 2.8180

                     61                     62                     63
                      A                      A                      A
 Frequencies --   1383.0986              1409.0854              1416.7048
 Red. masses --      1.2788                 1.3465                 1.3460
 Frc consts  --      1.4413                 1.5752                 1.5917
 IR Inten    --     13.0465                 2.9605                13.0156

                     64                     65                     66
                      A                      A                      A
 Frequencies --   1419.9388              1432.6604              1438.1642
 Red. masses --      1.5352                 1.2827                 1.2926
 Frc consts  --      1.8238                 1.5512                 1.5751
 IR Inten    --      5.6740                 5.3483                 3.4322

                     67                     68                     69
                      A                      A                      A
 Frequencies --   1459.9023              1487.0387              1510.8236
 Red. masses --      1.3672                 1.0946                 1.0783
 Frc consts  --      1.7169                 1.4261                 1.4502
 IR Inten    --     53.1328                 1.3407                 0.8044

                     70                     71                     72
                      A                      A                      A
 Frequencies --   1514.7382              1522.9065              1524.3103
 Red. masses --      1.0831                 1.0886                 1.0940
 Frc consts  --      1.4642                 1.4875                 1.4977
 IR Inten    --      3.3213                 2.5539                 4.0791

                     73                     74                     75
                      A                      A                      A
 Frequencies --   1528.3844              1536.3647              1540.4549
 Red. masses --      1.1122                 1.2469                 1.1005
 Frc consts  --      1.5307                 1.7341                 1.5386
 IR Inten    --      2.0028                 6.6532                21.1159

                     76                     77                     78
                      A                      A                      A
 Frequencies --   1543.2463              2353.1002              3009.8442
 Red. masses --      1.0687                12.7005                 1.0713
 Frc consts  --      1.4997                41.4334                 5.7178
 IR Inten    --      6.0619                13.2636                46.3200

                     79                     80                     81
                      A                      A                      A
 Frequencies --   3024.6725              3050.5370              3060.8589
 Red. masses --      1.0733                 1.0718                 1.0582
 Frc consts  --      5.7852                 5.8767                 5.8415
 IR Inten    --     43.8227                20.2242                32.7869

                     82                     83                     84
                      A                      A                      A
 Frequencies --   3064.5842              3066.6077              3101.7598
 Red. masses --      1.0407                 1.0678                 1.1023
 Frc consts  --      5.7584                 5.9166                 6.2483
 IR Inten    --     23.0512                36.8763                12.9472

                     85                     86                     87
                      A                      A                      A
 Frequencies --   3124.3843              3127.6349              3134.4635
 Red. masses --      1.0943                 1.0991                 1.0917
 Frc consts  --      6.2940                 6.3345                 6.3194
 IR Inten    --     27.8711                24.3214                23.8810

                     88                     89                     90
                      A                      A                      A
 Frequencies --   3142.7133              3146.6920              3151.6878
 Red. masses --      1.0972                 1.0537                 1.1027
 Frc consts  --      6.3846                 6.1473                 6.4534
 IR Inten    --     15.4719                14.5023                28.4624

                     91                     92                     93
                      A                      A                      A
 Frequencies --   3158.6731              3169.7050              3187.1703
 Red. masses --      1.0577                 1.0877                 1.0924
 Frc consts  --      6.2175                 6.4384                 6.5382
 IR Inten    --     15.2572                 5.2248                 8.9521

                     94                     95                     96
                      A                      A                      A
 Frequencies --   3223.9227              3249.7203              3618.8651
 Red. masses --      1.1177                 1.1155                 1.0662
 Frc consts  --      6.8447                 6.9410                 8.2269
 IR Inten    --      6.0639                 8.5249               166.2538

 - Thermochemistry -
 -------------------
 Temperature   298.150 Kelvin.  Pressure   1.00000 Atm.
 Atom     1 has atomic number  6 and mass  12.00000

 Molecular mass:   209.14158 amu.
 Principal axes and moments of inertia in atomic units:
                           1         2         3
     Eigenvalues --  2275.653543413.371223594.58101
           X            0.99999  -0.00450   0.00008
           Y            0.00417   0.93392   0.35746
           Z           -0.00168  -0.35746   0.93393
 This molecule is an asymmetric top.
 Rotational symmetry number  1.
 Warning -- assumption of classical behavior for rotation
           may cause significant error
 Rotational temperatures (Kelvin)      0.03806     0.02537     0.02410
 Rotational constants (GHZ):           0.79307     0.52873     0.50207
 Zero-point vibrational energy     787773.5 (Joules/Mol)
                                  188.28238 (Kcal/Mol)
 Warning -- explicit consideration of  24 degrees of freedom as
           vibrations may cause significant error
 Vibrational temperatures:     83.30   121.16   169.05   187.69   206.56
          (Kelvin)            233.25   257.57   291.02   361.38   391.98
                              409.50   443.53   480.82   503.62   514.37
                              561.51   618.49   640.90   684.66   695.59
                              783.87   813.28   837.52   875.15   942.81
                              995.67  1138.79  1161.54  1175.56  1212.84
                             1255.13  1267.15  1304.43  1317.20  1340.97
                             1389.32  1428.45  1441.61  1475.74  1492.47
                             1516.15  1550.42  1569.83  1579.82  1594.63
                             1599.39  1615.38  1634.91  1666.03  1700.89
                             1722.29  1754.55  1773.60  1794.62  1808.40
                             1828.20  1914.50  1942.09  1949.99  1975.58
                             1989.97  2027.36  2038.32  2042.98  2061.28
                             2069.20  2100.47  2139.52  2173.74  2179.37
                             2191.12  2193.14  2199.00  2210.49  2216.37
                             2220.39  3385.59  4330.49  4351.83  4389.04
                             4403.89  4409.25  4412.16  4462.74  4495.29
                             4499.97  4509.79  4521.66  4527.39  4534.58
                             4544.63  4560.50  4585.63  4638.51  4675.62
                             5206.74

 Zero-point correction=                           0.300047 (Hartree/Particle)
 Thermal correction to Energy=                    0.314647
 Thermal correction to Enthalpy=                  0.315592
 Thermal correction to Gibbs Free Energy=         0.259871
 Sum of electronic and zero-point Energies=           -673.622299
 Sum of electronic and thermal Energies=              -673.607698
 Sum of electronic and thermal Enthalpies=            -673.606754
 Sum of electronic and thermal Free Energies=         -673.662475

                     E (Thermal)             CV                S
                      KCal/Mol        Cal/Mol-Kelvin    Cal/Mol-Kelvin
 Total                  197.444             58.276            117.274
 Electronic               0.000              0.000              0.000
 Translational            0.889              2.981             41.917
 Rotational               0.889              2.981             31.702
 Vibrational            195.667             52.314             43.655
 Vibration     1          0.596              1.974              4.528
 Vibration     2          0.601              1.960              3.790
 Vibration     3          0.608              1.935              3.141
 Vibration     4          0.612              1.923              2.939
 Vibration     5          0.616              1.910              2.756
 Vibration     6          0.622              1.889              2.525
 Vibration     7          0.629              1.868              2.339
 Vibration     8          0.639              1.837              2.112
 Vibration     9          0.663              1.761              1.722
 Vibration    10          0.675              1.724              1.581
 Vibration    11          0.683              1.702              1.506
 Vibration    12          0.698              1.658              1.372
 Vibration    13          0.716              1.607              1.240
 Vibration    14          0.727              1.575              1.166
 Vibration    15          0.733              1.560              1.133
 Vibration    16          0.758              1.491              0.999
 Vibration    17          0.791              1.405              0.859
 Vibration    18          0.805              1.371              0.810
 Vibration    19          0.833              1.304              0.721
 Vibration    20          0.840              1.287              0.701
 Vibration    21          0.900              1.151              0.555
 Vibration    22          0.921              1.106              0.513
 Vibration    23          0.939              1.070              0.481
 Vibration    24          0.967              1.014              0.436

 Optimization completed.
    -- Stationary point found.
 Normal termination of Gaussian 16 at Thu Dec 10 15:00:48 2020.

 ----------------------------------------------------------------------
 # B3LYP/6-311++G(d,p) empiricaldispersion=gd3bj scf=xqc pop=npa geom=c
 heck
 ----------------------------------------------------------------------

 ---------------------------------------
 CID_103715848_JID_5048_Energie_neutraal
 ---------------------------------------
 Structure from the checkpoint file:  "JID_5048.chk"
 Charge =  0 Multiplicity = 1

 SCF Done:  E(RB3LYP) =  -674.114985748     A.U. after   15 cycles
 Normal termination of Gaussian 16 at Thu Dec 10 15:06:48 2020.

 ----------------------------------------------------------------------
 # B3LYP/6-311++G(d,p) empiricaldispersion=gd3bj scf=xqc pop=npa geom=c
 heck
 ----------------------------------------------------------------------

 -------------------------------------
 CID_103715848_JID_5048_Energie_kation
 -------------------------------------
 Structure from the checkpoint file:  "JID_5048.chk"
 Charge =  1 Multiplicity = 2

 SCF Done:  E(UB3LYP) =  -673.775223297     A.U. after   32 cycles
 Normal termination of Gaussian 16 at Thu Dec 10 15:26:08 2020.
 Gaussian 16:  ES64L-G16RevA.03 25-Dec-2016

 ----------------------------------------------------------------------
 # B3LYP/6-311++G(d,p) empiricaldispersion=gd3bj scf=xqc pop=npa geom=c
 heck
 ----------------------------------------------------------------------

 ------------------------------------
 CID_103715848_JID_5048_Energie_anion
 ------------------------------------
 Structure from the checkpoint file:  "JID_5048.chk"
 Charge = -1 Multiplicity = 2

                         Standard orientation:
 ---------------------------------------------------------------------
 Center     Atomic      Atomic             Coordinates (Angstroms)
 Number     Number       Type             X           Y           Z
 ---------------------------------------------------------------------
      1          6           0       -2.600834   -1.092475   -1.750362
      2          6           0       -1.309842   -1.369153   -0.976288
      3          6           0       -0.691907   -0.141424   -0.279146
      4          6           0       -1.682923    0.469574    0.718260
      5          6           0       -1.637837    1.933165    1.102425
      6          6           0       -2.758700    1.413633    0.246771
      7          6           0        0.643629   -0.569807    0.485138
      8          6           0        1.723828   -1.261565   -0.403561
      9          6           0        2.406639   -0.280263   -1.367093
     10          6           0        2.878657    0.968675   -0.623836
     11          8           0        1.821371    1.554386    0.151323
     12          6           0        1.343958    0.651953    1.143887
     13          6           0        0.285888   -1.496052    1.565189
     14          7           0        0.018323   -2.223782    2.429897
     15          8           0       -0.381026    0.793625   -1.306736
     16          1           0       -3.423712   -0.816157   -1.086506
     17          1           0       -2.901163   -1.989699   -2.302594
     18          1           0       -2.454086   -0.283011   -2.470999
     19          1           0       -1.486067   -2.147374   -0.224098
     20          1           0       -0.569128   -1.763794   -1.678790
     21          1           0       -1.970127   -0.212955    1.514616
     22          1           0       -1.839196    2.191631    2.138277
     23          1           0       -0.907239    2.575194    0.618380
     24          1           0       -2.739185    1.694913   -0.800129
     25          1           0       -3.750336    1.316641    0.679175
     26          1           0        2.476825   -1.679468    0.277077
     27          1           0        1.296340   -2.106830   -0.945998
     28          1           0        1.712176    0.004157   -2.160383
     29          1           0        3.271811   -0.766771   -1.833783
     30          1           0        3.211055    1.750461   -1.311185
     31          1           0        3.711300    0.724856    0.054491
     32          1           0        0.656659    1.210429    1.775593
     33          1           0        2.183494    0.298035    1.760159
     34          1           0        0.266231    1.424548   -0.937584
 ---------------------------------------------------------------------

 SCF Done:  E(UB3LYP) =  -674.102166723     A.U. after   33 cycles
 SCF Done:  E(UB3LYP) =  -674.102166723     a.u. after    1 cycles

 The electronic state is 2-A.
 Alpha  occ. eigenvalues --  -19.05320 -19.02751 -14.22439 -10.15588 -10.14159
 Alpha  occ. eigenvalues --  -10.13664 -10.12516 -10.12169 -10.09012 -10.08983
 Alpha  occ. eigenvalues --  -10.08473 -10.08151 -10.07710 -10.07332 -10.06643
 Alpha  occ. eigenvalues --   -0.96686  -0.93629  -0.82338  -0.77334  -0.74210
 Alpha  occ. eigenvalues --   -0.69272  -0.68361  -0.60974  -0.57049  -0.56628
 Alpha  occ. eigenvalues --   -0.52158  -0.51624  -0.49160  -0.47934  -0.44143
 Alpha  occ. eigenvalues --   -0.42501  -0.41374  -0.40239  -0.39491  -0.37305
 Alpha  occ. eigenvalues --   -0.36002  -0.34521  -0.33273  -0.32381  -0.31937
 Alpha  occ. eigenvalues --   -0.30833  -0.30049  -0.28857  -0.28421  -0.27872
 Alpha  occ. eigenvalues --   -0.27157  -0.27023  -0.26411  -0.26056  -0.24884
 Alpha  occ. eigenvalues --   -0.24084  -0.23459  -0.22733  -0.21107  -0.20014
 Alpha  occ. eigenvalues --   -0.18330  -0.17553   0.04311
 Alpha virt. eigenvalues --    0.06051   0.06811   0.07687   0.08337   0.08426
 Alpha virt. eigenvalues --    0.09156   0.09856   0.10280   0.10595   0.11081
 Alpha virt. eigenvalues --    0.11171   0.11400   0.12082   0.12271   0.12537

  Beta  occ. eigenvalues --  -19.05310 -19.02742 -14.22432 -10.15585 -10.14141
  Beta  occ. eigenvalues --  -10.13661 -10.12475 -10.12166 -10.09008 -10.08962
  Beta  occ. eigenvalues --  -10.08460 -10.08139 -10.07699 -10.07301 -10.06630
  Beta  occ. eigenvalues --   -0.96668  -0.93613  -0.82325  -0.77321  -0.74185
  Beta  occ. eigenvalues --   -0.69225  -0.68331  -0.60943  -0.56987  -0.56594
  Beta  occ. eigenvalues --   -0.52122  -0.51583  -0.49092  -0.47909  -0.44097
  Beta  occ. eigenvalues --   -0.42465  -0.41343  -0.40206  -0.39443  -0.37268
  Beta  occ. eigenvalues --   -0.35974  -0.34502  -0.33250  -0.32336  -0.31883
  Beta  occ. eigenvalues --   -0.30810  -0.30016  -0.28843  -0.28397  -0.27853
  Beta  occ. eigenvalues --   -0.27134  -0.27003  -0.26379  -0.26020  -0.24864
  Beta  occ. eigenvalues --   -0.24062  -0.23430  -0.22696  -0.21086  -0.19993
  Beta  occ. eigenvalues --   -0.18313  -0.17515
  Beta virt. eigenvalues --    0.06280   0.07284   0.07356   0.08180   0.08935
  Beta virt. eigenvalues --    0.09125   0.09610   0.10165   0.10387   0.10701
  Beta virt. eigenvalues --    0.11323   0.11532   0.11770   0.12514   0.12551

 Mulliken charges and spin densities:
               1          2
     1  C    0.126385  -0.871266
     2  C   -0.562230   0.573787
     3  C    0.271874  -1.019975
     4  C   -0.968109   1.006121
     5  C    0.474306  -0.987028
     6  C    0.281435  -0.809685
     7  C    0.580852   1.187019
     8  C    0.439297  -0.687323
     9  C   -0.745148   0.408071
    10  C    1.771388  -2.133042
    11  O   -0.144361   0.075527
    12  C   -0.280339  -0.541011
    13  C   -0.001857  -0.852995
    14  N   -0.241565   0.039609
    15  O   -0.062143   0.029158
    16  H    0.018254   0.133121
    17  H   -0.225669   0.375707
    18  H    0.087176   0.089608
    19  H    0.064631   0.150788
    20  H    0.160459  -0.024435
    21  H    0.047333   0.241198
    22  H   -0.139669   0.307756
    23  H    0.141845   0.009397
    24  H    0.151104   0.012898
    25  H   -0.149435   0.303452
    26  H   -0.127118   0.351199
    27  H   -0.271082   0.474287
    28  H    0.272013  -0.106691
    29  H   -1.149395   1.349773
    30  H   -0.583853   0.781460
    31  H   -0.150148   0.307932
    32  H    0.130695   0.105992
    33  H   -0.313447   0.515151
    34  H    0.096522   0.204441
 Sum of Mulliken charges =  -1.00000   1.00000

 Dipole moment (field-independent basis, Debye):
    X=             -5.4225    Y=              1.9302    Z=              0.6957  Tot=              5.7976
 Quadrupole moment (field-independent basis, Debye-Ang):
   XX=           -169.6554   YY=           -137.4848   ZZ=           -139.1940
   XY=              1.5897   XZ=              9.2910   YZ=              2.5846

 Summary of Natural Population Analysis:

                                       Natural Population
                Natural  -----------------------------------------------
    Atom  No    Charge         Core      Valence    Rydberg      Total
 -----------------------------------------------------------------------
      C    1   -0.28289      0.99966     2.27904    0.00419     3.28289
      C    2   -0.19885      0.99957     2.18893    0.01035     3.19885
      C    3    0.15486      0.99948     1.82600    0.01967     2.84514
      C    4   -0.13803      0.99953     2.12608    0.01242     3.13803
      C    5   -0.20429      0.99961     2.19566    0.00902     3.20429
      C    6   -0.19566      0.99961     2.18685    0.00920     3.19566
      C    7   -0.10895      0.99944     2.09393    0.01558     3.10895
      C    8   -0.18399      0.99960     2.17188    0.01251     3.18399
      C    9   -0.20973      0.99961     2.20063    0.00949     3.20973
      C   10   -0.00894      0.99957     1.99641    0.01295     3.00894
      O   11   -0.30581      0.99989     3.29705    0.00887     4.30581
      C   12   -0.00497      0.99952     1.99109    0.01435     3.00497
      C   13    0.17154      0.99961     1.80845    0.02040     2.82846
      N   14   -0.18093      0.99979     2.66976    0.01138     3.68093
      O   15   -0.38795      0.99988     3.38138    0.00668     4.38795
      H   16    0.09804      0.00000     0.40092    0.00104     0.40196
      H   17    0.09804      0.00000     0.40113    0.00083     0.40196
      H   18    0.10299      0.00000     0.39579    0.00122     0.39701
      H   19    0.10259      0.00000     0.39624    0.00117     0.39741
      H   20    0.10141      0.00000     0.39714    0.00145     0.39859
      H   21    0.11307      0.00000     0.38538    0.00155     0.38693
      H   22    0.10392      0.00000     0.39522    0.00086     0.39608
      H   23    0.10434      0.00000     0.39438    0.00128     0.39566
      H   24    0.11002      0.00000     0.38885    0.00113     0.38998
      H   25    0.10197      0.00000     0.39719    0.00084     0.39803
      H   26    0.10528      0.00000     0.39244    0.00228     0.39472
      H   27    0.10803      0.00000     0.39023    0.00174     0.39197
      H   28    0.10712      0.00000     0.39136    0.00152     0.39288
      H   29    0.11087      0.00000     0.38506    0.00407     0.38913
      H   30    0.09639      0.00000     0.40172    0.00189     0.40361
      H   31    0.08484      0.00000     0.41228    0.00288     0.41516
      H   32    0.10309      0.00000     0.39518    0.00173     0.39691
      H   33    0.09073      0.00000     0.40750    0.00178     0.40927
      H   34    0.24187      0.00000     0.25413    0.00400     0.25813
 =======================================================================
   * Total *    0.00000     14.99438    41.79527    0.21034    57.00000

 Normal termination of Gaussian 16 at Thu Dec 10 15:46:22 2020.
