 Gaussian 16, Revision A.03,

 -----------------------------------------------------------
 # opt freq B3LYP/6-31G(d) empiricaldispersion=gd3bj scf=xqc
 -----------------------------------------------------------

 -------------------------------
 CID_130062185_JID_2053_neutraal
 -------------------------------
 Symbolic Z-matrix:
 Charge =  0 Multiplicity = 1

 SCF Done:  E(RB3LYP) =  -497.766198559     A.U. after   14 cycles
 SCF Done:  E(RB3LYP) =  -497.769316554     A.U. after   13 cycles
 SCF Done:  E(RB3LYP) =  -497.769915535     A.U. after   12 cycles
 SCF Done:  E(RB3LYP) =  -497.770612859     A.U. after   12 cycles
 SCF Done:  E(RB3LYP) =  -497.771061592     A.U. after   12 cycles
 SCF Done:  E(RB3LYP) =  -497.771539449     A.U. after   12 cycles
 SCF Done:  E(RB3LYP) =  -497.771992738     A.U. after   12 cycles
 SCF Done:  E(RB3LYP) =  -497.772132587     A.U. after   12 cycles
 SCF Done:  E(RB3LYP) =  -497.772157503     A.U. after   11 cycles
 SCF Done:  E(RB3LYP) =  -497.772194761     A.U. after   11 cycles
 SCF Done:  E(RB3LYP) =  -497.772203286     A.U. after   10 cycles
 SCF Done:  E(RB3LYP) =  -497.772204003     A.U. after    8 cycles
 SCF Done:  E(RB3LYP) =  -497.772204192     A.U. after    7 cycles
 Optimization completed.
    -- Stationary point found.
 Normal termination of Gaussian 16 at Wed Dec  9 16:46:44 2020.

 --------------------------------------------------------------------
 #N Geom=AllCheck Guess=TCheck SCRF=Check GenChk RB3LYP/6-31G(d) Freq
 --------------------------------------------------------------------

 Structure from the checkpoint file:  "JID_2053.chk"
 -------------------------------
 CID_130062185_JID_2053_neutraal
 -------------------------------
 Charge =  0 Multiplicity = 1

 SCF Done:  E(RB3LYP) =  -497.772204192     A.U. after    1 cycles

  Exact polarizability: 157.518  15.827 117.289  -2.681   1.750  67.480
 Approx polarizability: 241.019  28.195 192.715  -4.075   1.196 102.202

                      1                      2                      3
                      A                      A                      A
 Frequencies --     77.6306                85.9509               106.6169
 Red. masses --      3.5104                 3.8017                 3.0905
 Frc consts  --      0.0125                 0.0165                 0.0207
 IR Inten    --      0.1419                 0.6161                 0.1563

                      4                      5                      6
                      A                      A                      A
 Frequencies --    148.3040               190.9640               217.8624
 Red. masses --      2.2414                 2.8844                 3.7793
 Frc consts  --      0.0290                 0.0620                 0.1057
 IR Inten    --      0.6202                 3.1121                 2.5496

                      7                      8                      9
                      A                      A                      A
 Frequencies --    253.9097               288.8163               305.7457
 Red. masses --      3.3092                 2.9781                 1.7488
 Frc consts  --      0.1257                 0.1464                 0.0963
 IR Inten    --      0.7440                 7.3810                26.0673

                     10                     11                     12
                      A                      A                      A
 Frequencies --    351.8874               371.4425               411.9970
 Red. masses --      1.4785                 3.6578                 2.7148
 Frc consts  --      0.1079                 0.2973                 0.2715
 IR Inten    --     37.3638                 6.1257                 0.6493

                     13                     14                     15
                      A                      A                      A
 Frequencies --    498.5986               532.5873               560.5205
 Red. masses --      2.5631                 2.6477                 3.6114
 Frc consts  --      0.3754                 0.4425                 0.6685
 IR Inten    --      1.4340                 3.7648                10.9586

                     16                     17                     18
                      A                      A                      A
 Frequencies --    588.5017               612.6304               677.0100
 Red. masses --      3.0442                 3.2520                 1.9501
 Frc consts  --      0.6212                 0.7191                 0.5266
 IR Inten    --      0.9871                 7.4861                 2.8009

                     19                     20                     21
                      A                      A                      A
 Frequencies --    685.7520               764.9121               811.2300
 Red. masses --      4.1046                 2.4094                 1.7349
 Frc consts  --      1.1373                 0.8306                 0.6727
 IR Inten    --      0.2170                17.4327                23.1601

                     22                     23                     24
                      A                      A                      A
 Frequencies --    819.6016               862.5605               876.6531
 Red. masses --      2.9922                 2.3161                 2.4698
 Frc consts  --      1.1843                 1.0153                 1.1183
 IR Inten    --      0.1786                62.6407                62.9933

                     25                     26                     27
                      A                      A                      A
 Frequencies --    937.2825               958.0839               961.8417
 Red. masses --      1.3756                 1.4815                 1.3772
 Frc consts  --      0.7120                 0.8012                 0.7507
 IR Inten    --     38.5902                28.4616                20.4267

                     28                     29                     30
                      A                      A                      A
 Frequencies --    977.3045               987.2447              1028.6780
 Red. masses --      1.9579                 1.4477                 1.5246
 Frc consts  --      1.1018                 0.8313                 0.9506
 IR Inten    --     49.5244                 6.4292                 0.8138

                     31                     32                     33
                      A                      A                      A
 Frequencies --   1041.6513              1043.6828              1056.5004
 Red. masses --      1.1088                 1.1162                 1.6752
 Frc consts  --      0.7088                 0.7164                 1.1017
 IR Inten    --     20.6739                 4.5976                17.8634

                     34                     35                     36
                      A                      A                      A
 Frequencies --   1094.7403              1130.6488              1156.2271
 Red. masses --      2.5269                 1.8819                 1.5668
 Frc consts  --      1.7843                 1.4174                 1.2341
 IR Inten    --      1.7911                15.6244                 8.6287

                     37                     38                     39
                      A                      A                      A
 Frequencies --   1218.4826              1229.7940              1257.2337
 Red. masses --      1.7650                 2.2720                 2.3356
 Frc consts  --      1.5439                 2.0245                 2.1751
 IR Inten    --      0.6440                 2.5326                 3.2997

                     40                     41                     42
                      A                      A                      A
 Frequencies --   1289.6742              1317.3861              1330.3248
 Red. masses --      1.6633                 2.4480                 1.4849
 Frc consts  --      1.6300                 2.5031                 1.5483
 IR Inten    --      3.4687                 3.4413                 4.2494

                     43                     44                     45
                      A                      A                      A
 Frequencies --   1336.0906              1347.5613              1438.1176
 Red. masses --      1.5034                 1.3376                 1.3662
 Frc consts  --      1.5813                 1.4311                 1.6647
 IR Inten    --      2.0030                 0.0687                 3.1171

                     46                     47                     48
                      A                      A                      A
 Frequencies --   1459.3305              1466.4552              1494.0840
 Red. masses --      1.2011                 1.3977                 2.5328
 Frc consts  --      1.5071                 1.7710                 3.3312
 IR Inten    --      3.9889                12.0021                34.6306

                     49                     50                     51
                      A                      A                      A
 Frequencies --   1497.2356              1617.8177              1644.3591
 Red. masses --      1.7322                 5.8020                 5.4786
 Frc consts  --      2.2878                 8.9472                 8.7279
 IR Inten    --     11.9193                19.4868                14.1637

                     52                     53                     54
                      A                      A                      A
 Frequencies --   1693.6488              1714.8239              1723.6293
 Red. masses --      1.1258                 3.9428                 4.5006
 Frc consts  --      1.9027                 6.8312                 7.8779
 IR Inten    --     23.3003                 0.8331                 4.7373

                     55                     56                     57
                      A                      A                      A
 Frequencies --   3005.0960              3147.4412              3165.4642
 Red. masses --      1.0828                 1.0801                 1.0690
 Frc consts  --      5.7612                 6.3042                 6.3110
 IR Inten    --     19.9675                16.9792                 4.6572

                     58                     59                     60
                      A                      A                      A
 Frequencies --   3170.5470              3171.0175              3177.6731
 Red. masses --      1.0873                 1.0638                 1.0898
 Frc consts  --      6.4399                 6.3024                 6.4835
 IR Inten    --     25.4562                 2.9851                21.5211

                     61                     62                     63
                      A                      A                      A
 Frequencies --   3184.5944              3213.7430              3242.5241
 Red. masses --      1.0885                 1.0960                 1.1154
 Frc consts  --      6.5039                 6.6691                 6.9096
 IR Inten    --     13.4821                23.8370                13.5817

                     64                     65                     66
                      A                      A                      A
 Frequencies --   3264.9207              3483.0705              3573.7574
 Red. masses --      1.1142                 1.0492                 1.0926
 Frc consts  --      6.9979                 7.4993                 8.2216
 IR Inten    --      4.3720                 9.3054                 8.0399

 - Thermochemistry -
 -------------------
 Temperature   298.150 Kelvin.  Pressure   1.00000 Atm.
 Atom     1 has atomic number  6 and mass  12.00000

 Molecular mass:   160.10005 amu.
 Principal axes and moments of inertia in atomic units:
                           1         2         3
     Eigenvalues --  1190.078382388.326163046.17328
           X            0.99982   0.01861  -0.00294
           Y           -0.01859   0.99980   0.00678
           Z            0.00306  -0.00673   0.99997
 This molecule is an asymmetric top.
 Rotational symmetry number  1.
 Warning -- assumption of classical behavior for rotation
           may cause significant error
 Rotational temperatures (Kelvin)      0.07278     0.03627     0.02843
 Rotational constants (GHZ):           1.51649     0.75565     0.59246
 Zero-point vibrational energy     528459.1 (Joules/Mol)
                                  126.30477 (Kcal/Mol)
 Warning -- explicit consideration of  17 degrees of freedom as
           vibrations may cause significant error
 Vibrational temperatures:    111.69   123.66   153.40   213.38   274.75
          (Kelvin)            313.46   365.32   415.54   439.90   506.29
                              534.42   592.77   717.37   766.27   806.46
                              846.72   881.44   974.07   986.64  1100.54
                             1167.18  1179.22  1241.03  1261.31  1348.54
                             1378.47  1383.88  1406.12  1420.42  1480.04
                             1498.70  1501.63  1520.07  1575.09  1626.75
                             1663.55  1753.12  1769.40  1808.88  1855.55
                             1895.42  1914.04  1922.34  1938.84  2069.13
                             2099.65  2109.90  2149.65  2154.19  2327.68
                             2365.87  2436.78  2467.25  2479.92  4323.66
                             4528.47  4554.40  4561.71  4562.39  4571.96
                             4581.92  4623.86  4665.27  4697.49  5011.36
                             5141.84

 Zero-point correction=                           0.201279 (Hartree/Particle)
 Thermal correction to Energy=                    0.212519
 Thermal correction to Enthalpy=                  0.213463
 Thermal correction to Gibbs Free Energy=         0.164565
 Sum of electronic and zero-point Energies=           -497.570925
 Sum of electronic and thermal Energies=              -497.559685
 Sum of electronic and thermal Enthalpies=            -497.558741
 Sum of electronic and thermal Free Energies=         -497.607639

                     E (Thermal)             CV                S
                      KCal/Mol        Cal/Mol-Kelvin    Cal/Mol-Kelvin
 Total                  133.358             43.495            102.914
 Electronic               0.000              0.000              0.000
 Translational            0.889              2.981             41.121
 Rotational               0.889              2.981             30.538
 Vibrational            131.580             37.533             31.255
 Vibration     1          0.599              1.964              3.950
 Vibration     2          0.601              1.959              3.750
 Vibration     3          0.605              1.944              3.330
 Vibration     4          0.618              1.905              2.694
 Vibration     5          0.634              1.852              2.218
 Vibration     6          0.646              1.814              1.977
 Vibration     7          0.665              1.756              1.703
 Vibration     8          0.685              1.695              1.481
 Vibration     9          0.696              1.663              1.385
 Vibration    10          0.728              1.571              1.158
 Vibration    11          0.743              1.531              1.074
 Vibration    12          0.776              1.444              0.920
 Vibration    13          0.854              1.253              0.662
 Vibration    14          0.888              1.178              0.581
 Vibration    15          0.916              1.117              0.523
 Vibration    16          0.946              1.056              0.470
 Vibration    17          0.972              1.005              0.428

 Optimization completed.
    -- Stationary point found.
 Normal termination of Gaussian 16 at Wed Dec  9 16:52:04 2020.

 ----------------------------------------------------------------------
 # B3LYP/6-311++G(d,p) empiricaldispersion=gd3bj scf=xqc pop=npa geom=c
 heck
 ----------------------------------------------------------------------

 ---------------------------------------
 CID_130062185_JID_2053_Energie_neutraal
 ---------------------------------------
 Structure from the checkpoint file:  "JID_2053.chk"
 Charge =  0 Multiplicity = 1

 SCF Done:  E(RB3LYP) =  -497.913270479     A.U. after   15 cycles
 Normal termination of Gaussian 16 at Wed Dec  9 16:53:59 2020.

 ----------------------------------------------------------------------
 # B3LYP/6-311++G(d,p) empiricaldispersion=gd3bj scf=xqc pop=npa geom=c
 heck
 ----------------------------------------------------------------------

 -------------------------------------
 CID_130062185_JID_2053_Energie_kation
 -------------------------------------
 Structure from the checkpoint file:  "JID_2053.chk"
 Charge =  1 Multiplicity = 2

 SCF Done:  E(UB3LYP) =  -497.602492462     A.U. after   29 cycles
 Normal termination of Gaussian 16 at Wed Dec  9 16:58:41 2020.
 Gaussian 16:  ES64L-G16RevA.03 25-Dec-2016

 ----------------------------------------------------------------------
 # B3LYP/6-311++G(d,p) empiricaldispersion=gd3bj scf=xqc pop=npa geom=c
 heck
 ----------------------------------------------------------------------

 ------------------------------------
 CID_130062185_JID_2053_Energie_anion
 ------------------------------------
 Structure from the checkpoint file:  "JID_2053.chk"
 Charge = -1 Multiplicity = 2

                         Standard orientation:
 ---------------------------------------------------------------------
 Center     Atomic      Atomic             Coordinates (Angstroms)
 Number     Number       Type             X           Y           Z
 ---------------------------------------------------------------------
      1          6           0        1.144744    2.264039   -0.485395
      2          6           0       -0.032311    2.042924    0.109398
      3          6           0       -0.838609    0.800207    0.068049
      4          6           0       -0.354744   -0.523589    0.191385
      5          6           0       -1.289355   -1.551845    0.030998
      6          6           0       -2.630018   -1.274126   -0.209153
      7          6           0       -3.012891    0.064534   -0.242814
      8          7           0       -2.150539    1.069120   -0.100507
      9          6           0        1.080139   -0.940601    0.528870
     10          6           0        1.922382   -1.108662   -0.730624
     11          6           0        3.170608   -0.673297   -0.893395
     12          7           0        1.650170   -0.149731    1.615972
     13          1           0        1.667445    1.496551   -1.045403
     14          1           0        1.607478    3.246293   -0.445227
     15          1           0       -0.549122    2.867247    0.596132
     16          1           0       -0.958212   -2.584105    0.119786
     17          1           0       -3.359613   -2.068665   -0.330112
     18          1           0       -4.055965    0.343999   -0.381470
     19          1           0        0.977774   -1.957382    0.936788
     20          1           0        1.441292   -1.674631   -1.528955
     21          1           0        3.726494   -0.862059   -1.806910
     22          1           0        3.679524   -0.102306   -0.120613
     23          1           0        2.550078   -0.544948    1.880999
     24          1           0        1.815732    0.806783    1.312810
 ---------------------------------------------------------------------

 SCF Done:  E(UB3LYP) =  -497.907745148     A.U. after   33 cycles
 SCF Done:  E(UB3LYP) =  -497.907745148     a.u. after    1 cycles

 The electronic state is 2-A.
 Alpha  occ. eigenvalues --  -14.16614 -14.15648 -10.08951 -10.06714 -10.06236
 Alpha  occ. eigenvalues --  -10.05985 -10.05186 -10.04987 -10.04564 -10.03274
 Alpha  occ. eigenvalues --  -10.02927 -10.01766  -0.80097  -0.76965  -0.67121
 Alpha  occ. eigenvalues --   -0.65643  -0.64905  -0.60579  -0.55172  -0.49561
 Alpha  occ. eigenvalues --   -0.48374  -0.44108  -0.42409  -0.38238  -0.36676
 Alpha  occ. eigenvalues --   -0.35852  -0.34754  -0.33170  -0.32185  -0.29731
 Alpha  occ. eigenvalues --   -0.27900  -0.27487  -0.26566  -0.25530  -0.24701
 Alpha  occ. eigenvalues --   -0.23459  -0.20930  -0.16377  -0.15195  -0.14475
 Alpha  occ. eigenvalues --   -0.12503  -0.11646  -0.10543   0.05225
 Alpha virt. eigenvalues --    0.07675   0.08310   0.09114   0.09404   0.09850
 Alpha virt. eigenvalues --    0.10360   0.11031   0.11849   0.12402   0.12795
 Alpha virt. eigenvalues --    0.13126   0.14133   0.14513   0.15784   0.15902

  Beta  occ. eigenvalues --  -14.16583 -14.15422 -10.08941 -10.06774 -10.06227
  Beta  occ. eigenvalues --  -10.05749 -10.05203 -10.04948 -10.04486 -10.03050
  Beta  occ. eigenvalues --  -10.02863 -10.01576  -0.79711  -0.76873  -0.66871
  Beta  occ. eigenvalues --   -0.65366  -0.64678  -0.60273  -0.55027  -0.49035
  Beta  occ. eigenvalues --   -0.48281  -0.43991  -0.42158  -0.38145  -0.36555
  Beta  occ. eigenvalues --   -0.35757  -0.34629  -0.33077  -0.32010  -0.29564
  Beta  occ. eigenvalues --   -0.27722  -0.27162  -0.26466  -0.25294  -0.24315
  Beta  occ. eigenvalues --   -0.23328  -0.20739  -0.15229  -0.15062  -0.13676
  Beta  occ. eigenvalues --   -0.12404  -0.11367  -0.09502
  Beta virt. eigenvalues --    0.07780   0.08491   0.09290   0.09444   0.09962
  Beta virt. eigenvalues --    0.10372   0.10563   0.11093   0.11864   0.12532
  Beta virt. eigenvalues --    0.12912   0.13247   0.14239   0.14668   0.16136

 Mulliken charges and spin densities:
               1          2
     1  C   -0.358201  -0.095757
     2  C    0.312087  -0.098724
     3  C   -1.576826   0.189149
     4  C    1.201698   0.283209
     5  C    0.112413  -0.481456
     6  C   -0.245521   0.113622
     7  C   -0.020600  -0.038825
     8  N    0.007631   0.107322
     9  C    0.299743  -0.497789
    10  C   -1.305008   1.141077
    11  C    0.662721  -1.193671
    12  N   -0.419078  -0.016215
    13  H    0.280143  -0.112824
    14  H   -0.061694   0.156745
    15  H    0.117749   0.054797
    16  H    0.090829   0.030204
    17  H    0.046299   0.060298
    18  H    0.130354   0.014986
    19  H   -0.067778   0.270022
    20  H    0.020357   0.146357
    21  H   -0.081871   0.198901
    22  H   -0.300269   0.418229
    23  H   -0.051658   0.281986
    24  H    0.206480   0.068355
 Sum of Mulliken charges =  -1.00000   1.00000

 Dipole moment (field-independent basis, Debye):
    X=             -1.6732    Y=             -2.2366    Z=             -1.4671  Tot=              3.1550
 Quadrupole moment (field-independent basis, Debye-Ang):
   XX=           -114.5520   YY=            -96.4360   ZZ=            -93.3715
   XY=              2.8634   XZ=             -3.1744   YZ=              1.1030

 Summary of Natural Population Analysis:

                                       Natural Population
                Natural  -----------------------------------------------
    Atom  No    Charge         Core      Valence    Rydberg      Total
 -----------------------------------------------------------------------
      C    1   -0.17148      0.99957     2.16431    0.00760     3.17148
      C    2   -0.08942      0.99956     2.07594    0.01392     3.08942
      C    3    0.12442      0.99947     1.86156    0.01455     2.87558
      C    4   -0.02561      0.99945     2.01514    0.01102     3.02561
      C    5   -0.07552      0.99952     2.06800    0.00799     3.07552
      C    6   -0.09499      0.99956     2.08545    0.00998     3.09499
      C    7    0.00776      0.99960     1.97722    0.01543     2.99224
      N    8   -0.20718      0.99969     2.69644    0.01105     3.70718
      C    9   -0.03600      0.99954     2.02160    0.01486     3.03600
      C   10   -0.08147      0.99954     2.07169    0.01024     3.08147
      C   11   -0.20559      0.99956     2.19740    0.00864     3.20559
      N   12   -0.41983      0.99977     2.90956    0.01051     3.91983
      H   13    0.09295      0.00000     0.40563    0.00142     0.40705
      H   14    0.08684      0.00000     0.41229    0.00087     0.41316
      H   15    0.09572      0.00000     0.40272    0.00155     0.40428
      H   16    0.09079      0.00000     0.40779    0.00143     0.40921
      H   17    0.09238      0.00000     0.40650    0.00113     0.40762
      H   18    0.08076      0.00000     0.41808    0.00116     0.41924
      H   19    0.09745      0.00000     0.40041    0.00215     0.40255
      H   20    0.09362      0.00000     0.40531    0.00107     0.40638
      H   21    0.09224      0.00000     0.40682    0.00094     0.40776
      H   22    0.09357      0.00000     0.40437    0.00206     0.40643
      H   23    0.17145      0.00000     0.32682    0.00173     0.32855
      H   24    0.18717      0.00000     0.31065    0.00218     0.31283
 =======================================================================
   * Total *    0.00000     11.99481    30.85170    0.15349    43.00000

 Normal termination of Gaussian 16 at Wed Dec  9 17:04:11 2020.
