 Gaussian 16, Revision A.03,

 -----------------------------------------------------------
 # opt freq B3LYP/6-31G(d) empiricaldispersion=gd3bj scf=xqc
 -----------------------------------------------------------

 ------------------------------
 CID_14398684_JID_5447_neutraal
 ------------------------------
 Symbolic Z-matrix:
 Charge =  0 Multiplicity = 1

 SCF Done:  E(RB3LYP) =  -634.426001440     A.U. after   14 cycles
 SCF Done:  E(RB3LYP) =  -634.428324446     A.U. after   12 cycles
 SCF Done:  E(RB3LYP) =  -634.429185709     A.U. after   12 cycles
 SCF Done:  E(RB3LYP) =  -634.429449904     A.U. after   12 cycles
 SCF Done:  E(RB3LYP) =  -634.429915132     A.U. after   11 cycles
 SCF Done:  E(RB3LYP) =  -634.430006861     A.U. after   11 cycles
 SCF Done:  E(RB3LYP) =  -634.430040508     A.U. after   11 cycles
 SCF Done:  E(RB3LYP) =  -634.430068643     A.U. after   10 cycles
 SCF Done:  E(RB3LYP) =  -634.430087365     A.U. after   11 cycles
 SCF Done:  E(RB3LYP) =  -634.430096147     A.U. after   10 cycles
 SCF Done:  E(RB3LYP) =  -634.430102580     A.U. after   10 cycles
 SCF Done:  E(RB3LYP) =  -634.430105410     A.U. after    9 cycles
 SCF Done:  E(RB3LYP) =  -634.430105910     A.U. after    8 cycles
 SCF Done:  E(RB3LYP) =  -634.430105979     A.U. after    7 cycles
 SCF Done:  E(RB3LYP) =  -634.430105988     A.U. after    7 cycles
 Optimization completed.
    -- Stationary point found.
 Normal termination of Gaussian 16 at Thu Dec 10 16:13:31 2020.

 --------------------------------------------------------------------
 #N Geom=AllCheck Guess=TCheck SCRF=Check GenChk RB3LYP/6-31G(d) Freq
 --------------------------------------------------------------------

 Structure from the checkpoint file:  "JID_5447.chk"
 ------------------------------
 CID_14398684_JID_5447_neutraal
 ------------------------------
 Charge =  0 Multiplicity = 1

 SCF Done:  E(RB3LYP) =  -634.430105988     A.U. after    1 cycles

  Exact polarizability: 151.435  -4.311 149.123 -26.148   1.568  96.398
 Approx polarizability: 218.905  -8.285 251.032 -55.388  -0.953 158.249

                      1                      2                      3
                      A                      A                      A
 Frequencies --     31.1760                37.6618                85.2110
 Red. masses --      3.8780                 4.4808                 4.0458
 Frc consts  --      0.0022                 0.0037                 0.0173
 IR Inten    --      0.3835                 0.1862                 0.2662

                      4                      5                      6
                      A                      A                      A
 Frequencies --    108.3191               124.1422               226.6600
 Red. masses --      4.7271                 3.7134                 4.9130
 Frc consts  --      0.0327                 0.0337                 0.1487
 IR Inten    --      0.7046                 0.4975                 4.6820

                      7                      8                      9
                      A                      A                      A
 Frequencies --    239.0839               246.0894               265.6714
 Red. masses --      3.6442                 1.7758                 2.2937
 Frc consts  --      0.1227                 0.0634                 0.0954
 IR Inten    --      0.6431                 0.1856                 0.5149

                     10                     11                     12
                      A                      A                      A
 Frequencies --    280.0054               331.8808               399.6911
 Red. masses --      2.1112                 4.8335                 3.9809
 Frc consts  --      0.0975                 0.3137                 0.3747
 IR Inten    --      0.8249                 1.7601                 9.9538

                     13                     14                     15
                      A                      A                      A
 Frequencies --    410.6304               432.7745               482.4073
 Red. masses --      1.9988                 1.3515                 3.8211
 Frc consts  --      0.1986                 0.1491                 0.5239
 IR Inten    --     43.2241               122.7762                 2.1130

                     16                     17                     18
                      A                      A                      A
 Frequencies --    528.0933               584.2098               609.8476
 Red. masses --      4.6248                 3.4108                 4.1050
 Frc consts  --      0.7599                 0.6859                 0.8995
 IR Inten    --     13.5916                22.0377                 2.9565

                     19                     20                     21
                      A                      A                      A
 Frequencies --    626.9546               636.4251               655.0473
 Red. masses --      3.7809                 6.2488                 3.8504
 Frc consts  --      0.8756                 1.4912                 0.9734
 IR Inten    --      4.7010                 0.7660                21.9124

                     22                     23                     24
                      A                      A                      A
 Frequencies --    691.0547               707.5892               718.4863
 Red. masses --      1.3210                 3.4516                 1.7017
 Frc consts  --      0.3717                 1.0182                 0.5176
 IR Inten    --      2.8238                 5.7000                47.3920

                     25                     26                     27
                      A                      A                      A
 Frequencies --    739.9713               770.1142               814.2658
 Red. masses --      1.1389                 2.1486                 1.2455
 Frc consts  --      0.3674                 0.7508                 0.4865
 IR Inten    --     58.4595                12.1222                 0.7508

                     28                     29                     30
                      A                      A                      A
 Frequencies --    840.3067               858.1359               867.3378
 Red. masses --      2.7394                 1.2529                 1.2348
 Frc consts  --      1.1397                 0.5436                 0.5473
 IR Inten    --      5.0658                 0.3366                 0.5785

                     31                     32                     33
                      A                      A                      A
 Frequencies --    896.7177               901.8784               933.4256
 Red. masses --      5.2932                 2.0127                 1.6315
 Frc consts  --      2.5077                 0.9646                 0.8375
 IR Inten    --      0.7285                10.5210                 2.7559

                     34                     35                     36
                      A                      A                      A
 Frequencies --    965.1111               975.5848               993.1957
 Red. masses --      1.3536                 2.2096                 1.2456
 Frc consts  --      0.7428                 1.2390                 0.7239
 IR Inten    --      0.0135                 9.0217                 0.2729

                     37                     38                     39
                      A                      A                      A
 Frequencies --   1022.8534              1029.6564              1060.3317
 Red. masses --      5.7601                 1.6187                 2.4361
 Frc consts  --      3.5506                 1.0111                 1.6137
 IR Inten    --      0.9059                 3.8912                10.9484

                     40                     41                     42
                      A                      A                      A
 Frequencies --   1075.2570              1092.7156              1094.1310
 Red. masses --      2.7101                 2.2730                 1.4501
 Frc consts  --      1.8461                 1.5991                 1.0228
 IR Inten    --     44.9603                16.6500                 8.2359

                     43                     44                     45
                      A                      A                      A
 Frequencies --   1114.9492              1121.4717              1139.7677
 Red. masses --      1.4318                 1.6242                 1.7790
 Frc consts  --      1.0487                 1.2035                 1.3616
 IR Inten    --     29.2478                13.1883                 9.5550

                     46                     47                     48
                      A                      A                      A
 Frequencies --   1146.9857              1194.6882              1221.4895
 Red. masses --      1.9645                 1.0966                 1.1399
 Frc consts  --      1.5227                 0.9221                 1.0021
 IR Inten    --     12.3092                 0.0295                 0.2450

                     49                     50                     51
                      A                      A                      A
 Frequencies --   1230.8706              1275.1718              1282.5022
 Red. masses --      2.4228                 1.6001                 1.6609
 Frc consts  --      2.1627                 1.5329                 1.6096
 IR Inten    --     14.7035                10.2094                 9.5579

                     52                     53                     54
                      A                      A                      A
 Frequencies --   1292.6294              1320.5311              1350.6389
 Red. masses --      1.7102                 1.8955                 1.7478
 Frc consts  --      1.6836                 1.9475                 1.8786
 IR Inten    --     12.0393                25.8816                17.4696

                     55                     56                     57
                      A                      A                      A
 Frequencies --   1354.7746              1373.3365              1389.0431
 Red. masses --      2.8301                 1.8980                 1.6205
 Frc consts  --      3.0605                 2.1092                 1.8422
 IR Inten    --     20.6267                 0.9522                22.4808

                     58                     59                     60
                      A                      A                      A
 Frequencies --   1437.2240              1444.2890              1451.1030
 Red. masses --      1.4446                 2.8489                 1.3194
 Frc consts  --      1.7581                 3.5013                 1.6369
 IR Inten    --      7.3208                 0.5420                36.4726

                     61                     62                     63
                      A                      A                      A
 Frequencies --   1462.5772              1503.8474              1521.5663
 Red. masses --      1.7477                 2.1394                 1.0882
 Frc consts  --      2.2027                 2.8506                 1.4844
 IR Inten    --     36.2866                 9.6538                 9.0735

                     64                     65                     66
                      A                      A                      A
 Frequencies --   1532.9420              1540.4478              1550.3591
 Red. masses --      1.6444                 1.3764                 2.1948
 Frc consts  --      2.2767                 1.9243                 3.1082
 IR Inten    --     14.4116                14.2073                 3.3983

                     67                     68                     69
                      A                      A                      A
 Frequencies --   1574.5573              1648.4432              1668.8509
 Red. masses --      3.9908                 5.4322                 5.4908
 Frc consts  --      5.8294                 8.6971                 9.0100
 IR Inten    --      1.4662                 0.6000                 0.3597

                     70                     71                     72
                      A                      A                      A
 Frequencies --   3066.7016              3069.8303              3077.5366
 Red. masses --      1.0482                 1.0743                 1.0837
 Frc consts  --      5.8080                 5.9652                 6.0471
 IR Inten    --      5.9945                13.8037                40.5710

                     73                     74                     75
                      A                      A                      A
 Frequencies --   3136.1677              3148.6727              3174.2098
 Red. masses --      1.1020                 1.1028                 1.0868
 Frc consts  --      6.3860                 6.4419                 6.4515
 IR Inten    --     20.9186                20.6393                 8.6572

                     76                     77                     78
                      A                      A                      A
 Frequencies --   3185.7255              3194.9723              3204.1342
 Red. masses --      1.0864                 1.0902                 1.0937
 Frc consts  --      6.4962                 6.5569                 6.6157
 IR Inten    --      1.0163                16.8392                35.9165

                     79                     80                     81
                      A                      A                      A
 Frequencies --   3212.5701              3251.0530              3263.0560
 Red. masses --      1.0978                 1.0885                 1.0941
 Frc consts  --      6.6751                 6.7783                 6.8634
 IR Inten    --     14.0609                 4.8030                 5.9036

                     82                     83                     84
                      A                      A                      A
 Frequencies --   3277.2663              3302.3996              3684.1515
 Red. masses --      1.1028                 1.0997                 1.0655
 Frc consts  --      6.9784                 7.0661                 8.5209
 IR Inten    --      2.9005                 0.8241                49.9161

 - Thermochemistry -
 -------------------
 Temperature   298.150 Kelvin.  Pressure   1.00000 Atm.
 Atom     1 has atomic number  6 and mass  12.00000

 Molecular mass:   201.11536 amu.
 Principal axes and moments of inertia in atomic units:
                           1         2         3
     Eigenvalues --  1862.981913664.345534227.02814
           X            0.99993   0.00154  -0.01134
           Y           -0.00092   0.99848   0.05511
           Z            0.01141  -0.05509   0.99842
 This molecule is an asymmetric top.
 Rotational symmetry number  1.
 Warning -- assumption of classical behavior for rotation
           may cause significant error
 Rotational temperatures (Kelvin)      0.04649     0.02364     0.02049
 Rotational constants (GHZ):           0.96874     0.49251     0.42695
 Zero-point vibrational energy     668614.4 (Joules/Mol)
                                  159.80269 (Kcal/Mol)
 Warning -- explicit consideration of  18 degrees of freedom as
           vibrations may cause significant error
 Vibrational temperatures:     44.86    54.19   122.60   155.85   178.61
          (Kelvin)            326.11   343.99   354.07   382.24   402.87
                              477.50   575.07   590.81   622.67   694.08
                              759.81   840.55   877.43   902.05   915.67
                              942.47   994.27  1018.06  1033.74  1064.65
                             1108.02  1171.55  1209.01  1234.67  1247.91
                             1290.18  1297.60  1342.99  1388.58  1403.65
                             1428.99  1471.66  1481.45  1525.58  1547.06
                             1572.17  1574.21  1604.16  1613.55  1639.87
                             1650.26  1718.89  1757.45  1770.95  1834.69
                             1845.23  1859.81  1899.95  1943.27  1949.22
                             1975.92  1998.52  2067.84  2078.01  2087.81
                             2104.32  2163.70  2189.19  2205.56  2216.36
                             2230.62  2265.44  2371.74  2401.10  4412.30
                             4416.80  4427.89  4512.25  4530.24  4566.98
                             4583.55  4596.85  4610.03  4622.17  4677.54
                             4694.81  4715.26  4751.42  5300.67

 Zero-point correction=                           0.254662 (Hartree/Particle)
 Thermal correction to Energy=                    0.267784
 Thermal correction to Enthalpy=                  0.268728
 Thermal correction to Gibbs Free Energy=         0.214251
 Sum of electronic and zero-point Energies=           -634.175444
 Sum of electronic and thermal Energies=              -634.162322
 Sum of electronic and thermal Enthalpies=            -634.161378
 Sum of electronic and thermal Free Energies=         -634.215855

                     E (Thermal)             CV                S
                      KCal/Mol        Cal/Mol-Kelvin    Cal/Mol-Kelvin
 Total                  168.037             52.195            114.656
 Electronic               0.000              0.000              0.000
 Translational            0.889              2.981             41.801
 Rotational               0.889              2.981             31.734
 Vibrational            166.260             46.233             41.121
 Vibration     1          0.594              1.983              5.753
 Vibration     2          0.594              1.982              5.378
 Vibration     3          0.601              1.959              3.767
 Vibration     4          0.606              1.943              3.299
 Vibration     5          0.610              1.929              3.035
 Vibration     6          0.650              1.800              1.905
 Vibration     7          0.657              1.781              1.810
 Vibration     8          0.661              1.769              1.758
 Vibration     9          0.671              1.736              1.624
 Vibration    10          0.680              1.711              1.534
 Vibration    11          0.714              1.612              1.251
 Vibration    12          0.766              1.471              0.964
 Vibration    13          0.775              1.447              0.924
 Vibration    14          0.794              1.399              0.850
 Vibration    15          0.839              1.289              0.704
 Vibration    16          0.883              1.188              0.591
 Vibration    17          0.941              1.066              0.478
 Vibration    18          0.969              1.011              0.433

 Optimization completed.
    -- Stationary point found.
 Normal termination of Gaussian 16 at Thu Dec 10 16:24:09 2020.

 ----------------------------------------------------------------------
 # B3LYP/6-311++G(d,p) empiricaldispersion=gd3bj scf=xqc pop=npa geom=c
 heck
 ----------------------------------------------------------------------

 --------------------------------------
 CID_14398684_JID_5447_Energie_neutraal
 --------------------------------------
 Structure from the checkpoint file:  "JID_5447.chk"
 Charge =  0 Multiplicity = 1

 SCF Done:  E(RB3LYP) =  -634.608463888     A.U. after   14 cycles
 Normal termination of Gaussian 16 at Thu Dec 10 16:30:28 2020.

 ----------------------------------------------------------------------
 # B3LYP/6-311++G(d,p) empiricaldispersion=gd3bj scf=xqc pop=npa geom=c
 heck
 ----------------------------------------------------------------------

 ------------------------------------
 CID_14398684_JID_5447_Energie_kation
 ------------------------------------
 Structure from the checkpoint file:  "JID_5447.chk"
 Charge =  1 Multiplicity = 2

 SCF Done:  E(UB3LYP) =  -634.320259084     A.U. after   24 cycles
 Normal termination of Gaussian 16 at Thu Dec 10 16:43:16 2020.
 Gaussian 16:  ES64L-G16RevA.03 25-Dec-2016

 ----------------------------------------------------------------------
 # B3LYP/6-311++G(d,p) empiricaldispersion=gd3bj scf=xqc pop=npa geom=c
 heck
 ----------------------------------------------------------------------

 -----------------------------------
 CID_14398684_JID_5447_Energie_anion
 -----------------------------------
 Structure from the checkpoint file:  "JID_5447.chk"
 Charge = -1 Multiplicity = 2

                         Standard orientation:
 ---------------------------------------------------------------------
 Center     Atomic      Atomic             Coordinates (Angstroms)
 Number     Number       Type             X           Y           Z
 ---------------------------------------------------------------------
      1          6           0       -0.449265   -1.902322   -1.703366
      2          6           0       -0.985683   -1.494649   -0.334567
      3          6           0        0.112903   -1.444182    0.771125
      4          6           0        1.218414   -0.451291    0.464933
      5          6           0        2.389378   -0.879321   -0.169315
      6          6           0        3.397247    0.026906   -0.500808
      7          6           0        3.245247    1.379064   -0.194015
      8          6           0        2.083443    1.815114    0.445608
      9          6           0        1.078112    0.907024    0.772552
     10          8           0       -0.486593   -1.240996    2.041254
     11          7           0       -1.722227   -0.232801   -0.388284
     12          6           0       -2.727008    0.105779    0.502025
     13          6           0       -3.063897    1.427814    0.293310
     14          6           0       -2.231878    1.914376   -0.753205
     15          6           0       -1.414272    0.875519   -1.146868
     16          1           0        0.324852   -1.216810   -2.057912
     17          1           0       -1.258672   -1.929778   -2.438589
     18          1           0       -0.003588   -2.900325   -1.641191
     19          1           0       -1.705695   -2.247832    0.003072
     20          1           0        0.549204   -2.448148    0.819507
     21          1           0        2.515511   -1.934565   -0.400703
     22          1           0        4.301798   -0.324888   -0.989126
     23          1           0        4.028786    2.088068   -0.446113
     24          1           0        1.957528    2.866178    0.689662
     25          1           0        0.179125    1.265504    1.264284
     26          1           0       -1.006741   -0.420263    1.989217
     27          1           0       -3.148100   -0.643275    1.157183
     28          1           0       -3.839707    1.971980    0.814575
     29          1           0       -2.234827    2.909239   -1.177095
     30          1           0       -0.627594    0.843503   -1.883275
 ---------------------------------------------------------------------

 SCF Done:  E(UB3LYP) =  -634.595045229     A.U. after   33 cycles
 SCF Done:  E(UB3LYP) =  -634.595045229     a.u. after    1 cycles

 The electronic state is 2-A.
 Alpha  occ. eigenvalues --  -19.03133 -14.27137 -10.13519 -10.12755 -10.10129
 Alpha  occ. eigenvalues --  -10.09957 -10.08396 -10.07933 -10.07855 -10.07757
 Alpha  occ. eigenvalues --  -10.07710 -10.07662 -10.07158 -10.07121 -10.06741
 Alpha  occ. eigenvalues --   -0.93982  -0.89445  -0.76349  -0.73127  -0.67262
 Alpha  occ. eigenvalues --   -0.65166  -0.64445  -0.63514  -0.58703  -0.53947
 Alpha  occ. eigenvalues --   -0.51219  -0.49525  -0.48532  -0.46158  -0.43917
 Alpha  occ. eigenvalues --   -0.43478  -0.40109  -0.37770  -0.36933  -0.35162
 Alpha  occ. eigenvalues --   -0.34573  -0.33808  -0.32935  -0.32324  -0.30938
 Alpha  occ. eigenvalues --   -0.30604  -0.30421  -0.29152  -0.28396  -0.27620
 Alpha  occ. eigenvalues --   -0.27214  -0.25472  -0.24897  -0.24132  -0.19265
 Alpha  occ. eigenvalues --   -0.16142  -0.15916  -0.14910  -0.12834   0.04350
 Alpha virt. eigenvalues --    0.06374   0.06571   0.07697   0.07870   0.08152
 Alpha virt. eigenvalues --    0.08219   0.08708   0.09459   0.09813   0.10220
 Alpha virt. eigenvalues --    0.10750   0.11181   0.11612   0.12200   0.13429

  Beta  occ. eigenvalues --  -19.03129 -14.27134 -10.13508 -10.12741 -10.10122
  Beta  occ. eigenvalues --  -10.09948 -10.08382 -10.07925 -10.07845 -10.07735
  Beta  occ. eigenvalues --  -10.07688 -10.07641 -10.07154 -10.07080 -10.06737
  Beta  occ. eigenvalues --   -0.93970  -0.89433  -0.76310  -0.73099  -0.67223
  Beta  occ. eigenvalues --   -0.65123  -0.64405  -0.63492  -0.58647  -0.53903
  Beta  occ. eigenvalues --   -0.51173  -0.49477  -0.48512  -0.46128  -0.43872
  Beta  occ. eigenvalues --   -0.43447  -0.40056  -0.37735  -0.36886  -0.35120
  Beta  occ. eigenvalues --   -0.34541  -0.33776  -0.32899  -0.32288  -0.30914
  Beta  occ. eigenvalues --   -0.30579  -0.30389  -0.29130  -0.28350  -0.27567
  Beta  occ. eigenvalues --   -0.27171  -0.25441  -0.24860  -0.24092  -0.19248
  Beta  occ. eigenvalues --   -0.16096  -0.15856  -0.14873  -0.12813
  Beta virt. eigenvalues --    0.06404   0.07221   0.07412   0.07954   0.08087
  Beta virt. eigenvalues --    0.08330   0.08810   0.09374   0.09799   0.10086
  Beta virt. eigenvalues --    0.10572   0.11141   0.11489   0.12095   0.12705

 Mulliken charges and spin densities:
               1          2
     1  C    0.960995  -1.701727
     2  C   -0.728320   0.872915
     3  C    1.986007  -2.627654
     4  C   -0.221326   0.843679
     5  C   -1.117094   0.562290
     6  C    0.604458  -0.853978
     7  C    1.261408  -1.719913
     8  C   -0.563092   0.174149
     9  C   -0.564353   1.032871
    10  O   -0.158197   0.021564
    11  N    0.148995   0.066084
    12  C   -0.045637  -0.069250
    13  C    0.132532  -0.469770
    14  C   -0.139995  -0.135098
    15  C    0.128863  -0.360151
    16  H    0.092119   0.064032
    17  H   -0.082292   0.250648
    18  H   -0.839422   1.020935
    19  H   -0.287453   0.551071
    20  H   -0.173218   0.431187
    21  H   -0.311494   0.472327
    22  H   -0.860828   1.057179
    23  H   -0.335463   0.489823
    24  H   -0.240473   0.418125
    25  H    0.135444  -0.013526
    26  H    0.223095   0.028110
    27  H   -0.018812   0.188102
    28  H   -0.053743   0.201086
    29  H   -0.119062   0.272832
    30  H    0.186358  -0.067942
 Sum of Mulliken charges =  -1.00000   1.00000

 Dipole moment (field-independent basis, Debye):
    X=             -4.4755    Y=              4.1696    Z=              1.8742  Tot=              6.3975
 Quadrupole moment (field-independent basis, Debye-Ang):
   XX=           -158.0344   YY=           -147.1012   ZZ=           -124.5389
   XY=             -1.2900   XZ=              2.9950   YZ=             -3.5041

 Summary of Natural Population Analysis:

                                       Natural Population
                Natural  -----------------------------------------------
    Atom  No    Charge         Core      Valence    Rydberg      Total
 -----------------------------------------------------------------------
      C    1   -0.29241      0.99964     2.28667    0.00610     3.29241
      C    2   -0.00569      0.99956     1.99156    0.01457     3.00569
      C    3    0.05826      0.99948     1.92607    0.01619     2.94174
      C    4   -0.03049      0.99948     2.01902    0.01199     3.03049
      C    5   -0.09671      0.99951     2.08688    0.01032     3.09671
      C    6   -0.09891      0.99956     2.08869    0.01067     3.09891
      C    7   -0.10004      0.99956     2.09032    0.01016     3.10004
      C    8   -0.10071      0.99956     2.09058    0.01056     3.10071
      C    9   -0.09744      0.99950     2.08787    0.01007     3.09744
      O   10   -0.36631      0.99990     3.36052    0.00589     4.36631
      N   11   -0.20963      0.99965     2.69757    0.01241     3.70963
      C   12   -0.04099      0.99956     2.02831    0.01312     3.04099
      C   13   -0.14619      0.99956     2.13750    0.00913     3.14619
      C   14   -0.15010      0.99956     2.14150    0.00904     3.15010
      C   15   -0.01137      0.99955     1.99989    0.01194     3.01137
      H   16    0.10386      0.00000     0.39443    0.00171     0.39614
      H   17    0.10560      0.00000     0.39332    0.00108     0.39440
      H   18    0.11128      0.00000     0.38586    0.00287     0.38872
      H   19    0.10587      0.00000     0.39161    0.00252     0.39413
      H   20    0.09804      0.00000     0.39968    0.00229     0.40196
      H   21    0.10507      0.00000     0.39297    0.00196     0.39493
      H   22    0.10377      0.00000     0.39426    0.00196     0.39623
      H   23    0.10165      0.00000     0.39698    0.00137     0.39835
      H   24    0.10012      0.00000     0.39891    0.00097     0.39988
      H   25    0.10136      0.00000     0.39648    0.00216     0.39864
      H   26    0.23112      0.00000     0.26562    0.00326     0.26888
      H   27    0.10611      0.00000     0.39288    0.00101     0.39389
      H   28    0.10365      0.00000     0.39566    0.00069     0.39635
      H   29    0.10401      0.00000     0.39524    0.00075     0.39599
      H   30    0.10725      0.00000     0.39152    0.00122     0.39275
 =======================================================================
   * Total *   -0.00000     14.99362    38.81841    0.18797    54.00000

 Normal termination of Gaussian 16 at Thu Dec 10 17:03:28 2020.
