 Gaussian 16, Revision A.03,

 -----------------------------------------------------------
 # opt freq B3LYP/6-31G(d) empiricaldispersion=gd3bj scf=xqc
 -----------------------------------------------------------

 ------------------------------
 CID_53766058_JID_6830_neutraal
 ------------------------------
 Symbolic Z-matrix:
 Charge =  0 Multiplicity = 1

 SCF Done:  E(RB3LYP) =  -838.134110086     A.U. after   17 cycles
 SCF Done:  E(RB3LYP) =  -838.146513950     A.U. after   14 cycles
 SCF Done:  E(RB3LYP) =  -838.149146732     A.U. after   16 cycles
 SCF Done:  E(RB3LYP) =  -838.151345202     A.U. after   16 cycles
 SCF Done:  E(RB3LYP) =  -838.151950001     A.U. after   14 cycles
 SCF Done:  E(RB3LYP) =  -838.151574545     A.U. after   16 cycles
 SCF Done:  E(RB3LYP) =  -838.151541214     A.U. after   14 cycles
 SCF Done:  E(RB3LYP) =  -838.151372969     A.U. after   14 cycles
 SCF Done:  E(RB3LYP) =  -838.152044537     A.U. after   11 cycles
 SCF Done:  E(RB3LYP) =  -838.152336427     A.U. after   13 cycles
 SCF Done:  E(RB3LYP) =  -838.153168507     A.U. after   11 cycles
 SCF Done:  E(RB3LYP) =  -838.153168493     A.U. after    9 cycles
 SCF Done:  E(RB3LYP) =  -838.153168518     A.U. after   10 cycles
 SCF Done:  E(RB3LYP) =  -838.153168656     A.U. after    8 cycles
 Optimization completed.
    -- Stationary point found.
 Normal termination of Gaussian 16 at Thu Dec 10 23:56:24 2020.

 --------------------------------------------------------------------
 #N Geom=AllCheck Guess=TCheck SCRF=Check GenChk RB3LYP/6-31G(d) Freq
 --------------------------------------------------------------------

 Structure from the checkpoint file:  "JID_6830.chk"
 ------------------------------
 CID_53766058_JID_6830_neutraal
 ------------------------------
 Charge =  0 Multiplicity = 1

 SCF Done:  E(RB3LYP) =  -838.153168656     A.U. after    1 cycles

  Exact polarizability: 145.808  -1.726 129.642   2.931  10.873 105.987
 Approx polarizability: 235.264   7.783 195.740  -1.057  36.155 193.719

                      1                      2                      3
                      A                      A                      A
 Frequencies --     21.6611                30.1760                41.2405
 Red. masses --      4.2560                 4.7094                 4.9379
 Frc consts  --      0.0012                 0.0025                 0.0049
 IR Inten    --      0.0592                 0.1154                 0.2144

                      4                      5                      6
                      A                      A                      A
 Frequencies --     43.5823                74.9582                89.8348
 Red. masses --      5.0694                 6.7166                 2.6101
 Frc consts  --      0.0057                 0.0222                 0.0124
 IR Inten    --      1.1410                 0.1311                 0.2971

                      7                      8                      9
                      A                      A                      A
 Frequencies --     98.9888               121.6778               133.9113
 Red. masses --      3.2641                 2.9917                 5.3623
 Frc consts  --      0.0188                 0.0261                 0.0567
 IR Inten    --      0.2476                 1.9328                 1.3639

                     10                     11                     12
                      A                      A                      A
 Frequencies --    166.6354               189.9029               225.9811
 Red. masses --      3.7895                 5.8480                 7.5767
 Frc consts  --      0.0620                 0.1243                 0.2280
 IR Inten    --      2.5741                 1.0119                 7.7759

                     13                     14                     15
                      A                      A                      A
 Frequencies --    250.2560               286.3823               298.9607
 Red. masses --      8.5069                 4.4605                 6.1594
 Frc consts  --      0.3139                 0.2155                 0.3244
 IR Inten    --      7.0518                 6.0447                 5.5080

                     16                     17                     18
                      A                      A                      A
 Frequencies --    369.9187               378.7319               440.7352
 Red. masses --      3.5121                 3.0712                 3.0491
 Frc consts  --      0.2832                 0.2595                 0.3490
 IR Inten    --      8.8738                 3.6375                 9.8264

                     19                     20                     21
                      A                      A                      A
 Frequencies --    457.2315               483.7053               492.3886
 Red. masses --      3.1635                 2.7811                 3.1182
 Frc consts  --      0.3897                 0.3834                 0.4454
 IR Inten    --      5.3599                 1.2665                 0.8069

                     22                     23                     24
                      A                      A                      A
 Frequencies --    540.2298               560.3752               632.9899
 Red. masses --      9.3472                11.8535                12.7587
 Frc consts  --      1.6073                 2.1931                 3.0120
 IR Inten    --      0.1001                 2.2063                 7.5551

                     25                     26                     27
                      A                      A                      A
 Frequencies --    660.2667               666.8054               668.3463
 Red. masses --      3.4633                 2.7155                 1.7608
 Frc consts  --      0.8896                 0.7114                 0.4634
 IR Inten    --      4.0160                12.9775                 6.1008

                     28                     29                     30
                      A                      A                      A
 Frequencies --    719.2709               763.2101               817.9173
 Red. masses --     12.1666                10.9991                10.5810
 Frc consts  --      3.7086                 3.7748                 4.1706
 IR Inten    --      0.2218                 4.2200                 6.4758

                     31                     32                     33
                      A                      A                      A
 Frequencies --    846.6422               922.2818               923.6925
 Red. masses --     12.0262                 2.1905                 1.9762
 Frc consts  --      5.0790                 1.0978                 0.9934
 IR Inten    --      1.3228                10.2872                 2.9364

                     34                     35                     36
                      A                      A                      A
 Frequencies --    955.5871               959.2348               968.0316
 Red. masses --      1.7643                 1.6321                 1.8251
 Frc consts  --      0.9492                 0.8848                 1.0076
 IR Inten    --     30.4004                60.9060                37.1415

                     37                     38                     39
                      A                      A                      A
 Frequencies --    968.6781               972.4669              1020.3626
 Red. masses --      1.6542                 6.3279                 1.4147
 Frc consts  --      0.9145                 3.5258                 0.8678
 IR Inten    --      4.4579                47.9645                14.3926

                     40                     41                     42
                      A                      A                      A
 Frequencies --   1021.9226              1042.2967              1043.7610
 Red. masses --      1.4466                 1.7612                 1.5440
 Frc consts  --      0.8901                 1.1273                 0.9911
 IR Inten    --     39.4279                 5.1669                 8.0854

                     43                     44                     45
                      A                      A                      A
 Frequencies --   1082.9022              1175.2284              1178.4191
 Red. masses --     12.0986                 2.5902                 1.9894
 Frc consts  --      8.3592                 2.1078                 1.6277
 IR Inten    --     10.1164                 5.8187                 3.2813

                     46                     47                     48
                      A                      A                      A
 Frequencies --   1182.5130              1280.5300              1287.8511
 Red. masses --      5.0213                 1.2769                 1.1868
 Frc consts  --      4.1369                 1.2337                 1.1597
 IR Inten    --      3.8856                72.9696                33.4988

                     49                     50                     51
                      A                      A                      A
 Frequencies --   1323.0394              1324.8672              1333.3786
 Red. masses --      1.4097                 1.3092                 3.7158
 Frc consts  --      1.4539                 1.3539                 3.8923
 IR Inten    --     51.8543                 3.7877               341.4346

                     52                     53                     54
                      A                      A                      A
 Frequencies --   1382.0031              1392.5662              1475.4955
 Red. masses --      1.2782                 1.2868                 1.1665
 Frc consts  --      1.4384                 1.4702                 1.4963
 IR Inten    --     34.4716                19.8037                18.6779

                     55                     56                     57
                      A                      A                      A
 Frequencies --   1475.9565              1499.8735              1504.5481
 Red. masses --      1.1695                 1.1331                 1.1145
 Frc consts  --      1.5010                 1.5018                 1.4864
 IR Inten    --      0.2606                12.7961                 9.2522

                     58                     59                     60
                      A                      A                      A
 Frequencies --   1661.0119              1731.4452              1736.2331
 Red. masses --     12.0260                 4.4414                 4.4757
 Frc consts  --     19.5486                 7.8449                 7.9493
 IR Inten    --    416.7282                 1.6856                 0.6720

                     61                     62                     63
                      A                      A                      A
 Frequencies --   1876.9418              1896.5840              3045.3713
 Red. masses --     12.9981                13.0351                 1.0584
 Frc consts  --     26.9793                27.6253                 5.7833
 IR Inten    --    229.0411               418.4887                 7.3284

                     64                     65                     66
                      A                      A                      A
 Frequencies --   3056.2170              3093.9018              3109.7537
 Red. masses --      1.0599                 1.1056                 1.1041
 Frc consts  --      5.8329                 6.2352                 6.2911
 IR Inten    --      7.7337                 6.8515                 7.2670

                     67                     68                     69
                      A                      A                      A
 Frequencies --   3159.2139              3161.2700              3178.6221
 Red. masses --      1.0593                 1.0600                 1.0932
 Frc consts  --      6.2294                 6.2412                 6.5075
 IR Inten    --      6.0380                 8.0183                 6.0724

                     70                     71                     72
                      A                      A                      A
 Frequencies --   3181.2117              3243.8424              3247.2080
 Red. masses --      1.0931                 1.1155                 1.1151
 Frc consts  --      6.5180                 6.9156                 6.9279
 IR Inten    --      6.1826                11.5199                14.3833

 - Thermochemistry -
 -------------------
 Temperature   298.150 Kelvin.  Pressure   1.00000 Atm.
 Atom     1 has atomic number  6 and mass  12.00000

 Molecular mass:   226.04774 amu.
 Principal axes and moments of inertia in atomic units:
                           1         2         3
     Eigenvalues --  3241.575473878.861165741.33473
           X            0.99996   0.00417   0.00734
           Y           -0.00400   0.99974  -0.02262
           Z           -0.00743   0.02259   0.99972
 This molecule is an asymmetric top.
 Rotational symmetry number  1.
 Warning -- assumption of classical behavior for rotation
           may cause significant error
 Rotational temperatures (Kelvin)      0.02672     0.02233     0.01509
 Rotational constants (GHZ):           0.55675     0.46528     0.31434
 Zero-point vibrational energy     494352.2 (Joules/Mol)
                                  118.15301 (Kcal/Mol)
 Warning -- explicit consideration of  23 degrees of freedom as
           vibrations may cause significant error
 Vibrational temperatures:     31.17    43.42    59.34    62.71   107.85
          (Kelvin)            129.25   142.42   175.07   192.67   239.75
                              273.23   325.14   360.06   412.04   430.14
                              532.23   544.91   634.12   657.85   695.94
                              708.44   777.27   806.25   910.73   949.98
                              959.38   961.60  1034.87  1098.09  1176.80
                             1218.13  1326.96  1328.99  1374.88  1380.12
                             1392.78  1393.71  1399.16  1468.07  1470.32
                             1499.63  1501.74  1558.05  1690.89  1695.48
                             1701.37  1842.40  1852.93  1903.56  1906.19
                             1918.43  1988.39  2003.59  2122.91  2123.57
                             2157.98  2164.71  2389.83  2491.16  2498.05
                             2700.50  2728.76  4381.61  4397.21  4451.43
                             4474.24  4545.40  4548.36  4573.33  4577.05
                             4667.17  4672.01

 Zero-point correction=                           0.188289 (Hartree/Particle)
 Thermal correction to Energy=                    0.204819
 Thermal correction to Enthalpy=                  0.205763
 Thermal correction to Gibbs Free Energy=         0.141220
 Sum of electronic and zero-point Energies=           -837.964880
 Sum of electronic and thermal Energies=              -837.948350
 Sum of electronic and thermal Enthalpies=            -837.947406
 Sum of electronic and thermal Free Energies=         -838.011949

                     E (Thermal)             CV                S
                      KCal/Mol        Cal/Mol-Kelvin    Cal/Mol-Kelvin
 Total                  128.526             58.004            135.842
 Electronic               0.000              0.000              0.000
 Translational            0.889              2.981             42.149
 Rotational               0.889              2.981             32.645
 Vibrational            126.748             52.042             61.047
 Vibration     1          0.593              1.985              6.476
 Vibration     2          0.594              1.984              5.818
 Vibration     3          0.594              1.981              5.199
 Vibration     4          0.595              1.980              5.089
 Vibration     5          0.599              1.966              4.019
 Vibration     6          0.602              1.956              3.664
 Vibration     7          0.604              1.950              3.474
 Vibration     8          0.609              1.931              3.074
 Vibration     9          0.613              1.919              2.889
 Vibration    10          0.624              1.883              2.473
 Vibration    11          0.633              1.854              2.229
 Vibration    12          0.650              1.801              1.911
 Vibration    13          0.663              1.762              1.729
 Vibration    14          0.684              1.699              1.495
 Vibration    15          0.692              1.676              1.423
 Vibration    16          0.742              1.534              1.080
 Vibration    17          0.749              1.515              1.044
 Vibration    18          0.801              1.381              0.824
 Vibration    19          0.815              1.345              0.774
 Vibration    20          0.840              1.286              0.700
 Vibration    21          0.848              1.267              0.677
 Vibration    22          0.895              1.161              0.565
 Vibration    23          0.916              1.117              0.523

 Optimization completed.
    -- Stationary point found.
 Normal termination of Gaussian 16 at Fri Dec 11 00:03:56 2020.

 ----------------------------------------------------------------------
 # B3LYP/6-311++G(d,p) empiricaldispersion=gd3bj scf=xqc pop=npa geom=c
 heck
 ----------------------------------------------------------------------

 --------------------------------------
 CID_53766058_JID_6830_Energie_neutraal
 --------------------------------------
 Structure from the checkpoint file:  "JID_6830.chk"
 Charge =  0 Multiplicity = 1

 SCF Done:  E(RB3LYP) =  -838.398224785     A.U. after   15 cycles
 Normal termination of Gaussian 16 at Fri Dec 11 00:06:35 2020.

 ----------------------------------------------------------------------
 # B3LYP/6-311++G(d,p) empiricaldispersion=gd3bj scf=xqc pop=npa geom=c
 heck
 ----------------------------------------------------------------------

 ------------------------------------
 CID_53766058_JID_6830_Energie_kation
 ------------------------------------
 Structure from the checkpoint file:  "JID_6830.chk"
 Charge =  1 Multiplicity = 2

 SCF Done:  E(UB3LYP) =  -838.052666319     A.U. after   33 cycles
 SCF Done:  E(UB3LYP) =  -838.065462911     a.u. after   16 cycles
 Normal termination of Gaussian 16 at Fri Dec 11 01:31:15 2020.
 Gaussian 16:  ES64L-G16RevA.03 25-Dec-2016

 ----------------------------------------------------------------------
 # B3LYP/6-311++G(d,p) empiricaldispersion=gd3bj scf=xqc pop=npa geom=c
 heck
 ----------------------------------------------------------------------

 -----------------------------------
 CID_53766058_JID_6830_Energie_anion
 -----------------------------------
 Structure from the checkpoint file:  "JID_6830.chk"
 Charge = -1 Multiplicity = 2

                         Standard orientation:
 ---------------------------------------------------------------------
 Center     Atomic      Atomic             Coordinates (Angstroms)
 Number     Number       Type             X           Y           Z
 ---------------------------------------------------------------------
      1          6           0        3.417616   -1.126906    1.478651
      2          6           0        3.414078   -0.901764    0.165935
      3          6           0        2.189262   -1.052355   -0.678521
      4          8           0        1.921335    0.087245   -1.513638
      5          8           0        1.743859    1.266254   -0.636418
      6          6           0        0.468538    1.406014   -0.329714
      7          6           0       -0.700778    0.700904   -0.536379
      8          6           0       -1.523050    1.649890    0.282877
      9          8           0       -2.662865    1.704265    0.667406
     10          6           0       -0.213668    2.473176    0.487375
     11          8           0        0.121966    3.475975    1.055308
     12          8           0       -0.901649   -0.443325   -1.182054
     13          8           0       -2.327051   -0.802768   -1.126571
     14          6           0       -2.557226   -1.506606    0.105572
     15          6           0       -1.684159   -2.711426    0.269367
     16          6           0       -0.954235   -2.936112    1.362025
     17          1           0        2.511389   -1.415439    2.007413
     18          1           0        4.320875   -1.036695    2.074504
     19          1           0        4.321902   -0.602737   -0.354920
     20          1           0        2.312045   -1.827658   -1.447590
     21          1           0        1.305050   -1.307340   -0.081660
     22          1           0       -2.480152   -0.818154    0.954136
     23          1           0       -3.614439   -1.777978   -0.016527
     24          1           0       -1.678440   -3.415260   -0.561275
     25          1           0       -0.349467   -3.831341    1.474140
     26          1           0       -0.951794   -2.237463    2.196384
 ---------------------------------------------------------------------

 SCF Done:  E(UB3LYP) =  -838.410533030     A.U. after   33 cycles
 SCF Done:  E(UB3LYP) =  -838.410533030     a.u. after    1 cycles

 The electronic state is 2-A.
 Alpha  occ. eigenvalues --  -19.07817 -19.05906 -19.05156 -19.02650 -18.99234
 Alpha  occ. eigenvalues --  -18.97928 -10.13773 -10.12910 -10.12554 -10.11907
 Alpha  occ. eigenvalues --  -10.11429 -10.10327 -10.07776 -10.07024 -10.06754
 Alpha  occ. eigenvalues --  -10.05978  -1.02143  -1.00260  -0.92905  -0.91205
 Alpha  occ. eigenvalues --   -0.84385  -0.82861  -0.72999  -0.68494  -0.67483
 Alpha  occ. eigenvalues --   -0.57650  -0.56389  -0.49813  -0.48669  -0.45920
 Alpha  occ. eigenvalues --   -0.44926  -0.41705  -0.41214  -0.37812  -0.37321
 Alpha  occ. eigenvalues --   -0.36473  -0.35838  -0.35118  -0.34475  -0.33262
 Alpha  occ. eigenvalues --   -0.32871  -0.31644  -0.31458  -0.29884  -0.28827
 Alpha  occ. eigenvalues --   -0.27292  -0.26439  -0.25787  -0.25624  -0.24587
 Alpha  occ. eigenvalues --   -0.23687  -0.21473  -0.18660  -0.17922  -0.16758
 Alpha  occ. eigenvalues --   -0.16485  -0.15132  -0.11106  -0.10544   0.04515
 Alpha virt. eigenvalues --    0.07652   0.07722   0.08483   0.08849   0.09023
 Alpha virt. eigenvalues --    0.09519   0.09781   0.09873   0.10680   0.11131
 Alpha virt. eigenvalues --    0.11919   0.12604   0.13497   0.13830   0.15451

  Beta  occ. eigenvalues --  -19.07498 -19.05394 -19.04690 -19.01857 -18.99241
  Beta  occ. eigenvalues --  -18.97823 -10.13772 -10.12795 -10.12530 -10.11735
  Beta  occ. eigenvalues --  -10.11419 -10.10332 -10.07739 -10.06962 -10.06723
  Beta  occ. eigenvalues --  -10.05902  -1.01190  -0.98817  -0.92854  -0.91033
  Beta  occ. eigenvalues --   -0.83695  -0.81813  -0.72684  -0.68314  -0.67254
  Beta  occ. eigenvalues --   -0.57324  -0.55948  -0.49463  -0.48038  -0.45754
  Beta  occ. eigenvalues --   -0.44697  -0.41128  -0.40692  -0.37555  -0.36965
  Beta  occ. eigenvalues --   -0.36279  -0.35635  -0.34620  -0.34280  -0.33110
  Beta  occ. eigenvalues --   -0.32604  -0.31457  -0.31051  -0.29620  -0.28591
  Beta  occ. eigenvalues --   -0.27055  -0.26278  -0.25611  -0.24907  -0.24035
  Beta  occ. eigenvalues --   -0.23000  -0.20799  -0.18509  -0.17535  -0.16322
  Beta  occ. eigenvalues --   -0.16072  -0.14417  -0.10429  -0.10343
  Beta virt. eigenvalues --    0.07637   0.08233   0.08740   0.09142   0.09284
  Beta virt. eigenvalues --    0.09576   0.10052   0.10258   0.10636   0.11831
  Beta virt. eigenvalues --    0.12027   0.12515   0.12982   0.13838   0.14089

 Mulliken charges and spin densities:
               1          2
     1  C   -0.380735   0.077372
     2  C   -0.009867   0.007616
     3  C   -0.235378   0.013225
     4  O   -0.059484   0.209124
     5  O   -0.170882   0.111273
     6  C    0.045952   0.041829
     7  C    0.054198   0.163025
     8  C    0.269857   0.054001
     9  O   -0.392531   0.034997
    10  C   -0.041891  -0.016541
    11  O   -0.368088  -0.007678
    12  O   -0.139220   0.092673
    13  O   -0.006307   0.076155
    14  C   -0.602410   0.028097
    15  C    0.232822   0.029261
    16  C   -0.421439   0.060151
    17  H    0.067498   0.033617
    18  H    0.110431   0.001486
    19  H    0.149576  -0.000881
    20  H    0.140027   0.003446
    21  H    0.064982  -0.021776
    22  H    0.166211   0.010826
    23  H    0.148686  -0.002913
    24  H    0.151334  -0.000473
    25  H    0.113619  -0.002886
    26  H    0.113039   0.004974
 Sum of Mulliken charges =  -1.00000   1.00000

 Dipole moment (field-independent basis, Debye):
    X=              1.1350    Y=             -6.2700    Z=              0.1974  Tot=              6.3750
 Quadrupole moment (field-independent basis, Debye-Ang):
   XX=           -123.8234   YY=           -125.1595   ZZ=           -107.0904
   XY=              3.0306   XZ=              1.7821   YZ=             -7.0741

 Summary of Natural Population Analysis:

                                       Natural Population
                Natural  -----------------------------------------------
    Atom  No    Charge         Core      Valence    Rydberg      Total
 -----------------------------------------------------------------------
      C    1   -0.17883      0.99958     2.17133    0.00792     3.17883
      C    2   -0.09024      0.99956     2.08136    0.00932     3.09024
      C    3   -0.04272      0.99958     2.02891    0.01424     3.04272
      O    4   -0.09137      0.99991     3.08338    0.00809     4.09137
      O    5   -0.09667      0.99983     3.08706    0.00978     4.09667
      C    6    0.15469      0.99933     1.82715    0.01883     2.84531
      C    7    0.10655      0.99930     1.87672    0.01743     2.89345
      C    8    0.21949      0.99959     1.75612    0.02480     2.78051
      O    9   -0.28896      0.99987     3.28128    0.00781     4.28896
      C   10    0.21954      0.99961     1.75657    0.02427     2.78046
      O   11   -0.29125      0.99986     3.28303    0.00835     4.29125
      O   12   -0.10807      0.99984     3.09793    0.01030     4.10807
      O   13   -0.11734      0.99991     3.10858    0.00885     4.11734
      C   14   -0.03848      0.99957     2.02677    0.01213     3.03848
      C   15   -0.09094      0.99957     2.08251    0.00886     3.09094
      C   16   -0.18032      0.99958     2.17338    0.00736     3.18032
      H   17    0.08909      0.00000     0.40939    0.00153     0.41091
      H   18    0.08766      0.00000     0.41114    0.00119     0.41234
      H   19    0.09131      0.00000     0.40763    0.00107     0.40869
      H   20    0.09663      0.00000     0.40237    0.00100     0.40337
      H   21    0.08864      0.00000     0.40899    0.00237     0.41136
      H   22    0.09195      0.00000     0.40572    0.00233     0.40805
      H   23    0.09804      0.00000     0.40078    0.00118     0.40196
      H   24    0.09198      0.00000     0.40684    0.00118     0.40802
      H   25    0.08981      0.00000     0.40916    0.00103     0.41019
      H   26    0.08981      0.00000     0.40849    0.00170     0.41019
 =======================================================================
   * Total *   -0.00000     15.99448    42.79259    0.21293    59.00000

 Normal termination of Gaussian 16 at Fri Dec 11 01:38:59 2020.
