 Gaussian 16, Revision A.03,

 -----------------------------------------------------------
 # opt freq B3LYP/6-31G(d) empiricaldispersion=gd3bj scf=xqc
 -----------------------------------------------------------

 ------------------------------
 CID_68035204_JID_4424_neutraal
 ------------------------------
 Symbolic Z-matrix:
 Charge =  0 Multiplicity = 1

 SCF Done:  E(RB3LYP) =  -663.021294329     A.U. after   16 cycles
 SCF Done:  E(RB3LYP) =  -663.029280943     A.U. after   14 cycles
 SCF Done:  E(RB3LYP) =  -663.031709696     A.U. after   16 cycles
 SCF Done:  E(RB3LYP) =  -663.030580000     A.U. after   15 cycles
 SCF Done:  E(RB3LYP) =  -663.033688786     A.U. after   14 cycles
 SCF Done:  E(RB3LYP) =  -663.034139673     A.U. after   13 cycles
 SCF Done:  E(RB3LYP) =  -663.034204727     A.U. after   13 cycles
 SCF Done:  E(RB3LYP) =  -663.034220437     A.U. after   10 cycles
 SCF Done:  E(RB3LYP) =  -663.034222840     A.U. after    9 cycles
 SCF Done:  E(RB3LYP) =  -663.034223300     A.U. after    8 cycles
 SCF Done:  E(RB3LYP) =  -663.034223359     A.U. after    7 cycles
 Optimization completed.
    -- Stationary point found.
 Normal termination of Gaussian 16 at Thu Dec 10 09:42:04 2020.

 --------------------------------------------------------------------
 #N Geom=AllCheck Guess=TCheck SCRF=Check GenChk RB3LYP/6-31G(d) Freq
 --------------------------------------------------------------------

 Structure from the checkpoint file:  "JID_4424.chk"
 ------------------------------
 CID_68035204_JID_4424_neutraal
 ------------------------------
 Charge =  0 Multiplicity = 1

 SCF Done:  E(RB3LYP) =  -663.034223359     A.U. after    1 cycles

  Exact polarizability: 188.873   2.986 131.571  -6.771   4.467  55.285
 Approx polarizability: 315.942  10.235 250.124 -18.235  12.565  85.218

                      1                      2                      3
                      A                      A                      A
 Frequencies --     64.4708                88.6599               101.2617
 Red. masses --      4.8879                 3.8495                 4.4313
 Frc consts  --      0.0120                 0.0178                 0.0268
 IR Inten    --      0.2690                 2.1688                 1.3315

                      4                      5                      6
                      A                      A                      A
 Frequencies --    121.6083               206.8817               223.9762
 Red. masses --      4.8549                 2.2294                 1.7661
 Frc consts  --      0.0423                 0.0562                 0.0522
 IR Inten    --      1.1761                 1.3615                 1.4918

                      7                      8                      9
                      A                      A                      A
 Frequencies --    230.2214               275.7013               304.6594
 Red. masses --      5.0285                 6.9647                 2.0603
 Frc consts  --      0.1570                 0.3119                 0.1127
 IR Inten    --      1.7309                 3.8492                 3.1252

                     10                     11                     12
                      A                      A                      A
 Frequencies --    376.0994               398.3868               429.4025
 Red. masses --      4.7720                 6.5847                 7.9097
 Frc consts  --      0.3977                 0.6157                 0.8593
 IR Inten    --      1.9234                 0.5416                 0.2448

                     13                     14                     15
                      A                      A                      A
 Frequencies --    455.9134               530.6998               578.2254
 Red. masses --      3.7651                 4.7797                 3.8266
 Frc consts  --      0.4611                 0.7931                 0.7538
 IR Inten    --      4.3578                 0.9438                 0.1154

                     16                     17                     18
                      A                      A                      A
 Frequencies --    600.3929               655.2778               680.1863
 Red. masses --      4.3775                 6.6585                 5.9068
 Frc consts  --      0.9297                 1.6845                 1.6101
 IR Inten    --      3.6602                 2.1326                 0.8568

                     19                     20                     21
                      A                      A                      A
 Frequencies --    722.7679               755.0739               758.6013
 Red. masses --      6.0323                 9.6786                 2.5318
 Frc consts  --      1.8567                 3.2512                 0.8584
 IR Inten    --      6.7093                 8.3919                11.3571

                     22                     23                     24
                      A                      A                      A
 Frequencies --    775.7943               809.2159               831.2199
 Red. masses --      1.8020                 1.3791                 6.2027
 Frc consts  --      0.6390                 0.5321                 2.5250
 IR Inten    --     48.5563                 4.0694                18.2557

                     25                     26                     27
                      A                      A                      A
 Frequencies --    871.9581               887.8473               951.2623
 Red. masses --      1.3949                 5.0601                 3.4800
 Frc consts  --      0.6249                 2.3501                 1.8554
 IR Inten    --      1.0885                 0.7772                 7.5950

                     28                     29                     30
                      A                      A                      A
 Frequencies --    954.9864               991.6179              1010.2063
 Red. masses --      1.3074                 1.2600                 3.6757
 Frc consts  --      0.7025                 0.7300                 2.2101
 IR Inten    --      1.1643                 0.0581                 1.5769

                     31                     32                     33
                      A                      A                      A
 Frequencies --   1045.7714              1086.3496              1101.9662
 Red. masses --      2.1522                 2.1805                 1.6520
 Frc consts  --      1.3868                 1.5161                 1.1819
 IR Inten    --      1.5023                21.4244                33.3871

                     34                     35                     36
                      A                      A                      A
 Frequencies --   1135.0820              1165.2605              1198.5678
 Red. masses --      2.2120                 1.3596                 1.5619
 Frc consts  --      1.6792                 1.0877                 1.3220
 IR Inten    --      2.1053                24.1465                 0.2278

                     37                     38                     39
                      A                      A                      A
 Frequencies --   1263.4433              1290.4867              1306.4603
 Red. masses --      2.4056                 2.6924                 1.8967
 Frc consts  --      2.2625                 2.6418                 1.9074
 IR Inten    --    172.9252                23.7835                32.7639

                     40                     41                     42
                      A                      A                      A
 Frequencies --   1362.4498              1370.4737              1379.0973
 Red. masses --      1.4929                 2.0531                 4.0250
 Frc consts  --      1.6328                 2.2719                 4.5103
 IR Inten    --      0.9970               191.6102                 3.0480

                     43                     44                     45
                      A                      A                      A
 Frequencies --   1418.9819              1428.0753              1443.5629
 Red. masses --      3.3152                 1.6455                 3.2212
 Frc consts  --      3.9330                 1.9772                 3.9549
 IR Inten    --    141.8523                80.6418               219.0857

                     46                     47                     48
                      A                      A                      A
 Frequencies --   1488.1439              1498.2342              1525.9227
 Red. masses --      2.0068                 1.5997                 1.2982
 Frc consts  --      2.6184                 2.1157                 1.7810
 IR Inten    --     21.4920                 4.6912                13.6529

                     49                     50                     51
                      A                      A                      A
 Frequencies --   1529.0437              1541.2323              1548.8670
 Red. masses --      1.5573                 1.6975                 2.7548
 Frc consts  --      2.1452                 2.3757                 3.8937
 IR Inten    --     51.5745                58.3284                62.9872

                     52                     53                     54
                      A                      A                      A
 Frequencies --   1589.7300              1593.1680              1692.7442
 Red. masses --      5.3597                 8.7178                 6.3439
 Frc consts  --      7.9806                13.0371                10.7100
 IR Inten    --     10.8626               170.6124                18.6807

                     55                     56                     57
                      A                      A                      A
 Frequencies --   3061.0130              3082.6243              3124.2427
 Red. masses --      1.0348                 1.0594                 1.1037
 Frc consts  --      5.7127                 5.9312                 6.3475
 IR Inten    --     32.0106                11.7391                13.3317

                     58                     59                     60
                      A                      A                      A
 Frequencies --   3134.7181              3150.1564              3215.3304
 Red. masses --      1.1030                 1.1041                 1.0887
 Frc consts  --      6.3857                 6.4552                 6.6317
 IR Inten    --     18.8208                23.0320                 4.6433

                     61                     62                     63
                      A                      A                      A
 Frequencies --   3234.8783              3244.4417              3309.3565
 Red. masses --      1.0925                 1.0952                 1.0941
 Frc consts  --      6.7359                 6.7925                 7.0597
 IR Inten    --      3.8062                 1.6962                11.5715

 - Thermochemistry -
 -------------------
 Temperature   298.150 Kelvin.  Pressure   1.00000 Atm.
 Atom     1 has atomic number  6 and mass  12.00000

 Molecular mass:   191.06948 amu.
 Principal axes and moments of inertia in atomic units:
                           1         2         3
     Eigenvalues --  1489.810933045.931824362.26790
           X            0.99897  -0.04522   0.00487
           Y            0.04524   0.99897  -0.00333
           Z           -0.00472   0.00355   0.99998
 This molecule is an asymmetric top.
 Rotational symmetry number  1.
 Warning -- assumption of classical behavior for rotation
           may cause significant error
 Rotational temperatures (Kelvin)      0.05814     0.02844     0.01986
 Rotational constants (GHZ):           1.21139     0.59251     0.41372
 Zero-point vibrational energy     467754.5 (Joules/Mol)
                                  111.79602 (Kcal/Mol)
 Warning -- explicit consideration of  16 degrees of freedom as
           vibrations may cause significant error
 Vibrational temperatures:     92.76   127.56   145.69   174.97   297.66
          (Kelvin)            322.25   331.24   396.67   438.34   541.12
                              573.19   617.81   655.96   763.56   831.94
                              863.83   942.80   978.64  1039.90  1086.38
                             1091.46  1116.19  1164.28  1195.94  1254.55
                             1277.41  1368.65  1374.01  1426.72  1453.46
                             1504.63  1563.01  1585.48  1633.13  1676.55
                             1724.47  1817.81  1856.72  1879.70  1960.26
                             1971.81  1984.21  2041.60  2054.68  2076.97
                             2141.11  2155.62  2195.46  2199.95  2217.49
                             2228.47  2287.27  2292.21  2435.48  4404.11
                             4435.21  4495.09  4510.16  4532.37  4626.14
                             4654.27  4668.03  4761.43

 Zero-point correction=                           0.178158 (Hartree/Particle)
 Thermal correction to Energy=                    0.189459
 Thermal correction to Enthalpy=                  0.190403
 Thermal correction to Gibbs Free Energy=         0.140538
 Sum of electronic and zero-point Energies=           -662.856065
 Sum of electronic and thermal Energies=              -662.844765
 Sum of electronic and thermal Enthalpies=            -662.843820
 Sum of electronic and thermal Free Energies=         -662.893686

                     E (Thermal)             CV                S
                      KCal/Mol        Cal/Mol-Kelvin    Cal/Mol-Kelvin
 Total                  118.887             43.493            104.950
 Electronic               0.000              0.000              0.000
 Translational            0.889              2.981             41.648
 Rotational               0.889              2.981             31.360
 Vibrational            117.110             37.532             31.943
 Vibration     1          0.597              1.971              4.315
 Vibration     2          0.601              1.957              3.689
 Vibration     3          0.604              1.948              3.430
 Vibration     4          0.609              1.931              3.075
 Vibration     5          0.641              1.830              2.071
 Vibration     6          0.649              1.805              1.927
 Vibration     7          0.652              1.795              1.877
 Vibration     8          0.677              1.718              1.560
 Vibration     9          0.696              1.665              1.391
 Vibration    10          0.747              1.521              1.055
 Vibration    11          0.765              1.474              0.969
 Vibration    12          0.791              1.406              0.861
 Vibration    13          0.814              1.348              0.778
 Vibration    14          0.886              1.182              0.586
 Vibration    15          0.935              1.078              0.489
 Vibration    16          0.959              1.031              0.449

 Optimization completed.
    -- Stationary point found.
 Normal termination of Gaussian 16 at Thu Dec 10 09:47:42 2020.

 ----------------------------------------------------------------------
 # B3LYP/6-311++G(d,p) empiricaldispersion=gd3bj scf=xqc pop=npa geom=c
 heck
 ----------------------------------------------------------------------

 --------------------------------------
 CID_68035204_JID_4424_Energie_neutraal
 --------------------------------------
 Structure from the checkpoint file:  "JID_4424.chk"
 Charge =  0 Multiplicity = 1

 SCF Done:  E(RB3LYP) =  -663.213162116     A.U. after   16 cycles
 Normal termination of Gaussian 16 at Thu Dec 10 09:50:07 2020.

 ----------------------------------------------------------------------
 # B3LYP/6-311++G(d,p) empiricaldispersion=gd3bj scf=xqc pop=npa geom=c
 heck
 ----------------------------------------------------------------------

 ------------------------------------
 CID_68035204_JID_4424_Energie_kation
 ------------------------------------
 Structure from the checkpoint file:  "JID_4424.chk"
 Charge =  1 Multiplicity = 2

 SCF Done:  E(UB3LYP) =  -662.895059153     A.U. after   26 cycles
 Normal termination of Gaussian 16 at Thu Dec 10 09:55:35 2020.
 Gaussian 16:  ES64L-G16RevA.03 25-Dec-2016

 ----------------------------------------------------------------------
 # B3LYP/6-311++G(d,p) empiricaldispersion=gd3bj scf=xqc pop=npa geom=c
 heck
 ----------------------------------------------------------------------

 -----------------------------------
 CID_68035204_JID_4424_Energie_anion
 -----------------------------------
 Structure from the checkpoint file:  "JID_4424.chk"
 Charge = -1 Multiplicity = 2

                         Standard orientation:
 ---------------------------------------------------------------------
 Center     Atomic      Atomic             Coordinates (Angstroms)
 Number     Number       Type             X           Y           Z
 ---------------------------------------------------------------------
      1          6           0        3.178989   -1.377665    0.899292
      2          6           0        2.447366   -1.351598   -0.454447
      3          6           0        1.025329   -0.912983   -0.313113
      4          6           0        0.524027    0.390598   -0.139107
      5          7           0       -0.862304    0.273623   -0.024194
      6          6           0       -1.866209    1.191789    0.153749
      7          6           0       -3.159758    0.746309    0.234389
      8          6           0       -3.459720   -0.633527    0.135217
      9          6           0       -2.447426   -1.550193   -0.044784
     10          6           0       -1.119407   -1.099902   -0.127531
     11          7           0        0.013961   -1.803026   -0.300559
     12          7           0        1.205792    1.617020   -0.102562
     13          8           0        2.441072    1.590538   -0.196995
     14          8           0        0.543976    2.664152    0.020802
     15          1           0        3.224000   -0.373390    1.329152
     16          1           0        4.203916   -1.739120    0.767018
     17          1           0        2.667998   -2.041903    1.604052
     18          1           0        2.972647   -0.676263   -1.135133
     19          1           0        2.432074   -2.353211   -0.894388
     20          1           0       -1.555623    2.222271    0.218247
     21          1           0       -3.949274    1.475255    0.375423
     22          1           0       -4.490428   -0.965989    0.201183
     23          1           0       -2.626975   -2.615463   -0.126799
 ---------------------------------------------------------------------

 SCF Done:  E(UB3LYP) =  -663.249757265     A.U. after   24 cycles

 The electronic state is 2-A.
 Alpha  occ. eigenvalues --  -18.93979 -18.93834 -14.32135 -14.25540 -14.16682
 Alpha  occ. eigenvalues --  -10.10246 -10.09287 -10.09045 -10.06996 -10.06319
 Alpha  occ. eigenvalues --  -10.05884 -10.05778 -10.04501 -10.03910  -1.02120
 Alpha  occ. eigenvalues --   -0.90258  -0.84682  -0.78256  -0.71183  -0.66356
 Alpha  occ. eigenvalues --   -0.63591  -0.62288  -0.55301  -0.53231  -0.50031
 Alpha  occ. eigenvalues --   -0.46872  -0.44659  -0.38952  -0.37549  -0.36426
 Alpha  occ. eigenvalues --   -0.36140  -0.34884  -0.33378  -0.32180  -0.31879
 Alpha  occ. eigenvalues --   -0.30861  -0.29774  -0.26958  -0.26199  -0.25462
 Alpha  occ. eigenvalues --   -0.23327  -0.22189  -0.21415  -0.19984  -0.15520
 Alpha  occ. eigenvalues --   -0.13442  -0.12346  -0.12213  -0.10075  -0.09131
 Alpha  occ. eigenvalues --    0.02767
 Alpha virt. eigenvalues --    0.07979   0.08055   0.09344   0.09898   0.11304
 Alpha virt. eigenvalues --    0.11559   0.12712   0.12875   0.13415   0.14479
 Alpha virt. eigenvalues --    0.15267   0.15437   0.16053   0.17920   0.18499

  Beta  occ. eigenvalues --  -18.93464 -18.93294 -14.31408 -14.25267 -14.16802
  Beta  occ. eigenvalues --  -10.10081 -10.09371 -10.09001 -10.06811 -10.06397
  Beta  occ. eigenvalues --  -10.05873 -10.05561 -10.04514 -10.03886  -1.00947
  Beta  occ. eigenvalues --   -0.89944  -0.83696  -0.78112  -0.70940  -0.66146
  Beta  occ. eigenvalues --   -0.63217  -0.62062  -0.54640  -0.53111  -0.49838
  Beta  occ. eigenvalues --   -0.46561  -0.44500  -0.38603  -0.37287  -0.36048
  Beta  occ. eigenvalues --   -0.34683  -0.34366  -0.33154  -0.31451  -0.30867
  Beta  occ. eigenvalues --   -0.29858  -0.29351  -0.26854  -0.26022  -0.25346
  Beta  occ. eigenvalues --   -0.23256  -0.22153  -0.21017  -0.19191  -0.15578
  Beta  occ. eigenvalues --   -0.11842  -0.11597  -0.09872  -0.09564  -0.08222
  Beta virt. eigenvalues --    0.07971   0.08491   0.09037   0.09820   0.10151
  Beta virt. eigenvalues --    0.11305   0.11535   0.12830   0.13357   0.14246
  Beta virt. eigenvalues --    0.14507   0.15298   0.15598   0.16067   0.17977

 Mulliken charges and spin densities:
               1          2
     1  C   -0.543826  -0.028711
     2  C   -0.281422  -0.006038
     3  C    1.640744   0.151079
     4  C   -0.986022  -0.073977
     5  N    0.139107   0.098309
     6  C   -0.244306   0.033485
     7  C   -0.360387   0.016645
     8  C   -0.499926   0.164137
     9  C   -0.081973  -0.059728
    10  C   -0.082129   0.108988
    11  N   -0.143665  -0.064697
    12  N   -0.575152   0.233435
    13  O   -0.161097   0.205838
    14  O   -0.134392   0.192996
    15  H    0.142895   0.030263
    16  H    0.094509   0.006833
    17  H    0.108577   0.004893
    18  H    0.184315  -0.001423
    19  H    0.139036   0.003930
    20  H    0.232298  -0.004587
    21  H    0.134380  -0.001056
    22  H    0.127982  -0.014148
    23  H    0.150456   0.003535
 Sum of Mulliken charges =  -1.00000   1.00000

 Dipole moment (field-independent basis, Debye):
    X=             -3.9656    Y=             -3.9068    Z=              0.4175  Tot=              5.5824
 Quadrupole moment (field-independent basis, Debye-Ang):
   XX=           -105.1319   YY=           -112.4133   ZZ=            -88.6287
   XY=            -10.9198   XZ=             -0.3910   YZ=              0.2003

 Summary of Natural Population Analysis:

                                       Natural Population
                Natural  -----------------------------------------------
    Atom  No    Charge         Core      Valence    Rydberg      Total
 -----------------------------------------------------------------------
      C    1   -0.27910      0.99966     2.27534    0.00409     3.27910
      C    2   -0.20607      0.99961     2.19870    0.00776     3.20607
      C    3    0.12395      0.99953     1.86180    0.01472     2.87605
      C    4    0.08695      0.99942     1.89712    0.01651     2.91305
      N    5   -0.14898      0.99958     2.63982    0.00958     3.64898
      C    6    0.03117      0.99957     1.95810    0.01116     2.96883
      C    7   -0.13911      0.99958     2.13075    0.00878     3.13911
      C    8   -0.06627      0.99959     2.05672    0.00996     3.06627
      C    9   -0.13491      0.99953     2.12653    0.00885     3.13491
      C   10    0.20950      0.99959     1.77662    0.01430     2.79050
      N   11   -0.29254      0.99968     2.78193    0.01093     3.79254
      N   12    0.30653      0.99967     2.16867    0.02513     3.19347
      O   13   -0.19453      0.99990     3.18695    0.00768     4.19453
      O   14   -0.21115      0.99990     3.20326    0.00799     4.21115
      H   15    0.10938      0.00000     0.38922    0.00139     0.39062
      H   16    0.08802      0.00000     0.41097    0.00101     0.41198
      H   17    0.09158      0.00000     0.40743    0.00099     0.40842
      H   18    0.11327      0.00000     0.38531    0.00142     0.38673
      H   19    0.09562      0.00000     0.40299    0.00140     0.40438
      H   20    0.12297      0.00000     0.37576    0.00127     0.37703
      H   21    0.09826      0.00000     0.40088    0.00086     0.40174
      H   22    0.09129      0.00000     0.40774    0.00097     0.40871
      H   23    0.10418      0.00000     0.39484    0.00099     0.39582
 =======================================================================
   * Total *   -0.00000     13.99481    35.83746    0.16773    50.00000

 Normal termination of Gaussian 16 at Thu Dec 10 10:00:37 2020.
