 Gaussian 16, Revision A.03,

 -----------------------------------------------------------
 # opt freq B3LYP/6-31G(d) empiricaldispersion=gd3bj scf=xqc
 -----------------------------------------------------------

 -------------------------------
 CID_127810133_JID_8799_neutraal
 -------------------------------
 Symbolic Z-matrix:
 Charge =  0 Multiplicity = 1

 SCF Done:  E(RB3LYP) =  -1199.11567101     A.U. after   15 cycles
 SCF Done:  E(RB3LYP) =  -1199.12610479     A.U. after   13 cycles
 SCF Done:  E(RB3LYP) =  -1199.12097860     A.U. after   14 cycles
 SCF Done:  E(RB3LYP) =  -1199.12797011     A.U. after   13 cycles
 SCF Done:  E(RB3LYP) =  -1199.12893778     A.U. after   13 cycles
 SCF Done:  E(RB3LYP) =  -1199.12971945     A.U. after   12 cycles
 SCF Done:  E(RB3LYP) =  -1199.13010794     A.U. after   12 cycles
 SCF Done:  E(RB3LYP) =  -1199.13050282     A.U. after   13 cycles
 SCF Done:  E(RB3LYP) =  -1199.13061049     A.U. after   12 cycles
 SCF Done:  E(RB3LYP) =  -1199.13053919     A.U. after   11 cycles
 SCF Done:  E(RB3LYP) =  -1199.13179727     A.U. after    9 cycles
 SCF Done:  E(RB3LYP) =  -1199.13179786     A.U. after    9 cycles
 SCF Done:  E(RB3LYP) =  -1199.13179842     A.U. after    8 cycles
 SCF Done:  E(RB3LYP) =  -1199.13179853     A.U. after    9 cycles
 SCF Done:  E(RB3LYP) =  -1199.13179871     A.U. after    7 cycles
 Optimization completed.
    -- Stationary point found.
 Normal termination of Gaussian 16 at Fri Dec 11 22:48:20 2020.

 --------------------------------------------------------------------
 #N Geom=AllCheck Guess=TCheck SCRF=Check GenChk RB3LYP/6-31G(d) Freq
 --------------------------------------------------------------------

 Structure from the checkpoint file:  "JID_8799.chk"
 -------------------------------
 CID_127810133_JID_8799_neutraal
 -------------------------------
 Charge =  0 Multiplicity = 1

 SCF Done:  E(RB3LYP) =  -1199.13179871     A.U. after    1 cycles

  Exact polarizability: 144.828  -6.728 167.752 -14.676  -9.249 143.515
 Approx polarizability: 197.773 -15.745 276.619 -35.557 -16.648 242.077

                      1                      2                      3
                      A                      A                      A
 Frequencies --     19.8130                44.7234                47.8656
 Red. masses --      5.7770                 4.5192                 5.0615
 Frc consts  --      0.0013                 0.0053                 0.0068
 IR Inten    --      0.4771                 1.2103                 0.5086

                      4                      5                      6
                      A                      A                      A
 Frequencies --     77.9307                82.0920                87.4583
 Red. masses --      6.1937                 4.1312                 8.8658
 Frc consts  --      0.0222                 0.0164                 0.0400
 IR Inten    --      0.9518                 1.1299                 3.5106

                      7                      8                      9
                      A                      A                      A
 Frequencies --    115.1029               134.5516               178.2961
 Red. masses --      2.4584                 2.8109                 4.2746
 Frc consts  --      0.0192                 0.0300                 0.0801
 IR Inten    --      9.1934                 1.2249                 1.2084

                     10                     11                     12
                      A                      A                      A
 Frequencies --    234.6059               267.9141               278.2143
 Red. masses --      3.8038                 5.8275                 4.3211
 Frc consts  --      0.1234                 0.2464                 0.1971
 IR Inten    --      1.3957                 1.3686                 4.5639

                     13                     14                     15
                      A                      A                      A
 Frequencies --    299.8944               337.0013               358.9472
 Red. masses --      6.4389                 5.1530                 4.3181
 Frc consts  --      0.3412                 0.3448                 0.3278
 IR Inten    --      0.5845                 2.6382                 3.6853

                     16                     17                     18
                      A                      A                      A
 Frequencies --    414.6077               460.3519               491.9496
 Red. masses --      5.5834                 2.5467                 3.4739
 Frc consts  --      0.5655                 0.3180                 0.4953
 IR Inten    --      0.6215                 8.7683                 0.4835

                     19                     20                     21
                      A                      A                      A
 Frequencies --    497.8478               528.0278               541.8481
 Red. masses --      4.3498                 3.4539                 2.0844
 Frc consts  --      0.6352                 0.5674                 0.3606
 IR Inten    --      1.3077                14.3524                22.9336

                     22                     23                     24
                      A                      A                      A
 Frequencies --    572.1111               580.5434               624.6933
 Red. masses --      3.5779                 5.7054                 2.9942
 Frc consts  --      0.6900                 1.1329                 0.6884
 IR Inten    --     11.1498                12.2091                33.6269

                     25                     26                     27
                      A                      A                      A
 Frequencies --    635.2318               672.5719               688.5331
 Red. masses --      3.0221                 4.0210                 2.9754
 Frc consts  --      0.7185                 1.0717                 0.8311
 IR Inten    --     37.2587                19.9842                19.7761

                     28                     29                     30
                      A                      A                      A
 Frequencies --    707.1614               746.4895               760.2564
 Red. masses --      5.5789                 5.9371                 3.1787
 Frc consts  --      1.6438                 1.9493                 1.0825
 IR Inten    --      8.8418                 8.4134                 5.1295

                     31                     32                     33
                      A                      A                      A
 Frequencies --    771.4810               778.5775               821.8446
 Red. masses --      1.7322                 4.9574                 4.5717
 Frc consts  --      0.6074                 1.7705                 1.8193
 IR Inten    --     34.3067                52.4792                 9.0105

                     34                     35                     36
                      A                      A                      A
 Frequencies --    857.2038               864.1398               891.4951
 Red. masses --      1.5855                 4.1206                 1.4749
 Frc consts  --      0.6864                 1.8129                 0.6906
 IR Inten    --      1.1971                14.7740                 1.4916

                     37                     38                     39
                      A                      A                      A
 Frequencies --    903.5834               918.7330               950.7403
 Red. masses --      2.2972                 1.4214                 1.4380
 Frc consts  --      1.1051                 0.7069                 0.7658
 IR Inten    --      1.2003                 2.6966                 4.6239

                     40                     41                     42
                      A                      A                      A
 Frequencies --    955.4722               967.9584              1005.3774
 Red. masses --      2.8261                 8.2871                 2.1469
 Frc consts  --      1.5201                 4.5747                 1.2785
 IR Inten    --     15.5862                28.5775                 2.7609

                     43                     44                     45
                      A                      A                      A
 Frequencies --   1050.2875              1055.8275              1079.3353
 Red. masses --      1.4484                 4.2023                 1.9466
 Frc consts  --      0.9414                 2.7601                 1.3361
 IR Inten    --      1.4538                28.9801                15.3519

                     46                     47                     48
                      A                      A                      A
 Frequencies --   1081.9584              1102.7250              1110.5745
 Red. masses --      1.3948                 3.4040                 1.9295
 Frc consts  --      0.9620                 2.4388                 1.4021
 IR Inten    --      5.9344               120.0069                 3.5278

                     49                     50                     51
                      A                      A                      A
 Frequencies --   1147.1904              1155.7317              1184.3048
 Red. masses --      2.4819                 1.5550                 1.4188
 Frc consts  --      1.9244                 1.2237                 1.1724
 IR Inten    --     46.6600                15.0647                 2.1346

                     52                     53                     54
                      A                      A                      A
 Frequencies --   1215.4683              1218.4150              1221.2433
 Red. masses --      1.7753                 1.1325                 2.0117
 Frc consts  --      1.5453                 0.9905                 1.7677
 IR Inten    --     38.2605                 5.1736                26.0381

                     55                     56                     57
                      A                      A                      A
 Frequencies --   1245.5370              1261.9667              1288.8953
 Red. masses --      1.4467                 1.2566                 1.8014
 Frc consts  --      1.3224                 1.1791                 1.7631
 IR Inten    --      5.5453                10.4045                28.7064

                     58                     59                     60
                      A                      A                      A
 Frequencies --   1300.3358              1317.6035              1330.1474
 Red. masses --      3.4447                 1.2615                 1.3170
 Frc consts  --      3.4317                 1.2903                 1.3729
 IR Inten    --    148.1528                 9.6375                27.1448

                     61                     62                     63
                      A                      A                      A
 Frequencies --   1369.8456              1397.8465              1404.1196
 Red. masses --      1.2654                 1.3362                 5.2021
 Frc consts  --      1.3991                 1.5384                 6.0428
 IR Inten    --      5.8880                22.2563               302.7341

                     64                     65                     66
                      A                      A                      A
 Frequencies --   1418.1620              1438.1849              1449.0606
 Red. masses --      4.8539                 1.4431                 1.4400
 Frc consts  --      5.7517                 1.7587                 1.7815
 IR Inten    --    120.3086                 8.5373                 3.8388

                     67                     68                     69
                      A                      A                      A
 Frequencies --   1491.9199              1507.6803              1510.5751
 Red. masses --      1.4630                 3.0820                 1.1283
 Frc consts  --      1.9186                 4.1276                 1.5170
 IR Inten    --     27.5676               166.5116                 6.2317

                     70                     71                     72
                      A                      A                      A
 Frequencies --   1523.2492              1534.1122              1535.3597
 Red. masses --      1.0954                 1.2034                 2.6787
 Frc consts  --      1.4975                 1.6686                 3.7204
 IR Inten    --      3.4908                16.5950                54.3643

                     73                     74                     75
                      A                      A                      A
 Frequencies --   1570.3114              1657.7220              1687.5660
 Red. masses --      1.1399                 7.8884                 7.8706
 Frc consts  --      1.6562                12.7722                13.2063
 IR Inten    --      0.0430                10.6258                19.6732

                     76                     77                     78
                      A                      A                      A
 Frequencies --   1814.6613              3031.1502              3043.8736
 Red. masses --      7.0258                 1.0677                 1.0649
 Frc consts  --     13.6312                 5.7796                 5.8132
 IR Inten    --    553.0354                95.2521                21.4429

                     79                     80                     81
                      A                      A                      A
 Frequencies --   3077.0810              3082.1929              3103.6099
 Red. masses --      1.0665                 1.0631                 1.0944
 Frc consts  --      5.9498                 5.9506                 6.2108
 IR Inten    --     22.2810                23.0972                21.4486

                     82                     83                     84
                      A                      A                      A
 Frequencies --   3129.7940              3139.5894              3140.0631
 Red. masses --      1.0868                 1.1066                 1.1038
 Frc consts  --      6.2721                 6.4270                 6.4122
 IR Inten    --      7.7941                15.7572                46.3185

                     85                     86                     87
                      A                      A                      A
 Frequencies --   3165.3657              3204.1105              3218.5445
 Red. masses --      1.0997                 1.0872                 1.0933
 Frc consts  --      6.4919                 6.5760                 6.6727
 IR Inten    --      3.5313                 3.2997                 8.3422

                     88                     89                     90
                      A                      A                      A
 Frequencies --   3235.0707              3567.2864              3588.2151
 Red. masses --      1.0946                 1.0747                 1.0753
 Frc consts  --      6.7495                 8.0579                 8.1569
 IR Inten    --      4.1832                37.3524                20.9557

 - Thermochemistry -
 -------------------
 Temperature   298.150 Kelvin.  Pressure   1.00000 Atm.
 Atom     1 has atomic number  6 and mass  12.00000

 Molecular mass:   266.07251 amu.
 Principal axes and moments of inertia in atomic units:
                           1         2         3
     Eigenvalues --  3586.633665617.898806991.71425
           X            0.99978  -0.02041  -0.00381
           Y            0.02033   0.99959  -0.02011
           Z            0.00422   0.02003   0.99979
 This molecule is an asymmetric top.
 Rotational symmetry number  1.
 Warning -- assumption of classical behavior for rotation
           may cause significant error
 Rotational temperatures (Kelvin)      0.02415     0.01542     0.01239
 Rotational constants (GHZ):           0.50319     0.32125     0.25813
 Zero-point vibrational energy     673360.7 (Joules/Mol)
                                  160.93706 (Kcal/Mol)
 Warning -- explicit consideration of  23 degrees of freedom as
           vibrations may cause significant error
 Vibrational temperatures:     28.51    64.35    68.87   112.12   118.11
          (Kelvin)            125.83   165.61   193.59   256.53   337.55
                              385.47   400.29   431.48   484.87   516.44
                              596.53   662.34   707.81   716.29   759.71
                              779.60   823.14   835.27   898.79   913.96
                              967.68   990.65  1017.45  1074.03  1093.84
                             1109.99  1120.20  1182.45  1233.33  1243.30
                             1282.66  1300.05  1321.85  1367.90  1374.71
                             1392.68  1446.51  1511.13  1519.10  1552.92
                             1556.70  1586.58  1597.87  1650.55  1662.84
                             1703.95  1748.79  1753.03  1757.10  1792.05
                             1815.69  1854.43  1870.89  1895.74  1913.79
                             1970.90  2011.19  2020.21  2040.42  2069.23
                             2084.87  2146.54  2169.22  2173.38  2191.62
                             2207.25  2209.04  2259.33  2385.09  2428.03
                             2610.89  4361.15  4379.46  4427.23  4434.59
                             4465.40  4503.08  4517.17  4517.85  4554.26
                             4610.00  4630.77  4654.55  5132.53  5162.64

 Zero-point correction=                           0.256470 (Hartree/Particle)
 Thermal correction to Energy=                    0.272422
 Thermal correction to Enthalpy=                  0.273366
 Thermal correction to Gibbs Free Energy=         0.210903
 Sum of electronic and zero-point Energies=          -1198.875329
 Sum of electronic and thermal Energies=             -1198.859376
 Sum of electronic and thermal Enthalpies=           -1198.858432
 Sum of electronic and thermal Free Energies=        -1198.920896

                     E (Thermal)             CV                S
                      KCal/Mol        Cal/Mol-Kelvin    Cal/Mol-Kelvin
 Total                  170.948             60.759            131.466
 Electronic               0.000              0.000              0.000
 Translational            0.889              2.981             42.635
 Rotational               0.889              2.981             33.310
 Vibrational            169.170             54.798             55.521
 Vibration     1          0.593              1.986              6.653
 Vibration     2          0.595              1.980              5.038
 Vibration     3          0.595              1.978              4.904
 Vibration     4          0.599              1.964              3.942
 Vibration     5          0.600              1.961              3.840
 Vibration     6          0.601              1.958              3.716
 Vibration     7          0.608              1.937              3.181
 Vibration     8          0.613              1.919              2.880
 Vibration     9          0.629              1.869              2.346
 Vibration    10          0.654              1.788              1.843
 Vibration    11          0.673              1.732              1.610
 Vibration    12          0.679              1.714              1.545
 Vibration    13          0.692              1.674              1.417
 Vibration    14          0.718              1.602              1.226
 Vibration    15          0.734              1.557              1.127
 Vibration    16          0.778              1.439              0.910
 Vibration    17          0.818              1.338              0.765
 Vibration    18          0.848              1.268              0.679
 Vibration    19          0.853              1.255              0.664
 Vibration    20          0.883              1.188              0.592
 Vibration    21          0.897              1.158              0.561
 Vibration    22          0.928              1.092              0.500
 Vibration    23          0.937              1.073              0.484

 Optimization completed.
    -- Stationary point found.
 Normal termination of Gaussian 16 at Fri Dec 11 23:04:23 2020.

 ----------------------------------------------------------------------
 # B3LYP/6-311++G(d,p) empiricaldispersion=gd3bj scf=xqc pop=npa geom=c
 heck
 ----------------------------------------------------------------------

 ---------------------------------------
 CID_127810133_JID_8799_Energie_neutraal
 ---------------------------------------
 Structure from the checkpoint file:  "JID_8799.chk"
 Charge =  0 Multiplicity = 1

 SCF Done:  E(RB3LYP) =  -1199.38564743     A.U. after   15 cycles
 Normal termination of Gaussian 16 at Fri Dec 11 23:11:24 2020.

 ----------------------------------------------------------------------
 # B3LYP/6-311++G(d,p) empiricaldispersion=gd3bj scf=xqc pop=npa geom=c
 heck
 ----------------------------------------------------------------------

 -------------------------------------
 CID_127810133_JID_8799_Energie_kation
 -------------------------------------
 Structure from the checkpoint file:  "JID_8799.chk"
 Charge =  1 Multiplicity = 2

 SCF Done:  E(UB3LYP) =  -1199.10057587     A.U. after   25 cycles
 Normal termination of Gaussian 16 at Fri Dec 11 23:28:11 2020.
 Gaussian 16:  ES64L-G16RevA.03 25-Dec-2016

 ----------------------------------------------------------------------
 # B3LYP/6-311++G(d,p) empiricaldispersion=gd3bj scf=xqc pop=npa geom=c
 heck
 ----------------------------------------------------------------------

 ------------------------------------
 CID_127810133_JID_8799_Energie_anion
 ------------------------------------
 Structure from the checkpoint file:  "JID_8799.chk"
 Charge = -1 Multiplicity = 2

                         Standard orientation:
 ---------------------------------------------------------------------
 Center     Atomic      Atomic             Coordinates (Angstroms)
 Number     Number       Type             X           Y           Z
 ---------------------------------------------------------------------
      1          6           0       -3.210583    0.688464   -0.182797
      2          6           0       -3.883746   -0.641979    0.147477
      3         16           0       -2.780297   -1.969457   -0.539501
      4          6           0       -1.381619   -0.813008   -0.851950
      5          6           0       -1.695058    0.467830   -0.059572
      6          7           0       -0.928232    1.622499   -0.517226
      7          6           0       -0.133925    2.426992    0.280038
      8          8           0       -0.031794    3.632077    0.104930
      9          7           0        0.539501    1.772323    1.318205
     10          6           0        1.114983    0.477342    1.162266
     11          6           0        1.858011    0.128260    0.044957
     12          6           0        2.379716   -1.153224   -0.121069
     13          6           0        2.214005   -2.143303    0.826868
     14          6           0        1.479687   -1.797154    1.976933
     15          6           0        0.940637   -0.523625    2.138374
     16          8           0        3.069148   -1.212248   -1.309525
     17          6           0        2.761415    0.012127   -1.987219
     18          8           0        2.198575    0.912757   -1.025453
     19          1           0       -3.446730    0.982032   -1.214507
     20          1           0       -3.549416    1.490737    0.481498
     21          1           0       -3.976388   -0.781381    1.228350
     22          1           0       -4.875907   -0.732617   -0.299899
     23          1           0       -1.308269   -0.584312   -1.919962
     24          1           0       -0.450332   -1.275675   -0.524333
     25          1           0       -1.453333    0.295031    0.990833
     26          1           0       -1.373593    2.179197   -1.236928
     27          1           0        1.094451    2.441566    1.840799
     28          1           0        2.627408   -3.135198    0.685655
     29          1           0        1.316135   -2.546895    2.744059
     30          1           0        0.351631   -0.279690    3.016569
     31          1           0        3.678026    0.443696   -2.394104
     32          1           0        2.023621   -0.181963   -2.778310
 ---------------------------------------------------------------------

 SCF Done:  E(UB3LYP) =  -1199.37523680     A.U. after   33 cycles
 SCF Done:  E(UB3LYP) =  -1199.37523680     a.u. after    1 cycles

 The electronic state is 2-A.
 Alpha  occ. eigenvalues --  -88.73599 -19.07603 -19.07576 -18.98853 -14.24308
 Alpha  occ. eigenvalues --  -14.23439 -10.19972 -10.19593 -10.14068 -10.14012
 Alpha  occ. eigenvalues --  -10.12349 -10.11910 -10.10148 -10.09465 -10.08575
 Alpha  occ. eigenvalues --  -10.08439 -10.08288 -10.08101  -7.82203  -5.78601
 Alpha  occ. eigenvalues --   -5.78254  -5.77555  -1.03896  -0.95535  -0.94698
 Alpha  occ. eigenvalues --   -0.84654  -0.82126  -0.76136  -0.73750  -0.67140
 Alpha  occ. eigenvalues --   -0.65626  -0.63527  -0.62176  -0.58560  -0.54308
 Alpha  occ. eigenvalues --   -0.53434  -0.51328  -0.50281  -0.48544  -0.45436
 Alpha  occ. eigenvalues --   -0.44012  -0.43154  -0.41710  -0.40980  -0.39443
 Alpha  occ. eigenvalues --   -0.38805  -0.37324  -0.35119  -0.34174  -0.33607
 Alpha  occ. eigenvalues --   -0.33410  -0.32457  -0.30568  -0.30015  -0.29909
 Alpha  occ. eigenvalues --   -0.29431  -0.28801  -0.27619  -0.27407  -0.27196
 Alpha  occ. eigenvalues --   -0.26498  -0.25193  -0.22830  -0.21788  -0.19490
 Alpha  occ. eigenvalues --   -0.17479  -0.15570  -0.15035  -0.12617  -0.12073
 Alpha  occ. eigenvalues --    0.04304
 Alpha virt. eigenvalues --    0.06179   0.06735   0.06845   0.07807   0.08187
 Alpha virt. eigenvalues --    0.08719   0.08939   0.09346   0.09729   0.10838
 Alpha virt. eigenvalues --    0.10951   0.11113   0.11967   0.12628   0.12753

  Beta  occ. eigenvalues --  -88.73598 -19.07602 -19.07572 -18.98837 -14.24319
  Beta  occ. eigenvalues --  -14.23429 -10.19945 -10.19554 -10.14049 -10.13989
  Beta  occ. eigenvalues --  -10.12344 -10.11783 -10.10115 -10.09444 -10.08583
  Beta  occ. eigenvalues --  -10.08410 -10.08177 -10.08071  -7.82202  -5.78601
  Beta  occ. eigenvalues --   -5.78249  -5.77555  -1.03871  -0.95498  -0.94683
  Beta  occ. eigenvalues --   -0.84592  -0.82071  -0.76037  -0.73715  -0.67052
  Beta  occ. eigenvalues --   -0.65456  -0.63476  -0.62134  -0.58469  -0.54198
  Beta  occ. eigenvalues --   -0.53335  -0.51263  -0.50207  -0.48490  -0.45384
  Beta  occ. eigenvalues --   -0.43950  -0.43084  -0.41646  -0.40902  -0.39396
  Beta  occ. eigenvalues --   -0.38734  -0.37274  -0.35045  -0.34113  -0.33565
  Beta  occ. eigenvalues --   -0.33359  -0.32401  -0.30428  -0.29908  -0.29876
  Beta  occ. eigenvalues --   -0.29371  -0.28748  -0.27562  -0.27353  -0.27154
  Beta  occ. eigenvalues --   -0.26466  -0.25140  -0.22639  -0.21757  -0.19366
  Beta  occ. eigenvalues --   -0.17404  -0.15497  -0.14639  -0.12514  -0.11936
  Beta virt. eigenvalues --    0.06565   0.07149   0.07249   0.07687   0.08296
  Beta virt. eigenvalues --    0.08500   0.08872   0.09244   0.09765   0.09994
  Beta virt. eigenvalues --    0.10974   0.11137   0.11531   0.11959   0.12681

 Mulliken charges and spin densities:
               1          2
     1  C    0.381521  -0.714264
     2  C    0.381228  -0.832690
     3  S    0.240513  -0.406740
     4  C   -0.529327   0.201054
     5  C   -0.243455   0.194567
     6  N   -0.153029   0.128213
     7  C    0.267036  -0.094296
     8  O   -0.361600   0.012524
     9  N   -0.252959   0.000493
    10  C   -1.168170   0.696573
    11  C   -0.110764   0.331571
    12  C    0.680527  -0.697446
    13  C   -0.671211   0.610116
    14  C   -0.090493  -0.393632
    15  C   -0.127621   0.151379
    16  O   -0.119158   0.013249
    17  C    1.427258  -1.526532
    18  O   -0.038919  -0.012648
    19  H   -0.133512   0.278694
    20  H   -0.240597   0.428441
    21  H   -0.149597   0.342535
    22  H   -0.296426   0.506965
    23  H   -0.232160   0.457489
    24  H    0.389464  -0.289175
    25  H    0.381613  -0.132061
    26  H    0.197292   0.109900
    27  H    0.337510  -0.010145
    28  H   -0.011874   0.180583
    29  H    0.013215   0.142618
    30  H   -0.064530   0.232093
    31  H   -0.483674   0.671086
    32  H   -0.218101   0.419486
 Sum of Mulliken charges =  -1.00000   1.00000

 Dipole moment (field-independent basis, Debye):
    X=              2.6502    Y=             -1.5303    Z=              2.9550  Tot=              4.2541
 Quadrupole moment (field-independent basis, Debye-Ang):
   XX=           -182.4380   YY=           -159.9775   ZZ=           -148.4204
   XY=             -1.2591   XZ=              7.1560   YZ=              2.0310

 Summary of Natural Population Analysis:

                                       Natural Population
                Natural  -----------------------------------------------
    Atom  No    Charge         Core      Valence    Rydberg      Total
 -----------------------------------------------------------------------
      C    1   -0.19662      0.99960     2.18730    0.00972     3.19662
      C    2   -0.23958      0.99960     2.23017    0.00980     3.23958
      S    3    0.07068      4.99966     2.91308    0.01657     7.92932
      C    4   -0.24482      0.99957     2.23391    0.01135     3.24482
      C    5   -0.02295      0.99955     2.01016    0.01324     3.02295
      N    6   -0.32934      0.99965     2.81896    0.01073     3.82934
      C    7    0.41739      0.99970     1.55943    0.02348     2.58261
      O    8   -0.33198      0.99987     3.32688    0.00522     4.33198
      N    9   -0.33830      0.99965     2.82904    0.00961     3.83830
      C   10    0.05838      0.99942     1.93096    0.01124     2.94162
      C   11    0.12993      0.99928     1.85759    0.01320     2.87007
      C   12    0.13573      0.99933     1.85057    0.01437     2.86427
      C   13   -0.10922      0.99952     2.10098    0.00872     3.10922
      C   14   -0.10617      0.99958     2.09715    0.00944     3.10617
      C   15   -0.10528      0.99953     2.09699    0.00876     3.10528
      O   16   -0.27265      0.99987     3.26498    0.00780     4.27265
      C   17    0.15562      0.99962     1.82919    0.01557     2.84438
      O   18   -0.26648      0.99987     3.25893    0.00768     4.26648
      H   19    0.09934      0.00000     0.39888    0.00179     0.40066
      H   20    0.10818      0.00000     0.39051    0.00130     0.39182
      H   21    0.10007      0.00000     0.39794    0.00200     0.39993
      H   22    0.10585      0.00000     0.39217    0.00198     0.39415
      H   23    0.10018      0.00000     0.39757    0.00226     0.39982
      H   24    0.11241      0.00000     0.38555    0.00204     0.38759
      H   25    0.10719      0.00000     0.38995    0.00286     0.39281
      H   26    0.19419      0.00000     0.30358    0.00223     0.30581
      H   27    0.19788      0.00000     0.30023    0.00188     0.30212
      H   28    0.10547      0.00000     0.39360    0.00093     0.39453
      H   29    0.10084      0.00000     0.39825    0.00092     0.39916
      H   30    0.10485      0.00000     0.39402    0.00113     0.39515
      H   31    0.08248      0.00000     0.41534    0.00217     0.41752
      H   32    0.07674      0.00000     0.42066    0.00261     0.42326
 =======================================================================
   * Total *   -0.00000     21.99289    47.77450    0.23262    70.00000

 Normal termination of Gaussian 16 at Fri Dec 11 23:50:07 2020.
