 Gaussian 16, Revision A.03,

 -----------------------------------------------------------
 # opt freq B3LYP/6-31G(d) empiricaldispersion=gd3bj scf=xqc
 -----------------------------------------------------------

 ------------------------------
 CID_21044516_JID_5242_neutraal
 ------------------------------
 Symbolic Z-matrix:
 Charge =  0 Multiplicity = 1

 SCF Done:  E(RB3LYP) =  -1104.45327569     A.U. after   14 cycles
 SCF Done:  E(RB3LYP) =  -1104.46545637     A.U. after   15 cycles
 SCF Done:  E(RB3LYP) =  -1104.46815311     A.U. after   16 cycles
 SCF Done:  E(RB3LYP) =  -1104.46974226     A.U. after   16 cycles
 SCF Done:  E(RB3LYP) =  -1104.47188969     A.U. after   16 cycles
 SCF Done:  E(RB3LYP) =  -1104.47745837     A.U. after   15 cycles
 SCF Done:  E(RB3LYP) =  -1104.47973861     A.U. after   16 cycles
 SCF Done:  E(RB3LYP) =  -1104.48547173     A.U. after   15 cycles
 SCF Done:  E(RB3LYP) =  -1104.48785636     A.U. after   16 cycles
 SCF Done:  E(RB3LYP) =  -1104.48970741     A.U. after   17 cycles
 SCF Done:  E(RB3LYP) =  -1104.50078110     A.U. after   13 cycles
 SCF Done:  E(RB3LYP) =  -1104.50078191     A.U. after   12 cycles
 SCF Done:  E(RB3LYP) =  -1104.50078214     A.U. after    9 cycles
 SCF Done:  E(RB3LYP) =  -1104.50078240     A.U. after   10 cycles
 SCF Done:  E(RB3LYP) =  -1104.50078249     A.U. after    9 cycles
 SCF Done:  E(RB3LYP) =  -1104.50078253     A.U. after    8 cycles
 Optimization completed.
    -- Stationary point found.
 Normal termination of Gaussian 16 at Thu Dec 10 15:21:29 2020.

 --------------------------------------------------------------------
 #N Geom=AllCheck Guess=TCheck SCRF=Check GenChk RB3LYP/6-31G(d) Freq
 --------------------------------------------------------------------

 Structure from the checkpoint file:  "JID_5242.chk"
 ------------------------------
 CID_21044516_JID_5242_neutraal
 ------------------------------
 Charge =  0 Multiplicity = 1

 SCF Done:  E(RB3LYP) =  -1104.50078253     A.U. after    1 cycles

  Exact polarizability: 189.402 -12.556 142.583   0.686  -1.212 123.678
 Approx polarizability: 284.238 -60.869 318.961  -1.794 -23.189 229.243

                      1                      2                      3
                      A                      A                      A
 Frequencies --     18.0002                29.5853                36.3898
 Red. masses --      5.0779                 3.5628                 3.7835
 Frc consts  --      0.0010                 0.0018                 0.0030
 IR Inten    --      0.6509                 1.3666                 1.4571

                      4                      5                      6
                      A                      A                      A
 Frequencies --     57.2376                99.8875               104.5051
 Red. masses --      3.9904                 4.1486                 5.2135
 Frc consts  --      0.0077                 0.0244                 0.0335
 IR Inten    --      2.8853                 4.5754                 1.0345

                      7                      8                      9
                      A                      A                      A
 Frequencies --    135.5406               161.4216               173.9849
 Red. masses --      3.8235                 2.1685                 3.4457
 Frc consts  --      0.0414                 0.0333                 0.0615
 IR Inten    --      0.2929                 2.1750                 2.9285

                     10                     11                     12
                      A                      A                      A
 Frequencies --    189.1753               215.5383               231.5684
 Red. masses --      1.9601                 5.0118                 4.1795
 Frc consts  --      0.0413                 0.1372                 0.1320
 IR Inten    --      1.8800                10.8506                 2.5454

                     13                     14                     15
                      A                      A                      A
 Frequencies --    269.1781               297.9560               327.5451
 Red. masses --      1.1709                 4.6240                 2.5613
 Frc consts  --      0.0500                 0.2419                 0.1619
 IR Inten    --      0.3208                23.5459                48.0423

                     16                     17                     18
                      A                      A                      A
 Frequencies --    360.5513               366.6677               395.8660
 Red. masses --      5.3878                 2.5800                 2.8049
 Frc consts  --      0.4127                 0.2044                 0.2590
 IR Inten    --      7.0171                46.4307                43.0211

                     19                     20                     21
                      A                      A                      A
 Frequencies --    402.8967               424.6328               444.7246
 Red. masses --      2.5142                 3.2537                 5.0307
 Frc consts  --      0.2405                 0.3457                 0.5862
 IR Inten    --     57.7151                 0.5873                12.2735

                     22                     23                     24
                      A                      A                      A
 Frequencies --    493.2090               532.6397               571.8658
 Red. masses --      5.3327                 3.1492                 4.7123
 Frc consts  --      0.7643                 0.5264                 0.9080
 IR Inten    --     23.1842                16.8968                13.5471

                     25                     26                     27
                      A                      A                      A
 Frequencies --    580.0683               639.0365               674.2504
 Red. masses --      5.8385                 6.6541                 7.2219
 Frc consts  --      1.1575                 1.6010                 1.9344
 IR Inten    --     20.4149                63.5649                37.1217

                     28                     29                     30
                      A                      A                      A
 Frequencies --    720.4826               789.5471               827.4601
 Red. masses --      4.1513                 4.7359                 4.2647
 Frc consts  --      1.2696                 1.7394                 1.7204
 IR Inten    --      5.2324                93.6363                 5.5510

                     31                     32                     33
                      A                      A                      A
 Frequencies --    848.8054               852.2322               862.2146
 Red. masses --      1.3136                 1.6089                 4.7673
 Frc consts  --      0.5576                 0.6885                 2.0881
 IR Inten    --      9.7151                47.2604                71.7001

                     34                     35                     36
                      A                      A                      A
 Frequencies --    942.1218               963.5219               970.7490
 Red. masses --     16.2063                 1.2670                 1.3113
 Frc consts  --      8.4751                 0.6930                 0.7280
 IR Inten    --     52.9265                 2.8844                 0.1259

                     37                     38                     39
                      A                      A                      A
 Frequencies --    997.4533              1025.9697              1037.8741
 Red. masses --      1.5344                 1.6738                 2.9098
 Frc consts  --      0.8994                 1.0381                 1.8467
 IR Inten    --     26.3595                 0.8612                22.4674

                     40                     41                     42
                      A                      A                      A
 Frequencies --   1071.8812              1096.9615              1142.8370
 Red. masses --      5.4105                 1.2228                 1.3671
 Frc consts  --      3.6625                 0.8669                 1.0520
 IR Inten    --     71.6396                 4.1244                73.3755

                     43                     44                     45
                      A                      A                      A
 Frequencies --   1148.2890              1176.9584              1200.7342
 Red. masses --      1.5416                 1.4812                 1.4003
 Frc consts  --      1.1976                 1.2089                 1.1895
 IR Inten    --    193.7819                 7.5849                79.1193

                     46                     47                     48
                      A                      A                      A
 Frequencies --   1214.0069              1231.0276              1241.7594
 Red. masses --      1.1757                 2.0867                 3.5744
 Frc consts  --      1.0209                 1.8631                 3.2474
 IR Inten    --     10.8121                99.6353               106.7659

                     49                     50                     51
                      A                      A                      A
 Frequencies --   1291.9209              1333.6957              1342.2257
 Red. masses --      3.4624                 1.6019                 2.6125
 Frc consts  --      3.4049                 1.6788                 2.7730
 IR Inten    --      0.5504                 3.9129                 4.6864

                     52                     53                     54
                      A                      A                      A
 Frequencies --   1394.2582              1420.2331              1434.2849
 Red. masses --      1.5102                 2.1258                 1.3453
 Frc consts  --      1.7297                 2.5263                 1.6306
 IR Inten    --      3.0561               203.5540                95.8060

                     55                     56                     57
                      A                      A                      A
 Frequencies --   1447.3194              1467.9184              1481.0224
 Red. masses --      1.1832                 2.5719                 1.2293
 Frc consts  --      1.4603                 3.2652                 1.5886
 IR Inten    --      5.6625                12.8897                12.5930

                     58                     59                     60
                      A                      A                      A
 Frequencies --   1489.2352              1508.9079              1512.7053
 Red. masses --      1.0688                 1.0689                 1.0551
 Frc consts  --      1.3966                 1.4339                 1.4225
 IR Inten    --      2.2171                18.0060                 2.9286

                     61                     62                     63
                      A                      A                      A
 Frequencies --   1532.6058              1548.6509              1557.7213
 Red. masses --      1.1104                 1.6227                 1.8128
 Frc consts  --      1.5367                 2.2929                 2.5916
 IR Inten    --      5.2645               130.9869                46.3904

                     64                     65                     66
                      A                      A                      A
 Frequencies --   1637.4702              1667.9745              2999.1385
 Red. masses --      6.7191                 5.7354                 1.0711
 Frc consts  --     10.6147                 9.4014                 5.6763
 IR Inten    --     10.3619                48.2007                64.9887

                     67                     68                     69
                      A                      A                      A
 Frequencies --   3021.0597              3042.3538              3077.6238
 Red. masses --      1.0459                 1.0431                 1.0923
 Frc consts  --      5.6244                 5.6883                 6.0959
 IR Inten    --     21.7061                19.2736                30.5224

                     70                     71                     72
                      A                      A                      A
 Frequencies --   3115.9513              3126.7860              3177.9909
 Red. masses --      1.0894                 1.0928                 1.1036
 Frc consts  --      6.2318                 6.2949                 6.5670
 IR Inten    --     10.9510                24.3562                 2.5671

                     73                     74                     75
                      A                      A                      A
 Frequencies --   3178.3446              3187.9330              3202.2573
 Red. masses --      1.0897                 1.1044                 1.0874
 Frc consts  --      6.4858                 6.6131                 6.5696
 IR Inten    --     17.3288                 3.4992                 3.8757

                     76                     77                     78
                      A                      A                      A
 Frequencies --   3217.7878              3237.7735              3731.2130
 Red. masses --      1.0944                 1.0927                 1.0660
 Frc consts  --      6.6767                 6.7492                 8.7437
 IR Inten    --      7.6413                 0.1319                 8.0215

 - Thermochemistry -
 -------------------
 Temperature   298.150 Kelvin.  Pressure   1.00000 Atm.
 Atom     1 has atomic number  6 and mass  12.00000

 Molecular mass:   231.05653 amu.
 Principal axes and moments of inertia in atomic units:
                           1         2         3
     Eigenvalues --  1828.539827122.834967652.41609
           X            0.99989  -0.01138   0.00967
           Y            0.01125   0.99984   0.01359
           Z           -0.00982  -0.01347   0.99986
 This molecule is an asymmetric top.
 Rotational symmetry number  1.
 Warning -- assumption of classical behavior for rotation
           may cause significant error
 Rotational temperatures (Kelvin)      0.04737     0.01216     0.01132
 Rotational constants (GHZ):           0.98698     0.25337     0.23584
 Zero-point vibrational energy     574094.9 (Joules/Mol)
                                  137.21197 (Kcal/Mol)
 Warning -- explicit consideration of  25 degrees of freedom as
           vibrations may cause significant error
 Vibrational temperatures:     25.90    42.57    52.36    82.35   143.72
          (Kelvin)            150.36   195.01   232.25   250.33   272.18
                              310.11   333.18   387.29   428.69   471.26
                              518.75   527.55   569.56   579.68   610.95
                              639.86   709.62   766.35   822.79   834.59
                              919.43   970.10  1036.61  1135.98  1190.53
                             1221.24  1226.17  1240.53  1355.50  1386.29
                             1396.69  1435.11  1476.14  1493.27  1542.20
                             1578.28  1644.29  1652.13  1693.38  1727.59
                             1746.69  1771.17  1786.61  1858.79  1918.89
                             1931.16  2006.03  2043.40  2063.62  2082.37
                             2112.01  2130.86  2142.68  2170.98  2176.45
                             2205.08  2228.16  2241.21  2355.95  2399.84
                             4315.09  4346.63  4377.27  4428.01  4483.16
                             4498.75  4572.42  4572.93  4586.72  4607.33
                             4629.68  4658.43  5368.38

 Zero-point correction=                           0.218661 (Hartree/Particle)
 Thermal correction to Energy=                    0.235077
 Thermal correction to Enthalpy=                  0.236022
 Thermal correction to Gibbs Free Energy=         0.172284
 Sum of electronic and zero-point Energies=          -1104.282121
 Sum of electronic and thermal Energies=             -1104.265705
 Sum of electronic and thermal Enthalpies=           -1104.264761
 Sum of electronic and thermal Free Energies=        -1104.328499

                     E (Thermal)             CV                S
                      KCal/Mol        Cal/Mol-Kelvin    Cal/Mol-Kelvin
 Total                  147.513             58.854            134.147
 Electronic               0.000              0.000              0.000
 Translational            0.889              2.981             42.214
 Rotational               0.889              2.981             32.966
 Vibrational            145.736             52.892             58.967
 Vibration     1          0.593              1.986              6.843
 Vibration     2          0.593              1.984              5.857
 Vibration     3          0.594              1.982              5.447
 Vibration     4          0.596              1.975              4.550
 Vibration     5          0.604              1.949              3.457
 Vibration     6          0.605              1.946              3.369
 Vibration     7          0.613              1.918              2.866
 Vibration     8          0.622              1.890              2.533
 Vibration     9          0.627              1.874              2.392
 Vibration    10          0.633              1.855              2.236
 Vibration    11          0.645              1.817              1.996
 Vibration    12          0.653              1.793              1.867
 Vibration    13          0.674              1.730              1.601
 Vibration    14          0.691              1.678              1.428
 Vibration    15          0.711              1.620              1.272
 Vibration    16          0.735              1.554              1.120
 Vibration    17          0.740              1.541              1.094
 Vibration    18          0.763              1.479              0.978
 Vibration    19          0.768              1.464              0.952
 Vibration    20          0.787              1.417              0.876
 Vibration    21          0.804              1.373              0.812
 Vibration    22          0.849              1.265              0.675
 Vibration    23          0.888              1.178              0.581
 Vibration    24          0.928              1.092              0.501
 Vibration    25          0.937              1.074              0.485

 Optimization completed.
    -- Stationary point found.
 Normal termination of Gaussian 16 at Thu Dec 10 15:29:55 2020.

 ----------------------------------------------------------------------
 # B3LYP/6-311++G(d,p) empiricaldispersion=gd3bj scf=xqc pop=npa geom=c
 heck
 ----------------------------------------------------------------------

 --------------------------------------
 CID_21044516_JID_5242_Energie_neutraal
 --------------------------------------
 Structure from the checkpoint file:  "JID_5242.chk"
 Charge =  0 Multiplicity = 1

 SCF Done:  E(RB3LYP) =  -1104.74105558     A.U. after   17 cycles
 Normal termination of Gaussian 16 at Thu Dec 10 15:34:40 2020.

 ----------------------------------------------------------------------
 # B3LYP/6-311++G(d,p) empiricaldispersion=gd3bj scf=xqc pop=npa geom=c
 heck
 ----------------------------------------------------------------------

 ------------------------------------
 CID_21044516_JID_5242_Energie_kation
 ------------------------------------
 Structure from the checkpoint file:  "JID_5242.chk"
 Charge =  1 Multiplicity = 2

 SCF Done:  E(UB3LYP) =  -1104.46979465     A.U. after   30 cycles
 Normal termination of Gaussian 16 at Thu Dec 10 15:46:16 2020.
 Gaussian 16:  ES64L-G16RevA.03 25-Dec-2016

 ----------------------------------------------------------------------
 # B3LYP/6-311++G(d,p) empiricaldispersion=gd3bj scf=xqc pop=npa geom=c
 heck
 ----------------------------------------------------------------------

 -----------------------------------
 CID_21044516_JID_5242_Energie_anion
 -----------------------------------
 Structure from the checkpoint file:  "JID_5242.chk"
 Charge = -1 Multiplicity = 2

                         Standard orientation:
 ---------------------------------------------------------------------
 Center     Atomic      Atomic             Coordinates (Angstroms)
 Number     Number       Type             X           Y           Z
 ---------------------------------------------------------------------
      1          6           0        2.329703   -2.434361   -0.454616
      2          7           0        3.123456   -1.415159    0.224560
      3          6           0        2.782344   -1.078855    1.601963
      4          8           0        3.701823   -0.554859   -0.494300
      5          8           0        2.352586    0.713401   -1.226887
      6         16           0        1.929618    1.838611   -0.252919
      7          8           0        0.785240    1.169883    0.841355
      8          6           0       -0.473222    0.796674    0.392041
      9          6           0       -1.493741    0.825449    1.346566
     10          6           0       -2.778631    0.425187    0.994617
     11          6           0       -3.065077   -0.007644   -0.306757
     12          6           0       -2.027529   -0.039816   -1.241821
     13          6           0       -0.731066    0.355261   -0.908265
     14          6           0       -4.473299   -0.412517   -0.683706
     15          8           0       -5.155699   -1.109120    0.353870
     16          1           0        1.322150   -2.040599   -0.646528
     17          1           0        2.258874   -3.327045    0.172550
     18          1           0        2.819269   -2.663182   -1.401297
     19          1           0        3.546566   -0.394198    1.972773
     20          1           0        1.804621   -0.575921    1.642421
     21          1           0        2.758795   -1.995264    2.198465
     22          1           0       -1.264166    1.171058    2.349445
     23          1           0       -3.576014    0.443627    1.731460
     24          1           0       -2.228346   -0.387054   -2.252968
     25          1           0        0.069060    0.310984   -1.637083
     26          1           0       -5.090048    0.472955   -0.877061
     27          1           0       -4.452883   -0.998416   -1.616648
     28          1           0       -4.594440   -1.859328    0.606806
 ---------------------------------------------------------------------

 SCF Done:  E(UB3LYP) =  -1104.78965997     A.U. after   26 cycles

 The electronic state is 2-A.
 Alpha  occ. eigenvalues --  -88.73474 -19.04469 -19.00957 -18.95409 -18.91521
 Alpha  occ. eigenvalues --  -14.22489 -10.13542 -10.11522 -10.07378 -10.07190
 Alpha  occ. eigenvalues --  -10.07151 -10.06406 -10.06360 -10.05492 -10.05369
 Alpha  occ. eigenvalues --   -7.81323  -5.78023  -5.77383  -5.76487  -0.94497
 Alpha  occ. eigenvalues --   -0.94375  -0.91162  -0.81046  -0.74848  -0.68215
 Alpha  occ. eigenvalues --   -0.65766  -0.64210  -0.58960  -0.58169  -0.51639
 Alpha  occ. eigenvalues --   -0.50211  -0.46403  -0.45478  -0.42926  -0.39022
 Alpha  occ. eigenvalues --   -0.36561  -0.35780  -0.35272  -0.34635  -0.34263
 Alpha  occ. eigenvalues --   -0.33681  -0.32182  -0.31697  -0.29871  -0.28896
 Alpha  occ. eigenvalues --   -0.27097  -0.26870  -0.26174  -0.25378  -0.24413
 Alpha  occ. eigenvalues --   -0.23875  -0.22906  -0.22535  -0.20203  -0.18216
 Alpha  occ. eigenvalues --   -0.15549  -0.14941  -0.11745  -0.10966  -0.10054
 Alpha  occ. eigenvalues --   -0.03216   0.01749
 Alpha virt. eigenvalues --    0.06602   0.08413   0.08624   0.08847   0.09023
 Alpha virt. eigenvalues --    0.09740   0.10742   0.10970   0.12132   0.12615
 Alpha virt. eigenvalues --    0.12805   0.14004   0.14230   0.14927   0.15154

  Beta  occ. eigenvalues --  -88.73460 -19.04469 -19.00959 -18.93740 -18.90988
  Beta  occ. eigenvalues --  -14.21869 -10.13542 -10.11511 -10.07376 -10.07190
  Beta  occ. eigenvalues --  -10.07148 -10.06409 -10.06388 -10.05488 -10.05399
  Beta  occ. eigenvalues --   -7.81311  -5.78020  -5.77371  -5.76443  -0.94497
  Beta  occ. eigenvalues --   -0.92157  -0.91077  -0.80226  -0.74832  -0.66675
  Beta  occ. eigenvalues --   -0.65741  -0.64205  -0.58847  -0.58141  -0.51547
  Beta  occ. eigenvalues --   -0.50145  -0.46137  -0.44552  -0.42919  -0.38924
  Beta  occ. eigenvalues --   -0.36306  -0.35769  -0.34972  -0.34208  -0.33419
  Beta  occ. eigenvalues --   -0.32878  -0.31721  -0.31686  -0.29622  -0.28840
  Beta  occ. eigenvalues --   -0.26860  -0.26172  -0.26110  -0.25267  -0.24279
  Beta  occ. eigenvalues --   -0.23612  -0.22474  -0.20208  -0.19433  -0.17927
  Beta  occ. eigenvalues --   -0.15176  -0.13040  -0.11251  -0.10552  -0.08685
  Beta  occ. eigenvalues --   -0.00107
  Beta virt. eigenvalues --    0.06599   0.08410   0.08616   0.08847   0.09017
  Beta virt. eigenvalues --    0.09693   0.10750   0.10966   0.12090   0.12551
  Beta virt. eigenvalues --    0.12693   0.13096   0.14050   0.14244   0.15039

 Mulliken charges and spin densities:
               1          2
     1  C   -0.343613  -0.018896
     2  N   -0.200064   0.256254
     3  C   -0.392622  -0.023512
     4  O   -0.078535   0.531759
     5  O   -0.381734   0.134309
     6  S    0.050231   0.048499
     7  O   -0.178764  -0.004969
     8  C   -0.577057  -0.024906
     9  C   -0.624117  -0.025272
    10  C    0.048075  -0.006232
    11  C    0.755658   0.030997
    12  C   -0.836524   0.021715
    13  C    0.443095   0.012157
    14  C   -0.447802   0.000390
    15  O   -0.246072  -0.000243
    16  H    0.115000   0.039361
    17  H    0.091626   0.002774
    18  H    0.133030  -0.000107
    19  H    0.114228  -0.002620
    20  H    0.233444   0.025473
    21  H    0.082906   0.003466
    22  H    0.162187  -0.000891
    23  H    0.157658  -0.000096
    24  H    0.130846  -0.002601
    25  H    0.243580   0.001530
    26  H    0.141750   0.001248
    27  H    0.179221   0.000408
    28  H    0.224368   0.000004
 Sum of Mulliken charges =  -1.00000   1.00000

 Dipole moment (field-independent basis, Debye):
    X=             -7.3903    Y=             -3.5519    Z=              1.7989  Tot=              8.3945
 Quadrupole moment (field-independent basis, Debye-Ang):
   XX=           -160.6143   YY=           -107.8914   ZZ=           -104.0243
   XY=             -3.9917   XZ=             10.7307   YZ=              1.8059

 Summary of Natural Population Analysis:

                                       Natural Population
                Natural  -----------------------------------------------
    Atom  No    Charge         Core      Valence    Rydberg      Total
 -----------------------------------------------------------------------
      C    1   -0.19570      0.99965     2.18980    0.00625     3.19570
      N    2    0.06528      0.99974     2.41347    0.02151     3.43472
      C    3   -0.20218      0.99964     2.19585    0.00669     3.20218
      O    4    0.07851      0.99990     2.91140    0.01019     3.92149
      O    5   -0.37353      0.99993     3.36029    0.01332     4.37353
      S    6    0.34347      4.99967     2.60605    0.05080     7.65653
      O    7   -0.36391      0.99988     3.34816    0.01588     4.36391
      C    8    0.16807      0.99938     1.81563    0.01692     2.83193
      C    9   -0.12256      0.99952     2.11396    0.00908     3.12256
      C   10   -0.10332      0.99953     2.09505    0.00874     3.10332
      C   11   -0.06473      0.99950     2.05693    0.00830     3.06473
      C   12   -0.09705      0.99953     2.08895    0.00857     3.09705
      C   13   -0.13384      0.99951     2.12338    0.01096     3.13384
      C   14   -0.01266      0.99957     2.00077    0.01233     3.01266
      O   15   -0.36966      0.99990     3.36338    0.00637     4.36966
      H   16    0.09873      0.00000     0.39970    0.00157     0.40127
      H   17    0.08277      0.00000     0.41619    0.00104     0.41723
      H   18    0.10051      0.00000     0.39828    0.00122     0.39949
      H   19    0.10211      0.00000     0.39623    0.00166     0.39789
      H   20    0.10682      0.00000     0.39107    0.00210     0.39318
      H   21    0.08121      0.00000     0.41785    0.00094     0.41879
      H   22    0.10329      0.00000     0.39533    0.00139     0.39671
      H   23    0.10055      0.00000     0.39821    0.00124     0.39945
      H   24    0.09461      0.00000     0.40423    0.00116     0.40539
      H   25    0.12732      0.00000     0.37030    0.00238     0.37268
      H   26    0.08536      0.00000     0.41321    0.00143     0.41464
      H   27    0.07504      0.00000     0.42343    0.00153     0.42496
      H   28    0.22551      0.00000     0.27164    0.00286     0.27449
 =======================================================================
   * Total *   -0.00000     18.99485    41.77873    0.22642    61.00000

 Normal termination of Gaussian 16 at Thu Dec 10 15:56:40 2020.
