 Gaussian 16, Revision A.03,

 -----------------------------------------------------------
 # opt freq B3LYP/6-31G(d) empiricaldispersion=gd3bj scf=xqc
 -----------------------------------------------------------

 ------------------------------
 CID_63654820_JID_1395_neutraal
 ------------------------------
 Symbolic Z-matrix:
 Charge =  0 Multiplicity = 1

 SCF Done:  E(RB3LYP) =  -804.864728981     A.U. after   14 cycles
 SCF Done:  E(RB3LYP) =  -804.884286783     A.U. after   12 cycles
 SCF Done:  E(RB3LYP) =  -804.885501589     A.U. after   13 cycles
 SCF Done:  E(RB3LYP) =  -804.876528753     A.U. after   14 cycles
 SCF Done:  E(RB3LYP) =  -804.885774740     A.U. after   11 cycles
 SCF Done:  E(RB3LYP) =  -804.884850108     A.U. after   13 cycles
 SCF Done:  E(RB3LYP) =  -804.885357498     A.U. after   12 cycles
 SCF Done:  E(RB3LYP) =  -804.885965938     A.U. after    8 cycles
 SCF Done:  E(RB3LYP) =  -804.885980984     A.U. after   11 cycles
 SCF Done:  E(RB3LYP) =  -804.886065713     A.U. after   10 cycles
 SCF Done:  E(RB3LYP) =  -804.887453425     A.U. after   10 cycles
 SCF Done:  E(RB3LYP) =  -804.887456019     A.U. after   10 cycles
 SCF Done:  E(RB3LYP) =  -804.887456301     A.U. after    8 cycles
 SCF Done:  E(RB3LYP) =  -804.887456171     A.U. after    7 cycles
 SCF Done:  E(RB3LYP) =  -804.887456053     A.U. after    7 cycles
 SCF Done:  E(RB3LYP) =  -804.887455972     A.U. after    7 cycles
 Optimization completed.
    -- Stationary point found.
 Normal termination of Gaussian 16 at Tue Dec  8 20:17:54 2020.

 --------------------------------------------------------------------
 #N Geom=AllCheck Guess=TCheck SCRF=Check GenChk RB3LYP/6-31G(d) Freq
 --------------------------------------------------------------------

 Structure from the checkpoint file:  "JID_1395.chk"
 ------------------------------
 CID_63654820_JID_1395_neutraal
 ------------------------------
 Charge =  0 Multiplicity = 1

 SCF Done:  E(RB3LYP) =  -804.887455972     A.U. after    1 cycles

  Exact polarizability: 109.716   1.805 123.726  -4.818   2.057  96.290
 Approx polarizability: 146.019   2.881 194.000  -7.596   3.072 143.170

                      1                      2                      3
                      A                      A                      A
 Frequencies --     22.8075                25.9196                96.6346
 Red. masses --      3.9389                 6.6040                 3.6582
 Frc consts  --      0.0012                 0.0026                 0.0201
 IR Inten    --      0.1153                 0.2565                 2.4438

                      4                      5                      6
                      A                      A                      A
 Frequencies --    101.7967               151.1968               201.4518
 Red. masses --      3.0973                 3.2433                 2.1408
 Frc consts  --      0.0189                 0.0437                 0.0512
 IR Inten    --      2.1813                 0.8167                 0.2117

                      7                      8                      9
                      A                      A                      A
 Frequencies --    251.4015               283.4814               320.9662
 Red. masses --      2.6105                 5.0022                 3.2440
 Frc consts  --      0.0972                 0.2368                 0.1969
 IR Inten    --      1.1815                 0.3227                 0.9937

                     10                     11                     12
                      A                      A                      A
 Frequencies --    328.9927               351.1527               422.8739
 Red. masses --      3.2469                 2.6193                 2.4391
 Frc consts  --      0.2071                 0.1903                 0.2570
 IR Inten    --      0.9804                 2.3207                 1.0149

                     13                     14                     15
                      A                      A                      A
 Frequencies --    439.9438               479.5996               515.4577
 Red. masses --      1.9114                 2.2561                 1.8622
 Frc consts  --      0.2180                 0.3057                 0.2915
 IR Inten    --      0.3804                 2.6066                 0.2581

                     16                     17                     18
                      A                      A                      A
 Frequencies --    566.9884               591.4844               616.1928
 Red. masses --      3.3798                 1.2060                 1.2304
 Frc consts  --      0.6402                 0.2486                 0.2752
 IR Inten    --      2.3045                50.8082                47.6403

                     19                     20                     21
                      A                      A                      A
 Frequencies --    621.9785               685.5488               731.1122
 Red. masses --      3.5829                 4.6153                 2.5868
 Frc consts  --      0.8167                 1.2780                 0.8147
 IR Inten    --      8.6633                 1.7893                 3.2997

                     22                     23                     24
                      A                      A                      A
 Frequencies --    829.2558               836.6357               885.4333
 Red. masses --      2.1069                 1.7818                 2.2045
 Frc consts  --      0.8536                 0.7348                 1.0183
 IR Inten    --      0.2487                 2.7878                 5.0506

                     25                     26                     27
                      A                      A                      A
 Frequencies --    890.6957               930.7800               959.1271
 Red. masses --      1.8155                 2.4454                 2.0751
 Frc consts  --      0.8486                 1.2482                 1.1247
 IR Inten    --      6.1314                 0.6181                15.0837

                     28                     29                     30
                      A                      A                      A
 Frequencies --    996.4723              1020.3223              1039.1894
 Red. masses --      2.0599                 2.3850                 1.9650
 Frc consts  --      1.2051                 1.4629                 1.2502
 IR Inten    --      4.1966                 3.8853                12.3560

                     31                     32                     33
                      A                      A                      A
 Frequencies --   1057.5190              1071.2914              1083.5680
 Red. masses --      2.0284                 2.0995                 2.1457
 Frc consts  --      1.3365                 1.4197                 1.4843
 IR Inten    --      5.5438                 7.4006                 6.6755

                     34                     35                     36
                      A                      A                      A
 Frequencies --   1162.3532              1194.6141              1210.2286
 Red. masses --      1.5028                 1.6536                 1.1616
 Frc consts  --      1.1963                 1.3904                 1.0024
 IR Inten    --     47.9505                26.8241                 3.0920

                     37                     38                     39
                      A                      A                      A
 Frequencies --   1243.6088              1253.8412              1265.6992
 Red. masses --      1.2396                 1.2708                 1.3051
 Frc consts  --      1.1296                 1.1771                 1.2319
 IR Inten    --      8.0979                13.4525                11.6581

                     40                     41                     42
                      A                      A                      A
 Frequencies --   1296.9756              1331.1472              1343.6525
 Red. masses --      1.2449                 1.2274                 1.6536
 Frc consts  --      1.2338                 1.2814                 1.7590
 IR Inten    --      1.0161                21.1664                12.5334

                     43                     44                     45
                      A                      A                      A
 Frequencies --   1358.2934              1384.5683              1396.1217
 Red. masses --      1.2835                 1.3779                 1.3841
 Frc consts  --      1.3952                 1.5563                 1.5895
 IR Inten    --     11.4947                18.5524                30.3383

                     46                     47                     48
                      A                      A                      A
 Frequencies --   1407.3737              1419.2733              1426.9591
 Red. masses --      1.3586                 1.3072                 1.4933
 Frc consts  --      1.5855                 1.5514                 1.7915
 IR Inten    --     27.0098                 7.1371                38.7289

                     49                     50                     51
                      A                      A                      A
 Frequencies --   1445.1239              1492.2780              1496.9492
 Red. masses --      1.3025                 1.0897                 1.0958
 Frc consts  --      1.6027                 1.4297                 1.4468
 IR Inten    --     12.5175                 6.1956                 2.4311

                     52                     53                     54
                      A                      A                      A
 Frequencies --   1499.9453              1504.5701              1509.6815
 Red. masses --      1.1032                 1.0889                 1.0882
 Frc consts  --      1.4624                 1.4524                 1.4613
 IR Inten    --      7.6035                 3.9105                 8.2002

                     55                     56                     57
                      A                      A                      A
 Frequencies --   1515.4309              1528.6829              2242.5031
 Red. masses --      1.0847                 1.1227                 5.9820
 Frc consts  --      1.4677                 1.5458                17.7241
 IR Inten    --      4.8624                10.9420                 1.4336

                     58                     59                     60
                      A                      A                      A
 Frequencies --   2927.5803              2967.7271              3004.6064
 Red. masses --      1.0731                 1.0716                 1.0593
 Frc consts  --      5.4189                 5.5605                 5.6342
 IR Inten    --     79.3494                92.3943                55.8492

                     61                     62                     63
                      A                      A                      A
 Frequencies --   3020.9541              3031.4074              3042.6933
 Red. masses --      1.0678                 1.0595                 1.1003
 Frc consts  --      5.7414                 5.7367                 6.0018
 IR Inten    --     49.1707                33.9873                16.5656

                     64                     65                     66
                      A                      A                      A
 Frequencies --   3060.3285              3061.6463              3063.0863
 Red. masses --      1.0619                 1.0644                 1.1009
 Frc consts  --      5.8598                 5.8785                 6.0858
 IR Inten    --     41.2163                48.2740                11.8812

                     67                     68                     69
                      A                      A                      A
 Frequencies --   3078.8167              3096.6318              3099.0401
 Red. masses --      1.0882                 1.0957                 1.0923
 Frc consts  --      6.0774                 6.1902                 6.1811
 IR Inten    --     30.5740                27.1353                31.9691

                     70                     71                     72
                      A                      A                      A
 Frequencies --   3108.9207              3124.3729              3496.5132
 Red. masses --      1.1029                 1.1043                 1.1599
 Frc consts  --      6.2806                 6.3510                 8.3548
 IR Inten    --     22.6615                 8.4530                50.7816

 - Thermochemistry -
 -------------------
 Temperature   298.150 Kelvin.  Pressure   1.00000 Atm.
 Atom     1 has atomic number  6 and mass  12.00000

 Molecular mass:   169.09252 amu.
 Principal axes and moments of inertia in atomic units:
                           1         2         3
     Eigenvalues --  1454.665162342.848732849.23211
           X            0.99989  -0.01411  -0.00513
           Y            0.01429   0.99918   0.03780
           Z            0.00460  -0.03787   0.99927
 This molecule is an asymmetric top.
 Rotational symmetry number  1.
 Warning -- assumption of classical behavior for rotation
           may cause significant error
 Rotational temperatures (Kelvin)      0.05954     0.03697     0.03040
 Rotational constants (GHZ):           1.24066     0.77032     0.63341
 Zero-point vibrational energy     595270.6 (Joules/Mol)
                                  142.27309 (Kcal/Mol)
 Warning -- explicit consideration of  18 degrees of freedom as
           vibrations may cause significant error
 Vibrational temperatures:     32.81    37.29   139.04   146.46   217.54
          (Kelvin)            289.84   361.71   407.87   461.80   473.35
                              505.23   608.42   632.98   690.04   741.63
                              815.77   851.01   886.56   894.89   986.35
                             1051.91  1193.11  1203.73  1273.94  1281.51
                             1339.18  1379.97  1433.70  1468.02  1495.16
                             1521.53  1541.35  1559.01  1672.37  1718.78
                             1741.25  1789.28  1804.00  1821.06  1866.06
                             1915.22  1933.22  1954.28  1992.09  2008.71
                             2024.90  2042.02  2053.08  2079.21  2147.06
                             2153.78  2158.09  2164.74  2172.09  2180.37
                             2199.43  3226.46  4212.14  4269.90  4322.96
                             4346.48  4361.52  4377.76  4403.13  4405.03
                             4407.10  4429.73  4455.36  4458.83  4473.04
                             4495.28  5030.70

 Zero-point correction=                           0.226727 (Hartree/Particle)
 Thermal correction to Energy=                    0.238690
 Thermal correction to Enthalpy=                  0.239634
 Thermal correction to Gibbs Free Energy=         0.187166
 Sum of electronic and zero-point Energies=           -804.660729
 Sum of electronic and thermal Energies=              -804.648766
 Sum of electronic and thermal Enthalpies=            -804.647822
 Sum of electronic and thermal Free Energies=         -804.700290

                     E (Thermal)             CV                S
                      KCal/Mol        Cal/Mol-Kelvin    Cal/Mol-Kelvin
 Total                  149.780             44.855            110.428
 Electronic               0.000              0.000              0.000
 Translational            0.889              2.981             41.284
 Rotational               0.889              2.981             30.652
 Vibrational            148.003             38.893             38.492
 Vibration     1          0.593              1.985              6.373
 Vibration     2          0.593              1.985              6.120
 Vibration     3          0.603              1.952              3.521
 Vibration     4          0.604              1.948              3.420
 Vibration     5          0.619              1.901              2.657
 Vibration     6          0.638              1.838              2.120
 Vibration     7          0.663              1.760              1.721
 Vibration     8          0.682              1.704              1.513
 Vibration     9          0.706              1.633              1.305
 Vibration    10          0.712              1.618              1.265
 Vibration    11          0.728              1.573              1.161
 Vibration    12          0.785              1.421              0.882
 Vibration    13          0.800              1.383              0.827
 Vibration    14          0.836              1.295              0.711
 Vibration    15          0.870              1.216              0.621
 Vibration    16          0.923              1.103              0.510
 Vibration    17          0.949              1.050              0.465
 Vibration    18          0.976              0.998              0.423

 Optimization completed.
    -- Stationary point found.
 Normal termination of Gaussian 16 at Tue Dec  8 20:24:40 2020.

 ----------------------------------------------------------------------
 # B3LYP/6-311++G(d,p) empiricaldispersion=gd3bj scf=xqc pop=npa geom=c
 heck
 ----------------------------------------------------------------------

 --------------------------------------
 CID_63654820_JID_1395_Energie_neutraal
 --------------------------------------
 Structure from the checkpoint file:  "JID_1395.chk"
 Charge =  0 Multiplicity = 1

 SCF Done:  E(RB3LYP) =  -805.029080352     A.U. after   14 cycles
 Normal termination of Gaussian 16 at Tue Dec  8 20:28:50 2020.

 ----------------------------------------------------------------------
 # B3LYP/6-311++G(d,p) empiricaldispersion=gd3bj scf=xqc pop=npa geom=c
 heck
 ----------------------------------------------------------------------

 ------------------------------------
 CID_63654820_JID_1395_Energie_kation
 ------------------------------------
 Structure from the checkpoint file:  "JID_1395.chk"
 Charge =  1 Multiplicity = 2

 SCF Done:  E(UB3LYP) =  -804.754683497     A.U. after   21 cycles
 Normal termination of Gaussian 16 at Tue Dec  8 20:37:15 2020.
 Gaussian 16:  ES64L-G16RevA.03 25-Dec-2016

 ----------------------------------------------------------------------
 # B3LYP/6-311++G(d,p) empiricaldispersion=gd3bj scf=xqc pop=npa geom=c
 heck
 ----------------------------------------------------------------------

 -----------------------------------
 CID_63654820_JID_1395_Energie_anion
 -----------------------------------
 Structure from the checkpoint file:  "JID_1395.chk"
 Charge = -1 Multiplicity = 2

                         Standard orientation:
 ---------------------------------------------------------------------
 Center     Atomic      Atomic             Coordinates (Angstroms)
 Number     Number       Type             X           Y           Z
 ---------------------------------------------------------------------
      1          6           0        2.282419   -2.135674    0.763919
      2          6           0        2.445919   -0.943527    0.663698
      3          6           0        2.632118    0.495789    0.504244
      4          6           0        1.848461    1.062676   -0.703748
      5          7           0        0.419745    0.900388   -0.568933
      6          6           0       -0.303846    1.900950    0.190819
      7          6           0       -1.280862    1.315287    1.216384
      8          6           0       -2.358863    0.396043    0.628844
      9         16           0       -1.828664   -1.320913    0.250510
     10          6           0       -0.786043   -1.178425   -1.265210
     11          6           0       -0.321696    0.236525   -1.619169
     12          1           0        2.128172   -3.184031    0.879515
     13          1           0        2.304955    1.013967    1.415617
     14          1           0        3.699328    0.728325    0.380616
     15          1           0        2.132170    2.122795   -0.824359
     16          1           0        2.179885    0.538086   -1.605402
     17          1           0        0.425422    2.522213    0.723011
     18          1           0       -0.859151    2.580027   -0.485520
     19          1           0       -1.783049    2.155220    1.719726
     20          1           0       -0.719868    0.760038    1.975881
     21          1           0       -2.840885    0.851455   -0.243740
     22          1           0       -3.148091    0.238948    1.371583
     23          1           0       -1.340855   -1.596612   -2.112923
     24          1           0        0.090910   -1.803090   -1.073615
     25          1           0       -1.191265    0.848894   -1.900167
     26          1           0        0.297083    0.157799   -2.524542
 ---------------------------------------------------------------------

 SCF Done:  E(UB3LYP) =  -805.012046335     A.U. after   31 cycles

 The electronic state is 2-A.
 Alpha  occ. eigenvalues --  -88.72636 -14.19377 -10.09865 -10.09718 -10.09220
 Alpha  occ. eigenvalues --  -10.08830 -10.08793 -10.08648 -10.07459 -10.06171
 Alpha  occ. eigenvalues --  -10.05992  -7.81242  -5.77659  -5.77267  -5.76599
 Alpha  occ. eigenvalues --   -0.82536  -0.70801  -0.68622  -0.67626  -0.62960
 Alpha  occ. eigenvalues --   -0.58496  -0.56814  -0.53369  -0.46820  -0.45800
 Alpha  occ. eigenvalues --   -0.43219  -0.39345  -0.38846  -0.36268  -0.35452
 Alpha  occ. eigenvalues --   -0.35036  -0.32106  -0.31889  -0.30569  -0.29638
 Alpha  occ. eigenvalues --   -0.29211  -0.27112  -0.25601  -0.24676  -0.23893
 Alpha  occ. eigenvalues --   -0.22503  -0.19463  -0.17464  -0.17226  -0.11534
 Alpha  occ. eigenvalues --   -0.10119   0.04877
 Alpha virt. eigenvalues --    0.06939   0.07403   0.07785   0.09018   0.09370
 Alpha virt. eigenvalues --    0.09700   0.10384   0.10560   0.11928   0.12263
 Alpha virt. eigenvalues --    0.12549   0.13062   0.13211   0.13500   0.14361

  Beta  occ. eigenvalues --  -88.72635 -14.19344 -10.09844 -10.09683 -10.09194
  Beta  occ. eigenvalues --  -10.08822 -10.08765 -10.08616 -10.07457 -10.06147
  Beta  occ. eigenvalues --  -10.05976  -7.81241  -5.77656  -5.77265  -5.76598
  Beta  occ. eigenvalues --   -0.82484  -0.70759  -0.68575  -0.67584  -0.62922
  Beta  occ. eigenvalues --   -0.58440  -0.56765  -0.53296  -0.46721  -0.45753
  Beta  occ. eigenvalues --   -0.43180  -0.39292  -0.38792  -0.36203  -0.35407
  Beta  occ. eigenvalues --   -0.35001  -0.32040  -0.31846  -0.30513  -0.29592
  Beta  occ. eigenvalues --   -0.29161  -0.27067  -0.25553  -0.24638  -0.23830
  Beta  occ. eigenvalues --   -0.22468  -0.19437  -0.17404  -0.17204  -0.11509
  Beta  occ. eigenvalues --   -0.09941
  Beta virt. eigenvalues --    0.07215   0.07747   0.08058   0.08348   0.09662
  Beta virt. eigenvalues --    0.09826   0.10195   0.10830   0.11094   0.12112
  Beta virt. eigenvalues --    0.12694   0.12829   0.13285   0.13561   0.13900

 Mulliken charges and spin densities:
               1          2
     1  C   -2.195313   0.473791
     2  C    2.482214  -0.923402
     3  C   -0.053957  -0.213935
     4  C    0.558404  -0.842404
     5  N   -0.069404   0.404218
     6  C    1.217023  -1.841064
     7  C   -0.557052   0.337635
     8  C    0.232194  -0.444629
     9  S    0.308667  -0.310626
    10  C   -1.127123   0.829202
    11  C    0.818639  -1.391891
    12  H   -0.063188   0.189086
    13  H   -0.019617   0.165957
    14  H   -0.332692   0.513797
    15  H   -0.925394   1.097542
    16  H    0.025302   0.068971
    17  H   -0.349374   0.506983
    18  H   -0.362640   0.508747
    19  H   -0.436191   0.575495
    20  H    0.166298  -0.041497
    21  H   -0.107247   0.260891
    22  H   -0.268484   0.500676
    23  H   -0.005851   0.198701
    24  H    0.273863  -0.112534
    25  H    0.085146   0.030994
    26  H   -0.294225   0.459295
 Sum of Mulliken charges =  -1.00000   1.00000

 Dipole moment (field-independent basis, Debye):
    X=             -1.2373    Y=             -6.0476    Z=             -0.1271  Tot=              6.1742
 Quadrupole moment (field-independent basis, Debye-Ang):
   XX=           -135.2456   YY=           -125.6682   ZZ=           -108.9329
   XY=             -5.2275   XZ=              3.9638   YZ=              2.6546

 Summary of Natural Population Analysis:

                                       Natural Population
                Natural  -----------------------------------------------
    Atom  No    Charge         Core      Valence    Rydberg      Total
 -----------------------------------------------------------------------
      C    1   -0.13634      0.99927     2.13364    0.00343     3.13634
      C    2    0.01572      0.99937     1.97575    0.00916     2.98428
      C    3   -0.23630      0.99956     2.22629    0.01045     3.23630
      C    4   -0.06524      0.99960     2.05315    0.01249     3.06524
      N    5   -0.29474      0.99968     2.77489    0.02017     3.79474
      C    6   -0.07637      0.99960     2.06411    0.01267     3.07637
      C    7   -0.19774      0.99960     2.18778    0.01036     3.19774
      C    8   -0.25278      0.99958     2.24181    0.01138     3.25278
      S    9    0.07575      4.99963     2.90696    0.01766     7.92425
      C   10   -0.24869      0.99957     2.24033    0.00879     3.24869
      C   11   -0.08242      0.99959     2.07090    0.01193     3.08242
      H   12    0.10865      0.00000     0.39026    0.00108     0.39135
      H   13    0.11250      0.00000     0.38579    0.00172     0.38750
      H   14    0.11231      0.00000     0.38575    0.00194     0.38769
      H   15    0.09185      0.00000     0.40445    0.00370     0.40815
      H   16    0.09452      0.00000     0.40365    0.00183     0.40548
      H   17    0.10034      0.00000     0.39723    0.00243     0.39966
      H   18    0.08311      0.00000     0.41455    0.00234     0.41689
      H   19    0.09845      0.00000     0.39980    0.00175     0.40155
      H   20    0.09922      0.00000     0.39885    0.00193     0.40078
      H   21    0.10023      0.00000     0.39814    0.00163     0.39977
      H   22    0.10904      0.00000     0.38968    0.00128     0.39096
      H   23    0.09418      0.00000     0.40421    0.00161     0.40582
      H   24    0.10703      0.00000     0.39142    0.00155     0.39297
      H   25    0.09055      0.00000     0.40761    0.00184     0.40945
      H   26    0.09716      0.00000     0.40133    0.00151     0.40284
 =======================================================================
   * Total *    0.00000     14.99504    30.84835    0.15662    46.00000

 Normal termination of Gaussian 16 at Tue Dec  8 20:46:17 2020.
