 Gaussian 16, Revision A.03,

 -----------------------------------------------------------
 # opt freq B3LYP/6-31G(d) empiricaldispersion=gd3bj scf=xqc
 -----------------------------------------------------------

 ------------------------------
 CID_53510160_JID_8393_neutraal
 ------------------------------
 Symbolic Z-matrix:
 Charge =  0 Multiplicity = 1

 SCF Done:  E(RB3LYP) =  -770.816343642     A.U. after   14 cycles
 SCF Done:  E(RB3LYP) =  -770.821400925     A.U. after   12 cycles
 SCF Done:  E(RB3LYP) =  -770.822064245     A.U. after   11 cycles
 SCF Done:  E(RB3LYP) =  -770.822400161     A.U. after   12 cycles
 SCF Done:  E(RB3LYP) =  -770.822494957     A.U. after   11 cycles
 SCF Done:  E(RB3LYP) =  -770.822636397     A.U. after   11 cycles
 SCF Done:  E(RB3LYP) =  -770.822709115     A.U. after   11 cycles
 SCF Done:  E(RB3LYP) =  -770.822726781     A.U. after   10 cycles
 SCF Done:  E(RB3LYP) =  -770.822736275     A.U. after    9 cycles
 SCF Done:  E(RB3LYP) =  -770.822738355     A.U. after    9 cycles
 SCF Done:  E(RB3LYP) =  -770.822738497     A.U. after    7 cycles
 SCF Done:  E(RB3LYP) =  -770.822738524     A.U. after    7 cycles
 SCF Done:  E(RB3LYP) =  -770.822738535     A.U. after    6 cycles
 SCF Done:  E(RB3LYP) =  -770.822738543     A.U. after    7 cycles
 SCF Done:  E(RB3LYP) =  -770.822738557     A.U. after    7 cycles
 Optimization completed.
    -- Stationary point found.
 Normal termination of Gaussian 16 at Sun Dec 13 12:36:55 2020.

 --------------------------------------------------------------------
 #N Geom=AllCheck Guess=TCheck SCRF=Check GenChk RB3LYP/6-31G(d) Freq
 --------------------------------------------------------------------

 Structure from the checkpoint file:  "JID_8393.chk"
 ------------------------------
 CID_53510160_JID_8393_neutraal
 ------------------------------
 Charge =  0 Multiplicity = 1

 SCF Done:  E(RB3LYP) =  -770.822738557     A.U. after    1 cycles

  Exact polarizability: 145.379  14.775 176.595  -9.665  -1.932 171.912
 Approx polarizability: 189.900  25.746 272.082 -14.429  -5.095 274.394

                      1                      2                      3
                      A                      A                      A
 Frequencies --     10.6486                21.0701                42.9686
 Red. masses --      3.9834                 4.0073                 3.5438
 Frc consts  --      0.0003                 0.0010                 0.0039
 IR Inten    --      0.0099                 0.0806                 0.1735

                      4                      5                      6
                      A                      A                      A
 Frequencies --     59.9750                83.2829                95.2417
 Red. masses --      3.5916                 2.0428                 3.3418
 Frc consts  --      0.0076                 0.0083                 0.0179
 IR Inten    --      0.4877                 0.2646                 5.0302

                      7                      8                      9
                      A                      A                      A
 Frequencies --    117.8456               141.1067               166.6707
 Red. masses --      3.3954                 2.8327                 2.0502
 Frc consts  --      0.0278                 0.0332                 0.0336
 IR Inten    --      0.1067                 0.8001                 0.5897

                     10                     11                     12
                      A                      A                      A
 Frequencies --    184.1171               223.8207               248.5715
 Red. masses --      2.7813                 3.1144                 1.2596
 Frc consts  --      0.0555                 0.0919                 0.0459
 IR Inten    --      3.3203                 0.6166                 0.0311

                     13                     14                     15
                      A                      A                      A
 Frequencies --    251.7973               279.8820               290.3677
 Red. masses --      1.5135                 2.6830                 2.5351
 Frc consts  --      0.0565                 0.1238                 0.1259
 IR Inten    --      0.9842                 2.8516                 2.2628

                     16                     17                     18
                      A                      A                      A
 Frequencies --    307.9039               327.0028               373.2228
 Red. masses --      2.5489                 2.3707                 2.6052
 Frc consts  --      0.1424                 0.1494                 0.2138
 IR Inten    --      0.8030                 0.0432                 0.9938

                     19                     20                     21
                      A                      A                      A
 Frequencies --    382.1788               401.7588               443.1456
 Red. masses --      2.6868                 1.9342                 2.5933
 Frc consts  --      0.2312                 0.1839                 0.3001
 IR Inten    --      0.9823                 2.2702                 0.6516

                     22                     23                     24
                      A                      A                      A
 Frequencies --    461.2075               480.1443               498.2850
 Red. masses --      2.9204                 3.3992                 3.6315
 Frc consts  --      0.3660                 0.4617                 0.5312
 IR Inten    --      1.8362                 1.8528                 0.6197

                     25                     26                     27
                      A                      A                      A
 Frequencies --    541.0985               581.9035               620.2776
 Red. masses --      3.8667                 4.7490                 2.9011
 Frc consts  --      0.6670                 0.9474                 0.6576
 IR Inten    --      2.7721                 2.0490                 1.8395

                     28                     29                     30
                      A                      A                      A
 Frequencies --    636.3492               725.9087               742.0292
 Red. masses --      3.4176                 4.2020                 3.3264
 Frc consts  --      0.8154                 1.3046                 1.0791
 IR Inten    --      7.2209                12.3624                 4.5767

                     31                     32                     33
                      A                      A                      A
 Frequencies --    759.6026               766.2944               789.0477
 Red. masses --      2.8866                 1.3829                 2.6601
 Frc consts  --      0.9813                 0.4784                 0.9758
 IR Inten    --     39.2908                49.4667                 3.0542

                     34                     35                     36
                      A                      A                      A
 Frequencies --    808.2435               820.1148               832.9603
 Red. masses --      2.0085                 1.2306                 2.2916
 Frc consts  --      0.7730                 0.4877                 0.9368
 IR Inten    --     16.1342                 4.6020                13.6182

                     37                     38                     39
                      A                      A                      A
 Frequencies --    851.6728               871.2250               878.7121
 Red. masses --      1.5283                 2.3122                 1.9973
 Frc consts  --      0.6531                 1.0340                 0.9086
 IR Inten    --     31.7829                38.6565                 6.6936

                     40                     41                     42
                      A                      A                      A
 Frequencies --    915.8124               927.0332               945.9011
 Red. masses --      1.9644                 1.5856                 1.9103
 Frc consts  --      0.9707                 0.8029                 1.0070
 IR Inten    --      6.0529                 1.2403                 1.8550

                     43                     44                     45
                      A                      A                      A
 Frequencies --    966.7439               971.2814               977.0613
 Red. masses --      1.9784                 1.3030                 1.9389
 Frc consts  --      1.0894                 0.7242                 1.0906
 IR Inten    --      4.3440                 0.7621                10.9490

                     46                     47                     48
                      A                      A                      A
 Frequencies --    990.7778              1015.8989              1061.9294
 Red. masses --      1.7305                 2.1498                 2.5841
 Frc consts  --      1.0009                 1.3072                 1.7169
 IR Inten    --      1.4201                 3.8746                 3.7443

                     49                     50                     51
                      A                      A                      A
 Frequencies --   1071.5888              1083.1086              1086.1483
 Red. masses --      4.3856                 2.9114                 2.5081
 Frc consts  --      2.9672                 2.0123                 1.7433
 IR Inten    --     25.3956                 2.1266                27.4870

                     52                     53                     54
                      A                      A                      A
 Frequencies --   1099.1162              1121.0909              1136.5679
 Red. masses --      1.9827                 2.1790                 1.8269
 Frc consts  --      1.4112                 1.6136                 1.3905
 IR Inten    --     45.5835                11.3854                12.1364

                     55                     56                     57
                      A                      A                      A
 Frequencies --   1141.5634              1153.2100              1168.2013
 Red. masses --      2.0832                 3.0654                 1.7564
 Frc consts  --      1.5995                 2.4019                 1.4122
 IR Inten    --     19.7540                37.9048                15.5554

                     58                     59                     60
                      A                      A                      A
 Frequencies --   1187.4033              1197.9937              1207.7430
 Red. masses --      1.2721                 1.1173                 2.1524
 Frc consts  --      1.0567                 0.9448                 1.8498
 IR Inten    --      0.6410                 2.0401                 3.5821

                     61                     62                     63
                      A                      A                      A
 Frequencies --   1210.4122              1224.0467              1225.2317
 Red. masses --      1.5766                 1.5563                 1.4929
 Frc consts  --      1.3610                 1.3739                 1.3205
 IR Inten    --     11.1131                 5.0287                 3.3937

                     64                     65                     66
                      A                      A                      A
 Frequencies --   1247.6994              1264.2701              1285.1251
 Red. masses --      1.4274                 1.2937                 3.8871
 Frc consts  --      1.3092                 1.2184                 3.7824
 IR Inten    --      3.1198                 1.6893               155.2403

                     67                     68                     69
                      A                      A                      A
 Frequencies --   1293.5704              1315.9068              1330.4028
 Red. masses --      1.2577                 1.4108                 1.4104
 Frc consts  --      1.2400                 1.4393                 1.4708
 IR Inten    --      1.9838                 6.1280                 5.1052

                     70                     71                     72
                      A                      A                      A
 Frequencies --   1335.8094              1348.5940              1355.2100
 Red. masses --      1.4588                 1.2167                 1.2469
 Frc consts  --      1.5337                 1.3038                 1.3492
 IR Inten    --      2.5703                 5.2740                 4.9088

                     73                     74                     75
                      A                      A                      A
 Frequencies --   1358.3410              1373.4350              1378.7091
 Red. masses --      1.5437                 2.0328                 1.2936
 Frc consts  --      1.6781                 2.2593                 1.4488
 IR Inten    --      8.2801                15.2714                 8.3751

                     76                     77                     78
                      A                      A                      A
 Frequencies --   1387.6036              1394.2988              1420.5956
 Red. masses --      1.5286                 1.4802                 1.2816
 Frc consts  --      1.7341                 1.6954                 1.5238
 IR Inten    --     18.7375                11.9712                 2.4162

                     79                     80                     81
                      A                      A                      A
 Frequencies --   1432.1764              1441.9913              1491.8309
 Red. masses --      1.3627                 1.3288                 1.4603
 Frc consts  --      1.6468                 1.6279                 1.9149
 IR Inten    --      4.8273                13.5099                24.8930

                     82                     83                     84
                      A                      A                      A
 Frequencies --   1500.4422              1508.6360              1514.5402
 Red. masses --      1.0962                 1.7261                 1.0619
 Frc consts  --      1.4540                 2.3147                 1.4352
 IR Inten    --      1.0628                 2.5099                 0.9878

                     85                     86                     87
                      A                      A                      A
 Frequencies --   1519.7375              1521.0842              1523.9829
 Red. masses --      1.0633                 1.0655                 1.0773
 Frc consts  --      1.4469                 1.4525                 1.4742
 IR Inten    --      6.8003                 3.6376                 3.7386

                     88                     89                     90
                      A                      A                      A
 Frequencies --   1526.4679              1532.7974              1534.6038
 Red. masses --      1.0612                 1.1465                 1.1711
 Frc consts  --      1.4568                 1.5871                 1.6250
 IR Inten    --      1.9217                49.8269                26.5946

                     91                     92                     93
                      A                      A                      A
 Frequencies --   1537.8058              1545.8901              1548.6990
 Red. masses --      1.1086                 1.0985                 1.7502
 Frc consts  --      1.5446                 1.5468                 2.4733
 IR Inten    --     23.0077                 1.9587                23.0539

                     94                     95                     96
                      A                      A                      A
 Frequencies --   1553.6579              1648.6776              1661.3779
 Red. masses --      1.1321                 6.2024                 5.8759
 Frc consts  --      1.6100                 9.9331                 9.5556
 IR Inten    --     10.2979                 8.0893                27.0625

                     97                     98                     99
                      A                      A                      A
 Frequencies --   2955.9181              2980.0165              3029.6782
 Red. masses --      1.0721                 1.0668                 1.0374
 Frc consts  --      5.5194                 5.5818                 5.6106
 IR Inten    --     72.3919                27.4734                64.4876

                    100                    101                    102
                      A                      A                      A
 Frequencies --   3030.4714              3038.1934              3042.7837
 Red. masses --      1.0875                 1.0688                 1.0699
 Frc consts  --      5.8844                 5.8128                 5.8361
 IR Inten    --     19.0803                23.8920                63.5195

                    103                    104                    105
                      A                      A                      A
 Frequencies --   3047.7271              3051.3109              3062.2104
 Red. masses --      1.0599                 1.0370                 1.0611
 Frc consts  --      5.8005                 5.6886                 5.8625
 IR Inten    --     51.7739                23.9472                27.4538

                    106                    107                    108
                      A                      A                      A
 Frequencies --   3067.0502              3076.9726              3090.7599
 Red. masses --      1.0856                 1.0898                 1.1067
 Frc consts  --      6.0166                 6.0791                 6.2287
 IR Inten    --     55.5110                13.5371                38.7666

                    109                    110                    111
                      A                      A                      A
 Frequencies --   3091.6073              3104.9170              3106.3857
 Red. masses --      1.1051                 1.0994                 1.0996
 Frc consts  --      6.2231                 6.2443                 6.2515
 IR Inten    --     25.5888                15.3463                28.9613

                    112                    113                    114
                      A                      A                      A
 Frequencies --   3113.8699              3121.7790              3132.1190
 Red. masses --      1.1008                 1.0984                 1.1028
 Frc consts  --      6.2886                 6.3071                 6.3742
 IR Inten    --     76.7288                26.2448                37.2658

                    115                    116                    117
                      A                      A                      A
 Frequencies --   3160.8392              3176.6202              3190.9770
 Red. masses --      1.1003                 1.0874                 1.0883
 Frc consts  --      6.4771                 6.4651                 6.5287
 IR Inten    --     19.9376                 8.9641                10.1456

                    118                    119                    120
                      A                      A                      A
 Frequencies --   3209.1978              3228.3027              3525.6795
 Red. masses --      1.0951                 1.0920                 1.0725
 Frc consts  --      6.6450                 6.7055                 7.8549
 IR Inten    --     29.2005                 9.9598                 1.7001

 - Thermochemistry -
 -------------------
 Temperature   298.150 Kelvin.  Pressure   1.00000 Atm.
 Atom     1 has atomic number  6 and mass  12.00000

 Molecular mass:   248.18886 amu.
 Principal axes and moments of inertia in atomic units:
                           1         2         3
     Eigenvalues --  3384.467156052.326416664.35674
           X            0.99995  -0.00987   0.00044
           Y            0.00986   0.99979   0.01801
           Z           -0.00062  -0.01801   0.99984
 This molecule is an asymmetric top.
 Rotational symmetry number  1.
 Warning -- assumption of classical behavior for rotation
           may cause significant error
 Rotational temperatures (Kelvin)      0.02559     0.01431     0.01300
 Rotational constants (GHZ):           0.53324     0.29819     0.27081
 Zero-point vibrational energy     989747.6 (Joules/Mol)
                                  236.55536 (Kcal/Mol)
 Warning -- explicit consideration of  27 degrees of freedom as
           vibrations may cause significant error
 Vibrational temperatures:     15.32    30.32    61.82    86.29   119.83
          (Kelvin)            137.03   169.55   203.02   239.80   264.90
                              322.03   357.64   362.28   402.69   417.77
                              443.01   470.48   536.98   549.87   578.04
                              637.59   663.57   690.82   716.92   778.52
                              837.23   892.44   915.56  1044.42  1067.61
                             1092.90  1102.53  1135.26  1162.88  1179.96
                             1198.44  1225.37  1253.50  1264.27  1317.65
                             1333.79  1360.94  1390.93  1397.46  1405.77
                             1425.51  1461.65  1527.88  1541.78  1558.35
                             1562.73  1581.38  1613.00  1635.27  1642.46
                             1659.21  1680.78  1708.41  1723.65  1737.67
                             1741.51  1761.13  1762.84  1795.16  1819.00
                             1849.01  1861.16  1893.30  1914.15  1921.93
                             1940.33  1949.84  1954.35  1976.07  1983.65
                             1996.45  2006.08  2043.92  2060.58  2074.70
                             2146.41  2158.80  2170.59  2179.09  2186.56
                             2188.50  2192.67  2196.25  2205.35  2207.95
                             2212.56  2224.19  2228.23  2235.37  2372.08
                             2390.35  4252.91  4287.58  4359.03  4360.17
                             4371.28  4377.89  4385.00  4390.16  4405.84
                             4412.80  4427.08  4446.91  4448.13  4467.28
                             4469.40  4480.16  4491.54  4506.42  4547.74
                             4570.45  4591.10  4617.32  4644.81  5072.67

 Zero-point correction=                           0.376975 (Hartree/Particle)
 Thermal correction to Energy=                    0.394915
 Thermal correction to Enthalpy=                  0.395859
 Thermal correction to Gibbs Free Energy=         0.328779
 Sum of electronic and zero-point Energies=           -770.445764
 Sum of electronic and thermal Energies=              -770.427824
 Sum of electronic and thermal Enthalpies=            -770.426880
 Sum of electronic and thermal Free Energies=         -770.493960

                     E (Thermal)             CV                S
                      KCal/Mol        Cal/Mol-Kelvin    Cal/Mol-Kelvin
 Total                  247.813             68.934            141.182
 Electronic               0.000              0.000              0.000
 Translational            0.889              2.981             42.428
 Rotational               0.889              2.981             33.279
 Vibrational            246.035             62.972             65.476
 Vibration     1          0.593              1.987              7.886
 Vibration     2          0.593              1.985              6.531
 Vibration     3          0.595              1.980              5.117
 Vibration     4          0.597              1.973              4.458
 Vibration     5          0.600              1.961              3.812
 Vibration     6          0.603              1.953              3.549
 Vibration     7          0.608              1.935              3.135
 Vibration     8          0.615              1.912              2.789
 Vibration     9          0.624              1.883              2.473
 Vibration    10          0.631              1.861              2.286
 Vibration    11          0.649              1.805              1.928
 Vibration    12          0.662              1.765              1.741
 Vibration    13          0.664              1.760              1.718
 Vibration    14          0.680              1.711              1.534
 Vibration    15          0.686              1.692              1.472
 Vibration    16          0.698              1.659              1.374
 Vibration    17          0.711              1.622              1.275
 Vibration    18          0.745              1.527              1.067
 Vibration    19          0.752              1.508              1.031
 Vibration    20          0.767              1.466              0.956
 Vibration    21          0.803              1.376              0.817
 Vibration    22          0.819              1.336              0.763
 Vibration    23          0.837              1.294              0.710
 Vibration    24          0.854              1.254              0.662
 Vibration    25          0.896              1.159              0.563
 Vibration    26          0.939              1.070              0.482
 Vibration    27          0.980              0.989              0.416

 Optimization completed.
    -- Stationary point found.
 Normal termination of Gaussian 16 at Sun Dec 13 12:59:20 2020.

 ----------------------------------------------------------------------
 # B3LYP/6-311++G(d,p) empiricaldispersion=gd3bj scf=xqc pop=npa geom=c
 heck
 ----------------------------------------------------------------------

 --------------------------------------
 CID_53510160_JID_8393_Energie_neutraal
 --------------------------------------
 Structure from the checkpoint file:  "JID_8393.chk"
 Charge =  0 Multiplicity = 1

 SCF Done:  E(RB3LYP) =  -771.033856646     A.U. after   15 cycles
 Normal termination of Gaussian 16 at Sun Dec 13 13:09:57 2020.

 ----------------------------------------------------------------------
 # B3LYP/6-311++G(d,p) empiricaldispersion=gd3bj scf=xqc pop=npa geom=c
 heck
 ----------------------------------------------------------------------

 ------------------------------------
 CID_53510160_JID_8393_Energie_kation
 ------------------------------------
 Structure from the checkpoint file:  "JID_8393.chk"
 Charge =  1 Multiplicity = 2

 SCF Done:  E(UB3LYP) =  -770.759089828     A.U. after   25 cycles
 Normal termination of Gaussian 16 at Sun Dec 13 13:35:51 2020.
 Gaussian 16:  ES64L-G16RevA.03 25-Dec-2016

 ----------------------------------------------------------------------
 # B3LYP/6-311++G(d,p) empiricaldispersion=gd3bj scf=xqc pop=npa geom=c
 heck
 ----------------------------------------------------------------------

 -----------------------------------
 CID_53510160_JID_8393_Energie_anion
 -----------------------------------
 Structure from the checkpoint file:  "JID_8393.chk"
 Charge = -1 Multiplicity = 2

                         Standard orientation:
 ---------------------------------------------------------------------
 Center     Atomic      Atomic             Coordinates (Angstroms)
 Number     Number       Type             X           Y           Z
 ---------------------------------------------------------------------
      1          6           0       -2.711726    2.936331    0.089217
      2          6           0       -2.239571    1.611130   -0.505604
      3          7           0       -3.188691    0.524806   -0.223020
      4          6           0       -3.038479   -0.026211    1.129696
      5          6           0       -1.886821   -1.056231    1.049419
      6          6           0       -1.951542   -1.586332   -0.411361
      7          6           0       -3.019226   -0.661083   -1.074044
      8          6           0       -0.605446   -1.502722   -1.131528
      9          7           0        0.405966   -2.335228   -0.483116
     10          6           0        1.780085   -1.995787   -0.868066
     11          6           0        2.162914   -0.536073   -0.681505
     12          6           0        2.500706    0.273940   -1.763377
     13          6           0        2.794346    1.631849   -1.605724
     14          6           0        2.738645    2.195466   -0.336013
     15          6           0        2.399313    1.411840    0.771629
     16          6           0        2.117555    0.055534    0.597404
     17          8           0        1.773138   -0.787936    1.624910
     18          6           0        1.690033   -0.251353    2.934824
     19          1           0       -3.708804    3.186095   -0.286811
     20          1           0       -2.019198    3.743947   -0.174799
     21          1           0       -2.766860    2.892648    1.182827
     22          1           0       -2.175634    1.712727   -1.594551
     23          1           0       -1.214218    1.394658   -0.153882
     24          1           0       -3.975047   -0.527863    1.406627
     25          1           0       -2.863304    0.767084    1.861438
     26          1           0       -0.925805   -0.561111    1.231259
     27          1           0       -1.986793   -1.850471    1.796029
     28          1           0       -2.286029   -2.629951   -0.424370
     29          1           0       -2.754201   -0.365682   -2.094090
     30          1           0       -3.981519   -1.186383   -1.123006
     31          1           0       -0.719595   -1.843397   -2.170803
     32          1           0       -0.307912   -0.441141   -1.183116
     33          1           0        0.338158   -2.205948    0.523193
     34          1           0        2.447972   -2.636810   -0.281459
     35          1           0        1.921673   -2.261494   -1.923005
     36          1           0        2.526783   -0.172900   -2.754629
     37          1           0        3.054648    2.238845   -2.467541
     38          1           0        2.956368    3.250030   -0.192393
     39          1           0        2.360415    1.865715    1.754721
     40          1           0        1.404528   -1.082703    3.581294
     41          1           0        2.655638    0.152464    3.264352
     42          1           0        0.927992    0.536284    2.996588
 ---------------------------------------------------------------------

 SCF Done:  E(UB3LYP) =  -771.022770954     A.U. after   33 cycles
 SCF Done:  E(UB3LYP) =  -771.022770954     a.u. after    1 cycles

 The electronic state is 2-A.
 Alpha  occ. eigenvalues --  -19.06495 -14.20852 -14.20162 -10.14392 -10.12476
 Alpha  occ. eigenvalues --  -10.10715 -10.10041 -10.09765 -10.09603 -10.09540
 Alpha  occ. eigenvalues --  -10.08681 -10.08560 -10.08423 -10.08148 -10.08087
 Alpha  occ. eigenvalues --  -10.07895 -10.07153 -10.06370  -0.97947  -0.84139
 Alpha  occ. eigenvalues --   -0.81566  -0.76395  -0.70086  -0.67546  -0.66087
 Alpha  occ. eigenvalues --   -0.64642  -0.63626  -0.60854  -0.58689  -0.54639
 Alpha  occ. eigenvalues --   -0.53864  -0.51200  -0.49524  -0.47612  -0.46893
 Alpha  occ. eigenvalues --   -0.44133  -0.41280  -0.40512  -0.39410  -0.39241
 Alpha  occ. eigenvalues --   -0.37990  -0.37611  -0.36155  -0.35771  -0.34636
 Alpha  occ. eigenvalues --   -0.34446  -0.32885  -0.32655  -0.31983  -0.31305
 Alpha  occ. eigenvalues --   -0.29499  -0.28816  -0.28429  -0.28184  -0.27196
 Alpha  occ. eigenvalues --   -0.27068  -0.26350  -0.25173  -0.25129  -0.24457
 Alpha  occ. eigenvalues --   -0.24286  -0.23463  -0.23320  -0.22518  -0.16390
 Alpha  occ. eigenvalues --   -0.13856  -0.13525  -0.12632   0.04068
 Alpha virt. eigenvalues --    0.06122   0.06415   0.06952   0.07465   0.07948
 Alpha virt. eigenvalues --    0.08153   0.08536   0.08757   0.08950   0.09325
 Alpha virt. eigenvalues --    0.10155   0.10497   0.10585   0.11065   0.11397

  Beta  occ. eigenvalues --  -19.06486 -14.20851 -14.20161 -10.14392 -10.12416
  Beta  occ. eigenvalues --  -10.10712 -10.10036 -10.09756 -10.09587 -10.09537
  Beta  occ. eigenvalues --  -10.08681 -10.08555 -10.08409 -10.08146 -10.08069
  Beta  occ. eigenvalues --  -10.07886 -10.07141 -10.06351  -0.97925  -0.84132
  Beta  occ. eigenvalues --   -0.81562  -0.76379  -0.70073  -0.67523  -0.66059
  Beta  occ. eigenvalues --   -0.64622  -0.63604  -0.60793  -0.58667  -0.54618
  Beta  occ. eigenvalues --   -0.53831  -0.51160  -0.49493  -0.47594  -0.46861
  Beta  occ. eigenvalues --   -0.44086  -0.41266  -0.40490  -0.39377  -0.39212
  Beta  occ. eigenvalues --   -0.37964  -0.37587  -0.36142  -0.35739  -0.34614
  Beta  occ. eigenvalues --   -0.34427  -0.32862  -0.32621  -0.31961  -0.31286
  Beta  occ. eigenvalues --   -0.29476  -0.28793  -0.28406  -0.28164  -0.27173
  Beta  occ. eigenvalues --   -0.27044  -0.26332  -0.25153  -0.25114  -0.24430
  Beta  occ. eigenvalues --   -0.24260  -0.23442  -0.23301  -0.22504  -0.16380
  Beta  occ. eigenvalues --   -0.13850  -0.13518  -0.12623
  Beta virt. eigenvalues --    0.06047   0.06727   0.07091   0.07126   0.07682
  Beta virt. eigenvalues --    0.08211   0.08548   0.08632   0.09059   0.09290
  Beta virt. eigenvalues --    0.09484   0.10308   0.10827   0.10958   0.11349

 Mulliken charges and spin densities:
               1          2
     1  C    0.051209  -0.578868
     2  C   -0.812788   0.532165
     3  N    0.151682   0.001498
     4  C   -0.164217  -0.446491
     5  C   -0.676161   0.421810
     6  C    0.538702   0.163085
     7  C   -0.319258  -0.239924
     8  C   -0.891011  -0.032153
     9  N    0.050865   0.020248
    10  C   -0.120466  -0.603300
    11  C    0.149416   0.633188
    12  C   -0.550771   0.422573
    13  C    0.504571  -0.872145
    14  C    1.478600  -1.733196
    15  C    0.423014  -0.381399
    16  C   -1.716189   1.248597
    17  O   -0.161079   0.015762
    18  C    1.281238  -1.572084
    19  H    0.072810   0.079087
    20  H   -0.091687   0.218490
    21  H   -0.045578   0.184300
    22  H   -0.085506   0.228299
    23  H    0.643844  -0.520319
    24  H    0.072839   0.090452
    25  H   -0.274011   0.413896
    26  H    1.285329  -1.327261
    27  H   -0.236446   0.428714
    28  H    0.184107   0.021146
    29  H    0.123821   0.023100
    30  H    0.033290   0.124790
    31  H    0.133964   0.009358
    32  H    0.194135   0.003662
    33  H    0.230185   0.028759
    34  H    0.144256   0.057268
    35  H    0.109575   0.028336
    36  H   -0.063891   0.205408
    37  H   -0.233616   0.398217
    38  H   -0.553055   0.730871
    39  H   -0.377235   0.571999
    40  H   -0.439425   0.608533
    41  H   -0.507985   0.675410
    42  H   -0.537078   0.718120
 Sum of Mulliken charges =  -1.00000   1.00000

 Dipole moment (field-independent basis, Debye):
    X=             -2.2809    Y=             -4.4991    Z=             -6.0524  Tot=              7.8789
 Quadrupole moment (field-independent basis, Debye-Ang):
   XX=           -173.1115   YY=           -167.0712   ZZ=           -169.8020
   XY=             -6.8703   XZ=             -4.6454   YZ=             -1.2717

 Summary of Natural Population Analysis:

                                       Natural Population
                Natural  -----------------------------------------------
    Atom  No    Charge         Core      Valence    Rydberg      Total
 -----------------------------------------------------------------------
      C    1   -0.28788      0.99966     2.28250    0.00572     3.28788
      C    2   -0.08848      0.99962     2.07766    0.01121     3.08848
      N    3   -0.28118      0.99974     2.76851    0.01293     3.78118
      C    4   -0.08640      0.99962     2.07565    0.01113     3.08640
      C    5   -0.20853      0.99962     2.20043    0.00848     3.20853
      C    6   -0.12419      0.99960     2.11495    0.00964     3.12419
      C    7   -0.08132      0.99961     2.07165    0.01005     3.08132
      C    8   -0.08710      0.99959     2.07749    0.01001     3.08710
      N    9   -0.33965      0.99975     2.82934    0.01056     3.83965
      C   10   -0.09215      0.99960     2.08132    0.01123     3.09215
      C   11   -0.04814      0.99946     2.03858    0.01010     3.04814
      C   12   -0.09473      0.99952     2.08553    0.00968     3.09473
      C   13   -0.11550      0.99956     2.10548    0.01047     3.11550
      C   14   -0.09013      0.99957     2.08008    0.01048     3.09013
      C   15   -0.13844      0.99951     2.12894    0.00998     3.13844
      C   16    0.16163      0.99933     1.82492    0.01413     2.83837
      O   17   -0.28012      0.99986     3.27084    0.00943     4.28012
      C   18   -0.10105      0.99960     2.09181    0.00964     3.10105
      H   19    0.09662      0.00000     0.40196    0.00142     0.40338
      H   20    0.10014      0.00000     0.39905    0.00081     0.39986
      H   21    0.09744      0.00000     0.40129    0.00127     0.40256
      H   22    0.09157      0.00000     0.40705    0.00138     0.40843
      H   23    0.08401      0.00000     0.41349    0.00250     0.41599
      H   24    0.09082      0.00000     0.40810    0.00108     0.40918
      H   25    0.10103      0.00000     0.39797    0.00101     0.39897
      H   26    0.10003      0.00000     0.39755    0.00242     0.39997
      H   27    0.10283      0.00000     0.39570    0.00147     0.39717
      H   28    0.09792      0.00000     0.40048    0.00160     0.40208
      H   29    0.09576      0.00000     0.40327    0.00097     0.40424
      H   30    0.09258      0.00000     0.40640    0.00101     0.40742
      H   31    0.08744      0.00000     0.41138    0.00119     0.41256
      H   32    0.08553      0.00000     0.41197    0.00250     0.41447
      H   33    0.17979      0.00000     0.31580    0.00441     0.32021
      H   34    0.10201      0.00000     0.39690    0.00109     0.39799
      H   35    0.09108      0.00000     0.40783    0.00109     0.40892
      H   36    0.09792      0.00000     0.40100    0.00108     0.40208
      H   37    0.10128      0.00000     0.39774    0.00098     0.39872
      H   38    0.10363      0.00000     0.39486    0.00152     0.39637
      H   39    0.11169      0.00000     0.38621    0.00210     0.38831
      H   40    0.09572      0.00000     0.40265    0.00163     0.40428
      H   41    0.08771      0.00000     0.41020    0.00209     0.41229
      H   42    0.08882      0.00000     0.40829    0.00288     0.41118
 =======================================================================
   * Total *    0.00000     17.99281    49.78278    0.22440    68.00000

 Normal termination of Gaussian 16 at Sun Dec 13 14:09:43 2020.
