 Gaussian 16, Revision A.03,

 ----------------------------------------------------------------------
 # opt=(cartesian,calcfc) freq B3LYP/6-31G(d) empiricaldispersion=gd3bj
  scf=xqc
 ----------------------------------------------------------------------

 -------------------------------
 CID_116376780_JID_5664_neutraal
 -------------------------------
 Symbolic Z-matrix:
 Charge =  0 Multiplicity = 1

 SCF Done:  E(RB3LYP) =  -1104.56110326     A.U. after   14 cycles
 SCF Done:  E(RB3LYP) =  -1104.56120619     A.U. after   12 cycles
 SCF Done:  E(RB3LYP) =  -1104.56121750     A.U. after   10 cycles
 SCF Done:  E(RB3LYP) =  -1104.56122095     A.U. after    9 cycles
 SCF Done:  E(RB3LYP) =  -1104.56116320     A.U. after   11 cycles
 SCF Done:  E(RB3LYP) =  -1104.56122188     A.U. after    9 cycles
 SCF Done:  E(RB3LYP) =  -1104.56122239     A.U. after    8 cycles
 Optimization completed.
    -- Stationary point found.
 Normal termination of Gaussian 16 at Mon Jan  4 09:34:59 2021.

 --------------------------------------------------------------------
 #N Geom=AllCheck Guess=TCheck SCRF=Check GenChk RB3LYP/6-31G(d) Freq
 --------------------------------------------------------------------

 Structure from the checkpoint file:  "JID_5664.chk"
 -------------------------------
 CID_116376780_JID_5664_neutraal
 -------------------------------
 Charge =  0 Multiplicity = 1

 SCF Done:  E(RB3LYP) =  -1104.56122239     A.U. after    1 cycles

  Exact polarizability: 146.677   3.612 117.556  -8.863   4.086  96.172
 Approx polarizability: 197.447   7.940 184.907 -20.546  16.419 166.472

                      1                      2                      3
                      A                      A                      A
 Frequencies --     33.5420                38.2512                56.6353
 Red. masses --      4.9196                 4.8181                 6.9420
 Frc consts  --      0.0033                 0.0042                 0.0131
 IR Inten    --      1.7863                 0.1809                 1.9749

                      4                      5                      6
                      A                      A                      A
 Frequencies --    107.4491               134.4478               184.4273
 Red. masses --      4.3069                 5.4244                 5.7730
 Frc consts  --      0.0293                 0.0578                 0.1157
 IR Inten    --      0.5700                 1.2046                 5.2770

                      7                      8                      9
                      A                      A                      A
 Frequencies --    212.9115               231.9477               242.2800
 Red. masses --      6.5677                 5.6181                 5.0937
 Frc consts  --      0.1754                 0.1781                 0.1762
 IR Inten    --      3.8623                 1.6913                 2.7536

                     10                     11                     12
                      A                      A                      A
 Frequencies --    290.0400               320.7476               343.0762
 Red. masses --      4.5637                 2.3838                 2.1437
 Frc consts  --      0.2262                 0.1445                 0.1487
 IR Inten    --      4.8037                 2.5152                 5.6515

                     13                     14                     15
                      A                      A                      A
 Frequencies --    388.2187               409.8183               436.9054
 Red. masses --      5.5039                 4.1962                 3.4266
 Frc consts  --      0.4887                 0.4152                 0.3854
 IR Inten    --     12.0383                14.0424                11.3209

                     16                     17                     18
                      A                      A                      A
 Frequencies --    471.2921               507.4491               575.6335
 Red. masses --      3.1190                 4.2999                 3.2630
 Frc consts  --      0.4082                 0.6524                 0.6370
 IR Inten    --      6.7571                15.3384                 4.4985

                     19                     20                     21
                      A                      A                      A
 Frequencies --    587.2470               617.1136               622.3903
 Red. masses --      1.2625                 3.4979                 4.0151
 Frc consts  --      0.2565                 0.7848                 0.9164
 IR Inten    --     85.7555                 6.6252                 8.7722

                     22                     23                     24
                      A                      A                      A
 Frequencies --    637.0217               688.6536               716.9021
 Red. masses --      3.3768                 1.9833                 4.0905
 Frc consts  --      0.8074                 0.5542                 1.2386
 IR Inten    --     60.7729                33.2467                 9.6906

                     25                     26                     27
                      A                      A                      A
 Frequencies --    732.8793               753.8150               793.1924
 Red. masses --      1.4830                 2.4788                 1.5688
 Frc consts  --      0.4693                 0.8299                 0.5815
 IR Inten    --     15.4410                25.1889                35.5380

                     28                     29                     30
                      A                      A                      A
 Frequencies --    811.8047               860.8243               880.9739
 Red. masses --      2.2392                 3.1160                 1.3606
 Frc consts  --      0.8695                 1.3604                 0.6222
 IR Inten    --     48.7620                13.9179                27.7246

                     31                     32                     33
                      A                      A                      A
 Frequencies --    888.9705               896.0949               917.5677
 Red. masses --      2.1513                 4.4830                 2.1822
 Frc consts  --      1.0017                 2.1209                 1.0825
 IR Inten    --      3.8307                22.8806                38.8881

                     34                     35                     36
                      A                      A                      A
 Frequencies --    943.4798               999.7274              1012.1349
 Red. masses --      2.1833                 3.0400                 2.3756
 Frc consts  --      1.1450                 1.7901                 1.4339
 IR Inten    --      4.8841                12.2514                 4.8613

                     37                     38                     39
                      A                      A                      A
 Frequencies --   1029.6552              1060.8706              1071.2502
 Red. masses --      1.8721                 2.7054                 2.3118
 Frc consts  --      1.1694                 1.7939                 1.5631
 IR Inten    --      6.8099                57.0900                27.2612

                     40                     41                     42
                      A                      A                      A
 Frequencies --   1086.7219              1105.1312              1115.1288
 Red. masses --      3.0726                 3.9172                 1.8746
 Frc consts  --      2.1379                 2.8187                 1.3734
 IR Inten    --     40.0237                91.1364                42.7525

                     43                     44                     45
                      A                      A                      A
 Frequencies --   1134.8088              1170.5827              1172.9785
 Red. masses --      2.2000                 1.7323                 1.4965
 Frc consts  --      1.6692                 1.3985                 1.2131
 IR Inten    --    112.2135                 2.8396                50.9084

                     46                     47                     48
                      A                      A                      A
 Frequencies --   1209.2642              1211.5990              1242.9650
 Red. masses --      1.6970                 2.3595                 1.4041
 Frc consts  --      1.4621                 2.0408                 1.2781
 IR Inten    --     25.2057                44.0163                 7.6097

                     49                     50                     51
                      A                      A                      A
 Frequencies --   1258.7242              1284.5202              1297.3435
 Red. masses --      1.3783                 1.5424                 1.7373
 Frc consts  --      1.2867                 1.4995                 1.7228
 IR Inten    --      7.4638                 3.3649                15.2097

                     52                     53                     54
                      A                      A                      A
 Frequencies --   1303.8567              1315.8687              1339.7859
 Red. masses --      2.3507                 1.7042                 1.5318
 Frc consts  --      2.3545                 1.7385                 1.6200
 IR Inten    --     89.7284                67.9732                39.3650

                     55                     56                     57
                      A                      A                      A
 Frequencies --   1353.9017              1384.3077              1409.9895
 Red. masses --      1.4220                 1.3881                 1.2753
 Frc consts  --      1.5358                 1.5673                 1.4938
 IR Inten    --      3.0156                13.6714                 5.4508

                     58                     59                     60
                      A                      A                      A
 Frequencies --   1434.7910              1467.3710              1480.7471
 Red. masses --      2.5271                 1.0986                 1.1337
 Frc consts  --      3.0651                 1.3937                 1.4646
 IR Inten    --      8.2422                17.5144                14.2328

                     61                     62                     63
                      A                      A                      A
 Frequencies --   1487.9069              1501.4718              1520.5158
 Red. masses --      1.1421                 1.0856                 1.2348
 Frc consts  --      1.4897                 1.4419                 1.6821
 IR Inten    --     54.6671                 6.6497                25.4350

                     64                     65                     66
                      A                      A                      A
 Frequencies --   1549.1110              1640.6993              3052.7284
 Red. masses --      3.9646                 5.3971                 1.0599
 Frc consts  --      5.6055                 8.5598                 5.8197
 IR Inten    --     31.7943                 1.5301                37.8768

                     67                     68                     69
                      A                      A                      A
 Frequencies --   3093.2391              3096.5347              3106.6053
 Red. masses --      1.1050                 1.0620                 1.0754
 Frc consts  --      6.2292                 5.9999                 6.1147
 IR Inten    --     19.4999                 2.4234                 2.6682

                     70                     71                     72
                      A                      A                      A
 Frequencies --   3108.6467              3138.0257              3174.9180
 Red. masses --      1.0711                 1.0874                 1.1067
 Frc consts  --      6.0983                 6.3086                 6.5729
 IR Inten    --      7.6619                 9.4785                 0.3202

                     73                     74                     75
                      A                      A                      A
 Frequencies --   3177.0914              3269.2246              3287.0580
 Red. masses --      1.1059                 1.0930                 1.0975
 Frc consts  --      6.5771                 6.8830                 6.9864
 IR Inten    --      0.7080                 3.1515                 0.6368

                     76                     77                     78
                      A                      A                      A
 Frequencies --   3303.9071              3488.0837              3618.7239
 Red. masses --      1.1044                 1.0739                 1.0659
 Frc consts  --      7.1026                 7.6983                 8.2239
 IR Inten    --      1.9586                 0.4814               106.0562

 - Thermochemistry -
 -------------------
 Temperature   298.150 Kelvin.  Pressure   1.00000 Atm.
 Atom     1 has atomic number  6 and mass  12.00000

 Molecular mass:   231.05653 amu.
 Principal axes and moments of inertia in atomic units:
                           1         2         3
     Eigenvalues --  1332.508466550.070667119.54655
           X            1.00000  -0.00087   0.00124
           Y            0.00090   0.99984  -0.01813
           Z           -0.00123   0.01813   0.99983
 This molecule is an asymmetric top.
 Rotational symmetry number  1.
 Warning -- assumption of classical behavior for rotation
           may cause significant error
 Rotational temperatures (Kelvin)      0.06500     0.01322     0.01217
 Rotational constants (GHZ):           1.35439     0.27553     0.25349
 Zero-point vibrational energy     591568.4 (Joules/Mol)
                                  141.38825 (Kcal/Mol)
 Warning -- explicit consideration of  20 degrees of freedom as
           vibrations may cause significant error
 Vibrational temperatures:     48.26    55.03    81.49   154.60   193.44
          (Kelvin)            265.35   306.33   333.72   348.59   417.30
                              461.48   493.61   558.56   589.64   628.61
                              678.08   730.11   828.21   844.92   887.89
                              895.48   916.53   990.82  1031.46  1054.45
                             1084.57  1141.23  1168.01  1238.53  1267.52
                             1279.03  1289.28  1320.18  1357.46  1438.38
                             1456.24  1481.44  1526.36  1541.29  1563.55
                             1590.04  1604.42  1632.74  1684.21  1687.65
                             1739.86  1743.22  1788.35  1811.02  1848.14
                             1866.59  1875.96  1893.24  1927.65  1947.96
                             1991.71  2028.66  2064.34  2111.22  2130.46
                             2140.77  2160.28  2187.68  2228.83  2360.60
                             4392.20  4450.48  4455.22  4469.71  4472.65
                             4514.92  4568.00  4571.13  4703.68  4729.34
                             4753.59  5018.57  5206.54

 Zero-point correction=                           0.225317 (Hartree/Particle)
 Thermal correction to Energy=                    0.238937
 Thermal correction to Enthalpy=                  0.239881
 Thermal correction to Gibbs Free Energy=         0.183695
 Sum of electronic and zero-point Energies=          -1104.335906
 Sum of electronic and thermal Energies=             -1104.322286
 Sum of electronic and thermal Enthalpies=           -1104.321342
 Sum of electronic and thermal Free Energies=        -1104.377527

                     E (Thermal)             CV                S
                      KCal/Mol        Cal/Mol-Kelvin    Cal/Mol-Kelvin
 Total                  149.935             52.985            118.252
 Electronic               0.000              0.000              0.000
 Translational            0.889              2.981             42.214
 Rotational               0.889              2.981             32.497
 Vibrational            148.157             47.023             43.541
 Vibration     1          0.594              1.983              5.608
 Vibration     2          0.594              1.982              5.348
 Vibration     3          0.596              1.975              4.571
 Vibration     4          0.606              1.943              3.314
 Vibration     5          0.613              1.919              2.881
 Vibration     6          0.631              1.861              2.283
 Vibration     7          0.644              1.821              2.019
 Vibration     8          0.653              1.792              1.864
 Vibration     9          0.658              1.776              1.786
 Vibration    10          0.686              1.692              1.474
 Vibration    11          0.706              1.634              1.306
 Vibration    12          0.722              1.589              1.198
 Vibration    13          0.756              1.495              1.007
 Vibration    14          0.774              1.449              0.927
 Vibration    15          0.797              1.390              0.836
 Vibration    16          0.828              1.314              0.734
 Vibration    17          0.863              1.233              0.640
 Vibration    18          0.932              1.084              0.494
 Vibration    19          0.944              1.059              0.472
 Vibration    20          0.977              0.996              0.421

 Optimization completed.
    -- Stationary point found.
 Normal termination of Gaussian 16 at Mon Jan  4 09:43:13 2021.

 ----------------------------------------------------------------------
 # B3LYP/6-311++G(d,p) empiricaldispersion=gd3bj scf=xqc pop=npa geom=c
 heck
 ----------------------------------------------------------------------

 ---------------------------------------
 CID_116376780_JID_5664_Energie_neutraal
 ---------------------------------------
 Structure from the checkpoint file:  "JID_5664.chk"
 Charge =  0 Multiplicity = 1

 SCF Done:  E(RB3LYP) =  -1104.80223458     A.U. after   15 cycles
 Normal termination of Gaussian 16 at Mon Jan  4 09:46:31 2021.

 ----------------------------------------------------------------------
 # B3LYP/6-311++G(d,p) empiricaldispersion=gd3bj scf=xqc pop=npa geom=c
 heck
 ----------------------------------------------------------------------

 -------------------------------------
 CID_116376780_JID_5664_Energie_kation
 -------------------------------------
 Structure from the checkpoint file:  "JID_5664.chk"
 Charge =  1 Multiplicity = 2

 SCF Done:  E(UB3LYP) =  -1104.49255592     A.U. after   22 cycles
 Normal termination of Gaussian 16 at Mon Jan  4 09:53:00 2021.
 Gaussian 16:  ES64L-G16RevA.03 25-Dec-2016

 ----------------------------------------------------------------------
 # B3LYP/6-311++G(d,p) empiricaldispersion=gd3bj scf=xqc pop=npa geom=c
 heck
 ----------------------------------------------------------------------

 ------------------------------------
 CID_116376780_JID_5664_Energie_anion
 ------------------------------------
 Structure from the checkpoint file:  "JID_5664.chk"
 Charge = -1 Multiplicity = 2

                         Standard orientation:
 ---------------------------------------------------------------------
 Center     Atomic      Atomic             Coordinates (Angstroms)
 Number     Number       Type             X           Y           Z
 ---------------------------------------------------------------------
      1          6           0        1.894987    1.314788   -0.364430
      2          6           0        0.464948    0.733976   -0.507666
      3          6           0        0.406595   -0.682422    0.202417
      4          6           0        1.605361   -0.796506    1.156910
      5         16           0        2.944234   -0.059828    0.180002
      6          8           0        3.143236   -0.957334   -0.985208
      7          8           0        4.089703    0.381842    0.983267
      8          8           0        0.392149   -1.739666   -0.737343
      9          7           0       -0.491520    1.737957   -0.061829
     10          6           0       -1.833993    1.692207   -0.659781
     11          6           0       -2.752449    0.575585   -0.236574
     12          6           0       -3.811469    0.690419    0.616296
     13          8           0       -4.427787   -0.512456    0.795509
     14          6           0       -3.742620   -1.419056    0.036494
     15          6           0       -2.715628   -0.816038   -0.618893
     16          1           0        1.932914    2.085206    0.410001
     17          1           0        2.303397    1.717788   -1.292508
     18          1           0        0.261005    0.537217   -1.562976
     19          1           0       -0.526961   -0.762225    0.760661
     20          1           0        1.852550   -1.829481    1.406437
     21          1           0        1.490286   -0.200636    2.067535
     22          1           0        1.271339   -1.751961   -1.165091
     23          1           0       -0.563615    1.740579    0.954416
     24          1           0       -2.315312    2.649551   -0.429115
     25          1           0       -1.693112    1.670210   -1.746895
     26          1           0       -4.245952    1.525488    1.145628
     27          1           0       -4.112769   -2.432008    0.072172
     28          1           0       -1.993678   -1.294971   -1.265942
 ---------------------------------------------------------------------

 SCF Done:  E(UB3LYP) =  -1104.79345331     A.U. after   33 cycles
 SCF Done:  E(UB3LYP) =  -1104.79345331     a.u. after    1 cycles

 The electronic state is 2-A.
 Alpha  occ. eigenvalues --  -88.95712 -19.09954 -19.03835 -19.03355 -19.03224
 Alpha  occ. eigenvalues --  -14.21307 -10.14961 -10.13277 -10.13241 -10.12671
 Alpha  occ. eigenvalues --  -10.11941 -10.11917 -10.11196 -10.08459 -10.07970
 Alpha  occ. eigenvalues --   -8.02285  -5.98563  -5.98416  -5.98362  -1.02262
 Alpha  occ. eigenvalues --   -1.02217  -0.94786  -0.91940  -0.82868  -0.74636
 Alpha  occ. eigenvalues --   -0.71561  -0.66810  -0.65856  -0.62228  -0.57760
 Alpha  occ. eigenvalues --   -0.52236  -0.51113  -0.50010  -0.47960  -0.44973
 Alpha  occ. eigenvalues --   -0.44139  -0.41229  -0.40580  -0.39341  -0.38459
 Alpha  occ. eigenvalues --   -0.36889  -0.36252  -0.35744  -0.35456  -0.33685
 Alpha  occ. eigenvalues --   -0.33405  -0.32660  -0.31354  -0.30875  -0.30071
 Alpha  occ. eigenvalues --   -0.28200  -0.27129  -0.26215  -0.23921  -0.23848
 Alpha  occ. eigenvalues --   -0.22605  -0.21509  -0.19871  -0.18671  -0.14788
 Alpha  occ. eigenvalues --   -0.13488   0.04299
 Alpha virt. eigenvalues --    0.06966   0.07130   0.07240   0.08551   0.08953
 Alpha virt. eigenvalues --    0.09346   0.09904   0.10082   0.11125   0.11642
 Alpha virt. eigenvalues --    0.11945   0.12354   0.12891   0.13193   0.13968

  Beta  occ. eigenvalues --  -88.95711 -19.09954 -19.03831 -19.03352 -19.03214
  Beta  occ. eigenvalues --  -14.21260 -10.14952 -10.13273 -10.13235 -10.12640
  Beta  occ. eigenvalues --  -10.11912 -10.11863 -10.11173 -10.08462 -10.07961
  Beta  occ. eigenvalues --   -8.02283  -5.98561  -5.98416  -5.98362  -1.02246
  Beta  occ. eigenvalues --   -1.02210  -0.94774  -0.91922  -0.82809  -0.74597
  Beta  occ. eigenvalues --   -0.71539  -0.66761  -0.65815  -0.62193  -0.57694
  Beta  occ. eigenvalues --   -0.52182  -0.51062  -0.49981  -0.47910  -0.44935
  Beta  occ. eigenvalues --   -0.44112  -0.41178  -0.40549  -0.39311  -0.38392
  Beta  occ. eigenvalues --   -0.36856  -0.36234  -0.35705  -0.35431  -0.33649
  Beta  occ. eigenvalues --   -0.33364  -0.32621  -0.31307  -0.30842  -0.30052
  Beta  occ. eigenvalues --   -0.28157  -0.27099  -0.26183  -0.23903  -0.23838
  Beta  occ. eigenvalues --   -0.22595  -0.21490  -0.19848  -0.18649  -0.14755
  Beta  occ. eigenvalues --   -0.13452
  Beta virt. eigenvalues --    0.06720   0.07426   0.07886   0.08210   0.08665
  Beta virt. eigenvalues --    0.09226   0.09832   0.10289   0.10778   0.11214
  Beta virt. eigenvalues --    0.11834   0.12193   0.12597   0.13187   0.13488

 Mulliken charges and spin densities:
               1          2
     1  C   -0.517447  -0.402351
     2  C    0.401026  -0.517463
     3  C   -0.437477   0.031504
     4  C   -0.123096  -0.887105
     5  S    0.912522  -0.262187
     6  O   -0.288707   0.018873
     7  O   -0.089930   0.027915
     8  O   -0.079282   0.008550
     9  N    0.015040   0.153013
    10  C    1.711611  -2.949083
    11  C    0.331623  -0.121805
    12  C    0.133629  -0.206214
    13  O   -0.047317   0.024150
    14  C    0.076469  -0.696976
    15  C   -1.342235   2.058692
    16  H    0.000292   0.270173
    17  H   -0.046885   0.283344
    18  H    0.157941   0.061407
    19  H    0.138044   0.176482
    20  H    0.140754   0.130743
    21  H   -0.584487   0.854603
    22  H    0.195421   0.019342
    23  H   -0.096720   0.357644
    24  H   -0.650266   0.861494
    25  H    0.085443   0.070913
    26  H   -1.064160   1.265721
    27  H   -0.013923   0.169625
    28  H    0.082118   0.198998
 Sum of Mulliken charges =  -1.00000   1.00000

 Dipole moment (field-independent basis, Debye):
    X=              0.9764    Y=             -4.6015    Z=             -4.7725  Tot=              6.7011
 Quadrupole moment (field-independent basis, Debye-Ang):
   XX=           -175.5592   YY=           -138.1909   ZZ=           -133.2080
   XY=             12.8954   XZ=              3.7238   YZ=             -8.9573

 Summary of Natural Population Analysis:

                                       Natural Population
                Natural  -----------------------------------------------
    Atom  No    Charge         Core      Valence    Rydberg      Total
 -----------------------------------------------------------------------
      C    1   -0.29076      0.99957     2.27721    0.01398     3.29076
      C    2   -0.02602      0.99957     2.01167    0.01478     3.02602
      C    3    0.03792      0.99955     1.94412    0.01841     2.96208
      C    4   -0.30224      0.99958     2.28836    0.01431     3.30224
      S    5    1.01462      4.99926     1.89462    0.09150     6.98538
      O    6   -0.48519      0.99991     3.47985    0.00543     4.48519
      O    7   -0.45649      0.99991     3.45100    0.00558     4.45649
      O    8   -0.37667      0.99989     3.37042    0.00635     4.37667
      N    9   -0.33896      0.99973     2.82518    0.01405     3.83896
      C   10   -0.09302      0.99957     2.08008    0.01336     3.09302
      C   11   -0.07818      0.99951     2.06723    0.01143     3.07818
      C   12    0.07131      0.99943     1.91419    0.01507     2.92869
      O   13   -0.23375      0.99987     3.22559    0.00829     4.23375
      C   14    0.06077      0.99951     1.92627    0.01345     2.93923
      C   15   -0.15302      0.99952     2.14495    0.00855     3.15302
      H   16    0.12518      0.00000     0.37292    0.00190     0.37482
      H   17    0.12011      0.00000     0.37878    0.00111     0.37989
      H   18    0.10404      0.00000     0.39430    0.00167     0.39596
      H   19    0.10945      0.00000     0.38773    0.00282     0.39055
      H   20    0.12268      0.00000     0.37612    0.00120     0.37732
      H   21    0.12700      0.00000     0.36972    0.00328     0.37300
      H   22    0.24129      0.00000     0.25572    0.00299     0.25871
      H   23    0.18403      0.00000     0.30215    0.01383     0.31597
      H   24    0.10559      0.00000     0.39267    0.00174     0.39441
      H   25    0.09594      0.00000     0.40264    0.00142     0.40406
      H   26    0.10088      0.00000     0.39627    0.00285     0.39912
      H   27    0.09381      0.00000     0.40528    0.00091     0.40619
      H   28    0.11968      0.00000     0.37904    0.00128     0.38032
 =======================================================================
   * Total *    0.00000     18.99439    41.71407    0.29154    61.00000

 Normal termination of Gaussian 16 at Mon Jan  4 10:02:47 2021.
