 Gaussian 16, Revision A.03,

 -----------------------------------------------------------
 # opt freq B3LYP/6-31G(d) empiricaldispersion=gd3bj scf=xqc
 -----------------------------------------------------------

 --------------------------------
 CID_117221931_JID_10349_neutraal
 --------------------------------
 Symbolic Z-matrix:
 Charge =  0 Multiplicity = 1

 SCF Done:  E(RB3LYP) =  -920.296220865     A.U. after   15 cycles
 SCF Done:  E(RB3LYP) =  -920.300343546     A.U. after   12 cycles
 SCF Done:  E(RB3LYP) =  -920.300791240     A.U. after   12 cycles
 SCF Done:  E(RB3LYP) =  -920.300862989     A.U. after   12 cycles
 SCF Done:  E(RB3LYP) =  -920.300916867     A.U. after   10 cycles
 SCF Done:  E(RB3LYP) =  -920.300952353     A.U. after   11 cycles
 SCF Done:  E(RB3LYP) =  -920.300982732     A.U. after   10 cycles
 SCF Done:  E(RB3LYP) =  -920.301017293     A.U. after   11 cycles
 SCF Done:  E(RB3LYP) =  -920.301029042     A.U. after   11 cycles
 SCF Done:  E(RB3LYP) =  -920.301039548     A.U. after   11 cycles
 SCF Done:  E(RB3LYP) =  -920.301049072     A.U. after    8 cycles
 SCF Done:  E(RB3LYP) =  -920.301049217     A.U. after    8 cycles
 SCF Done:  E(RB3LYP) =  -920.301049247     A.U. after    7 cycles
 SCF Done:  E(RB3LYP) =  -920.301049279     A.U. after    7 cycles
 SCF Done:  E(RB3LYP) =  -920.301049299     A.U. after    7 cycles
 SCF Done:  E(RB3LYP) =  -920.301049306     A.U. after    7 cycles
 Optimization completed.
    -- Stationary point found.
 Normal termination of Gaussian 16 at Mon Dec 14 17:48:01 2020.

 --------------------------------------------------------------------
 #N Geom=AllCheck Guess=TCheck SCRF=Check GenChk RB3LYP/6-31G(d) Freq
 --------------------------------------------------------------------

 Structure from the checkpoint file:  "JID_10349.chk"
 --------------------------------
 CID_117221931_JID_10349_neutraal
 --------------------------------
 Charge =  0 Multiplicity = 1

 SCF Done:  E(RB3LYP) =  -920.301049306     A.U. after    1 cycles

  Exact polarizability: 207.537  -0.160 183.848 -35.766  -1.018 129.626
 Approx polarizability: 289.019  -1.132 305.743 -79.194   7.000 222.025

                      1                      2                      3
                      A                      A                      A
 Frequencies --      9.9998                22.0740                25.6537
 Red. masses --      6.4763                 5.1300                 3.7182
 Frc consts  --      0.0004                 0.0015                 0.0014
 IR Inten    --      0.2482                 0.4165                 0.4810

                      4                      5                      6
                      A                      A                      A
 Frequencies --     34.7290                71.1247                88.2872
 Red. masses --      7.2994                 3.6678                 5.1538
 Frc consts  --      0.0052                 0.0109                 0.0237
 IR Inten    --      1.5217                 1.7705                 0.5068

                      7                      8                      9
                      A                      A                      A
 Frequencies --    104.5279               136.0511               164.0848
 Red. masses --      4.6059                 4.1987                 4.8789
 Frc consts  --      0.0297                 0.0458                 0.0774
 IR Inten    --      1.5275                 0.1846                 1.7580

                     10                     11                     12
                      A                      A                      A
 Frequencies --    213.1327               223.2110               238.2439
 Red. masses --      1.3024                 2.5673                 1.9569
 Frc consts  --      0.0349                 0.0754                 0.0654
 IR Inten    --      0.5541                 2.5571                 0.6541

                     13                     14                     15
                      A                      A                      A
 Frequencies --    249.7013               275.5111               322.1766
 Red. masses --      3.2144                 1.7026                 2.7712
 Frc consts  --      0.1181                 0.0761                 0.1695
 IR Inten    --      2.7191                 1.2411                 0.6272

                     16                     17                     18
                      A                      A                      A
 Frequencies --    353.2980               367.1912               387.8742
 Red. masses --      4.3612                 4.4369                 5.5674
 Frc consts  --      0.3207                 0.3525                 0.4935
 IR Inten    --      1.1075                 5.5160                 3.2395

                     19                     20                     21
                      A                      A                      A
 Frequencies --    409.0633               424.0356               434.0864
 Red. masses --      4.9227                 4.7199                 3.2929
 Frc consts  --      0.4853                 0.5000                 0.3656
 IR Inten    --      0.6969                 6.7913                 0.1669

                     22                     23                     24
                      A                      A                      A
 Frequencies --    434.6361               454.9346               495.5231
 Red. masses --      3.2229                 5.1783                 3.8707
 Frc consts  --      0.3587                 0.6314                 0.5600
 IR Inten    --      2.7987                 1.3970                12.4028

                     25                     26                     27
                      A                      A                      A
 Frequencies --    529.7987               542.0436               562.6638
 Red. masses --      3.5748                 4.2947                 2.6690
 Frc consts  --      0.5912                 0.7435                 0.4978
 IR Inten    --      6.9706                 1.3564                13.4576

                     28                     29                     30
                      A                      A                      A
 Frequencies --    600.1152               652.3476               655.5739
 Red. masses --      2.1548                 2.9226                 5.4644
 Frc consts  --      0.4572                 0.7328                 1.3837
 IR Inten    --     11.6994                46.9612                35.9038

                     31                     32                     33
                      A                      A                      A
 Frequencies --    659.2740               717.0990               724.4188
 Red. masses --      2.6229                 3.7935                 3.9801
 Frc consts  --      0.6717                 1.1494                 1.2306
 IR Inten    --     55.2484                10.1731                17.7896

                     34                     35                     36
                      A                      A                      A
 Frequencies --    737.7735               750.6860               776.3962
 Red. masses --      4.2147                 4.0985                 3.3401
 Frc consts  --      1.3516                 1.3608                 1.1862
 IR Inten    --      9.8310                19.0525                22.9492

                     37                     38                     39
                      A                      A                      A
 Frequencies --    792.6341               818.9810               844.0419
 Red. masses --      5.9205                 1.2528                 2.3050
 Frc consts  --      2.1916                 0.4951                 0.9675
 IR Inten    --     26.2051                 1.1833                 5.0643

                     40                     41                     42
                      A                      A                      A
 Frequencies --    854.1996               856.6323               930.0394
 Red. masses --      2.1807                 1.8311                 3.3970
 Frc consts  --      0.9375                 0.7917                 1.7312
 IR Inten    --      2.9233                51.5804                 6.0285

                     43                     44                     45
                      A                      A                      A
 Frequencies --    939.6432               949.6359               960.2626
 Red. masses --      1.3588                 1.3010                 1.6120
 Frc consts  --      0.7069                 0.6913                 0.8758
 IR Inten    --      3.4573                 1.6986                14.0907

                     46                     47                     48
                      A                      A                      A
 Frequencies --    973.6921              1013.7162              1023.8551
 Red. masses --      1.3472                 4.1834                 2.2366
 Frc consts  --      0.7525                 2.5329                 1.3814
 IR Inten    --      0.2742               103.0578                12.6203

                     49                     50                     51
                      A                      A                      A
 Frequencies --   1033.1019              1048.2643              1077.2586
 Red. masses --      2.4546                 1.4825                 1.5313
 Frc consts  --      1.5435                 0.9598                 1.0470
 IR Inten    --     11.9056                 0.5020                 3.2797

                     52                     53                     54
                      A                      A                      A
 Frequencies --   1085.0885              1116.5908              1132.9615
 Red. masses --      6.2386                 3.0614                 1.2612
 Frc consts  --      4.3278                 2.2488                 0.9538
 IR Inten    --     59.6101                 5.6927                12.6290

                     55                     56                     57
                      A                      A                      A
 Frequencies --   1175.4659              1187.2252              1191.1059
 Red. masses --      1.8754                 1.2716                 1.1669
 Frc consts  --      1.5268                 1.0560                 0.9754
 IR Inten    --    204.2429                 0.7293                 2.1913

                     58                     59                     60
                      A                      A                      A
 Frequencies --   1206.4122              1219.6026              1237.2241
 Red. masses --      1.7194                 1.3933                 2.4147
 Frc consts  --      1.4744                 1.2211                 2.1777
 IR Inten    --    179.2448                11.5368                 6.1030

                     61                     62                     63
                      A                      A                      A
 Frequencies --   1242.2301              1257.7404              1286.6852
 Red. masses --      2.4970                 2.6291                 1.5460
 Frc consts  --      2.2702                 2.4505                 1.5080
 IR Inten    --    230.3456                10.2761               128.7379

                     64                     65                     66
                      A                      A                      A
 Frequencies --   1304.1258              1322.4008              1330.9239
 Red. masses --      3.6148                 1.5228                 1.3367
 Frc consts  --      3.6222                 1.5690                 1.3950
 IR Inten    --     67.7795                 7.5727                 0.3448

                     67                     68                     69
                      A                      A                      A
 Frequencies --   1356.7826              1360.5403              1388.5698
 Red. masses --      7.9589                 3.7736                 2.4489
 Frc consts  --      8.6322                 4.1156                 2.7820
 IR Inten    --     33.1256                 6.1845                74.5430

                     70                     71                     72
                      A                      A                      A
 Frequencies --   1415.1515              1447.4536              1465.3994
 Red. masses --      1.3375                 1.2383                 3.2401
 Frc consts  --      1.5782                 1.5286                 4.0994
 IR Inten    --     15.4547                 2.0183                 0.3248

                     73                     74                     75
                      A                      A                      A
 Frequencies --   1469.3397              1500.2605              1512.7070
 Red. masses --      3.2236                 1.2014                 1.0448
 Frc consts  --      4.1005                 1.5932                 1.4087
 IR Inten    --     48.3510                25.2736                 5.4867

                     76                     77                     78
                      A                      A                      A
 Frequencies --   1520.5941              1520.8935              1524.0146
 Red. masses --      1.0484                 1.1237                 1.1158
 Frc consts  --      1.4283                 1.5314                 1.5269
 IR Inten    --      6.1476                14.0765                 5.5052

                     79                     80                     81
                      A                      A                      A
 Frequencies --   1536.3125              1545.5971              1563.1433
 Red. masses --      1.0722                 2.7612                 2.3740
 Frc consts  --      1.4911                 3.8864                 3.4176
 IR Inten    --     54.6139                 9.2339               192.7811

                     82                     83                     84
                      A                      A                      A
 Frequencies --   1626.4600              1639.8237              1673.0865
 Red. masses --      5.8402                 6.9923                 6.0251
 Frc consts  --      9.1025                11.0781                 9.9370
 IR Inten    --      4.4363                 8.0665                30.2667

                     85                     86                     87
                      A                      A                      A
 Frequencies --   1675.1907              1809.3166              3022.5314
 Red. masses --      6.0006                 9.4113                 1.0350
 Frc consts  --      9.9215                18.1522                 5.5711
 IR Inten    --     13.0682               295.2149                52.0847

                     88                     89                     90
                      A                      A                      A
 Frequencies --   3038.0853              3067.1995              3079.7699
 Red. masses --      1.0676                 1.0356                 1.1064
 Frc consts  --      5.8059                 5.7400                 6.1832
 IR Inten    --     44.1388                20.0271                44.7524

                     91                     92                     93
                      A                      A                      A
 Frequencies --   3125.9747              3132.6417              3138.3261
 Red. masses --      1.0978                 1.1003                 1.1038
 Frc consts  --      6.3206                 6.3616                 6.4051
 IR Inten    --     27.4669                10.0086                18.4547

                     94                     95                     96
                      A                      A                      A
 Frequencies --   3157.4936              3185.1641              3199.1339
 Red. masses --      1.0994                 1.0872                 1.0881
 Frc consts  --      6.4579                 6.4989                 6.5612
 IR Inten    --     29.1875                 9.8008                10.0212

                     97                     98                     99
                      A                      A                      A
 Frequencies --   3201.9635              3215.2616              3218.0362
 Red. masses --      1.0945                 1.0887                 1.0940
 Frc consts  --      6.6112                 6.6314                 6.6749
 IR Inten    --     16.4478                10.5879                 6.6601

                    100                    101                    102
                      A                      A                      A
 Frequencies --   3219.5068              3232.0763              3685.8468
 Red. masses --      1.0903                 1.0932                 1.0639
 Frc consts  --      6.6584                 6.7281                 8.5157
 IR Inten    --      1.3594                 6.8090                72.3594

 - Thermochemistry -
 -------------------
 Temperature   298.150 Kelvin.  Pressure   1.00000 Atm.
 Atom     1 has atomic number  6 and mass  12.00000

 Molecular mass:   272.10486 amu.
 Principal axes and moments of inertia in atomic units:
                           1         2         3
     Eigenvalues --  3102.68700********************
           X            0.99999  -0.00185   0.00516
           Y            0.00194   0.99984  -0.01760
           Z           -0.00512   0.01761   0.99983
 This molecule is an asymmetric top.
 Rotational symmetry number  1.
 Warning -- assumption of classical behavior for rotation
           may cause significant error
 Rotational temperatures (Kelvin)      0.02792     0.00852     0.00753
 Rotational constants (GHZ):           0.58167     0.17744     0.15698
 Zero-point vibrational energy     763987.5 (Joules/Mol)
                                  182.59739 (Kcal/Mol)
 Warning -- explicit consideration of  28 degrees of freedom as
           vibrations may cause significant error
 Vibrational temperatures:     14.39    31.76    36.91    49.97   102.33
          (Kelvin)            127.03   150.39   195.75   236.08   306.65
                              321.15   342.78   359.26   396.40   463.54
                              508.32   528.31   558.06   588.55   610.09
                              624.55   625.34   654.55   712.95   762.26
                              779.88   809.55   863.43   938.58   943.22
                              948.55  1031.75  1042.28  1061.49  1080.07
                             1117.06  1140.42  1178.33  1214.39  1229.00
                             1232.50  1338.12  1351.94  1366.31  1381.60
                             1400.93  1458.51  1473.10  1486.40  1508.22
                             1549.93  1561.20  1606.53  1630.08  1691.23
                             1708.15  1713.74  1735.76  1754.74  1780.09
                             1787.29  1809.61  1851.25  1876.35  1902.64
                             1914.90  1952.11  1957.51  1997.84  2036.09
                             2082.56  2108.38  2114.05  2158.54  2176.45
                             2187.80  2188.23  2192.72  2210.41  2223.77
                             2249.01  2340.11  2359.34  2407.20  2410.23
                             2603.20  4348.75  4371.13  4413.02  4431.10
                             4497.58  4507.17  4515.35  4542.93  4582.74
                             4602.84  4606.91  4626.04  4630.04  4632.15
                             4650.24  5303.11

 Zero-point correction=                           0.290987 (Hartree/Particle)
 Thermal correction to Energy=                    0.309194
 Thermal correction to Enthalpy=                  0.310138
 Thermal correction to Gibbs Free Energy=         0.241047
 Sum of electronic and zero-point Energies=           -920.010062
 Sum of electronic and thermal Energies=              -919.991856
 Sum of electronic and thermal Enthalpies=            -919.990911
 Sum of electronic and thermal Free Energies=         -920.060003

                     E (Thermal)             CV                S
                      KCal/Mol        Cal/Mol-Kelvin    Cal/Mol-Kelvin
 Total                  194.022             69.227            145.414
 Electronic               0.000              0.000              0.000
 Translational            0.889              2.981             42.702
 Rotational               0.889              2.981             34.250
 Vibrational            192.245             63.266             68.463
 Vibration     1          0.593              1.987              8.011
 Vibration     2          0.593              1.985              6.438
 Vibration     3          0.593              1.985              6.140
 Vibration     4          0.594              1.983              5.539
 Vibration     5          0.598              1.968              4.122
 Vibration     6          0.601              1.957              3.698
 Vibration     7          0.605              1.946              3.368
 Vibration     8          0.614              1.917              2.859
 Vibration     9          0.623              1.887              2.502
 Vibration    10          0.644              1.821              2.017
 Vibration    11          0.649              1.806              1.933
 Vibration    12          0.656              1.782              1.816
 Vibration    13          0.662              1.763              1.733
 Vibration    14          0.677              1.719              1.561
 Vibration    15          0.707              1.631              1.299
 Vibration    16          0.729              1.568              1.151
 Vibration    17          0.740              1.540              1.092
 Vibration    18          0.756              1.496              1.008
 Vibration    19          0.773              1.451              0.930
 Vibration    20          0.786              1.418              0.878
 Vibration    21          0.795              1.396              0.845
 Vibration    22          0.795              1.395              0.844
 Vibration    23          0.813              1.350              0.781
 Vibration    24          0.851              1.260              0.669
 Vibration    25          0.885              1.184              0.588
 Vibration    26          0.897              1.157              0.561
 Vibration    27          0.918              1.112              0.519
 Vibration    28          0.958              1.032              0.449

 Optimization completed.
    -- Stationary point found.
 Normal termination of Gaussian 16 at Mon Dec 14 18:06:46 2020.

 ----------------------------------------------------------------------
 # B3LYP/6-311++G(d,p) empiricaldispersion=gd3bj scf=xqc pop=npa geom=c
 heck
 ----------------------------------------------------------------------

 ----------------------------------------
 CID_117221931_JID_10349_Energie_neutraal
 ----------------------------------------
 Structure from the checkpoint file:  "JID_10349.chk"
 Charge =  0 Multiplicity = 1

 SCF Done:  E(RB3LYP) =  -920.559290882     A.U. after   15 cycles
 Normal termination of Gaussian 16 at Mon Dec 14 18:14:58 2020.

 ----------------------------------------------------------------------
 # B3LYP/6-311++G(d,p) empiricaldispersion=gd3bj scf=xqc pop=npa geom=c
 heck
 ----------------------------------------------------------------------

 --------------------------------------
 CID_117221931_JID_10349_Energie_kation
 --------------------------------------
 Structure from the checkpoint file:  "JID_10349.chk"
 Charge =  1 Multiplicity = 2

 SCF Done:  E(UB3LYP) =  -920.272473292     A.U. after   26 cycles
 Normal termination of Gaussian 16 at Mon Dec 14 18:35:06 2020.
 Gaussian 16:  ES64L-G16RevA.03 25-Dec-2016

 ----------------------------------------------------------------------
 # B3LYP/6-311++G(d,p) empiricaldispersion=gd3bj scf=xqc pop=npa geom=c
 heck
 ----------------------------------------------------------------------

 -------------------------------------
 CID_117221931_JID_10349_Energie_anion
 -------------------------------------
 Structure from the checkpoint file:  "JID_10349.chk"
 Charge = -1 Multiplicity = 2

                         Standard orientation:
 ---------------------------------------------------------------------
 Center     Atomic      Atomic             Coordinates (Angstroms)
 Number     Number       Type             X           Y           Z
 ---------------------------------------------------------------------
      1          6           0        3.159684    2.430554    1.099680
      2          6           0        2.431843    1.117944    0.934849
      3          6           0        2.811120    0.095117    0.031815
      4          6           0        2.063948   -1.089153   -0.040810
      5          6           0        0.946105   -1.304688    0.759791
      6          6           0        0.567623   -0.293828    1.646805
      7          6           0        1.301142    0.886093    1.727948
      8          6           0        0.116880   -2.552814    0.599596
      9          8           0       -0.782613   -2.464058   -0.521415
     10          6           0       -1.747747   -1.482090   -0.393395
     11          6           0       -2.856385   -1.676698    0.437991
     12          6           0       -3.829706   -0.691468    0.543253
     13          6           0       -3.708847    0.500829   -0.184934
     14          6           0       -2.603490    0.694186   -1.019926
     15          6           0       -1.624223   -0.298094   -1.113321
     16          8           0       -4.719541    1.405120   -0.012052
     17          6           0       -4.646696    2.621257   -0.734513
     18          6           0        3.977090    0.143930   -0.893771
     19          8           0        4.295028   -0.759219   -1.644017
     20          8           0        4.691357    1.298422   -0.854010
     21          1           0        4.202561    2.281194    1.393568
     22          1           0        3.180770    3.000879    0.166630
     23          1           0        2.666456    3.035862    1.865710
     24          1           0        2.382791   -1.844224   -0.751776
     25          1           0       -0.312423   -0.426986    2.270279
     26          1           0        0.988963    1.658177    2.425695
     27          1           0        0.745000   -3.419794    0.381028
     28          1           0       -0.451305   -2.755253    1.517494
     29          1           0       -2.954231   -2.608129    0.987815
     30          1           0       -4.700551   -0.825080    1.176837
     31          1           0       -2.488233    1.606602   -1.592665
     32          1           0       -0.753332   -0.157787   -1.744627
     33          1           0       -3.752074    3.198481   -0.464444
     34          1           0       -4.645869    2.446998   -1.818839
     35          1           0       -5.538135    3.188180   -0.460581
     36          1           0        5.405723    1.172286   -1.506510
 ---------------------------------------------------------------------

 SCF Done:  E(UB3LYP) =  -920.565294170     A.U. after   31 cycles

 The electronic state is 2-A.
 Alpha  occ. eigenvalues --  -19.06544 -19.03240 -19.03080 -18.95698 -10.14400
 Alpha  occ. eigenvalues --  -10.14146 -10.13718 -10.12377 -10.11514 -10.08385
 Alpha  occ. eigenvalues --  -10.08288 -10.08259 -10.07762 -10.05251 -10.04680
 Alpha  occ. eigenvalues --  -10.04520 -10.04004 -10.03832 -10.03568 -10.03267
 Alpha  occ. eigenvalues --   -0.98149  -0.96989  -0.94616  -0.87232  -0.75988
 Alpha  occ. eigenvalues --   -0.73152  -0.67233  -0.66248  -0.65362  -0.62570
 Alpha  occ. eigenvalues --   -0.61438  -0.58727  -0.54512  -0.52756  -0.52120
 Alpha  occ. eigenvalues --   -0.49195  -0.46270  -0.45248  -0.44736  -0.41328
 Alpha  occ. eigenvalues --   -0.40455  -0.38412  -0.37398  -0.36483  -0.36130
 Alpha  occ. eigenvalues --   -0.35281  -0.34208  -0.34049  -0.33319  -0.32822
 Alpha  occ. eigenvalues --   -0.32097  -0.31514  -0.30373  -0.29353  -0.29192
 Alpha  occ. eigenvalues --   -0.28811  -0.27900  -0.27325  -0.26125  -0.24855
 Alpha  occ. eigenvalues --   -0.24469  -0.23031  -0.22755  -0.21576  -0.21100
 Alpha  occ. eigenvalues --   -0.19167  -0.17462  -0.16536  -0.14156  -0.13042
 Alpha  occ. eigenvalues --   -0.12412  -0.12076   0.04051
 Alpha virt. eigenvalues --    0.05242   0.07566   0.07689   0.08027   0.08364
 Alpha virt. eigenvalues --    0.09057   0.09344   0.09533   0.10059   0.10584
 Alpha virt. eigenvalues --    0.10875   0.11126   0.11875   0.12099   0.12512

  Beta  occ. eigenvalues --  -19.06538 -19.03154 -19.03079 -18.95440 -10.14148
  Beta  occ. eigenvalues --  -10.14139 -10.13687 -10.12376 -10.11508 -10.08381
  Beta  occ. eigenvalues --  -10.08289 -10.08255 -10.07758 -10.05061 -10.04696
  Beta  occ. eigenvalues --  -10.04572 -10.04064 -10.03688 -10.03431 -10.02933
  Beta  occ. eigenvalues --   -0.98135  -0.96692  -0.94616  -0.86827  -0.75979
  Beta  occ. eigenvalues --   -0.72828  -0.67153  -0.66180  -0.65243  -0.62091
  Beta  occ. eigenvalues --   -0.61357  -0.58676  -0.54311  -0.52743  -0.51632
  Beta  occ. eigenvalues --   -0.49120  -0.46146  -0.45010  -0.44668  -0.41281
  Beta  occ. eigenvalues --   -0.40427  -0.38386  -0.37297  -0.36362  -0.36117
  Beta  occ. eigenvalues --   -0.35094  -0.34143  -0.33805  -0.33274  -0.32730
  Beta  occ. eigenvalues --   -0.31471  -0.31129  -0.30230  -0.29304  -0.28781
  Beta  occ. eigenvalues --   -0.28666  -0.27862  -0.27144  -0.26043  -0.24796
  Beta  occ. eigenvalues --   -0.24449  -0.22736  -0.22204  -0.21460  -0.20969
  Beta  occ. eigenvalues --   -0.18036  -0.17437  -0.16502  -0.13896  -0.12502
  Beta  occ. eigenvalues --   -0.11558  -0.11149
  Beta virt. eigenvalues --    0.06013   0.07569   0.07609   0.08117   0.08563
  Beta virt. eigenvalues --    0.08897   0.09214   0.09380   0.09851   0.10203
  Beta virt. eigenvalues --    0.10541   0.11104   0.11136   0.11965   0.12022

 Mulliken charges and spin densities:
               1          2
     1  C   -0.811933  -0.018756
     2  C    0.674581   0.120925
     3  C   -0.312437   0.113765
     4  C   -0.635615   0.124239
     5  C    0.647362  -0.045752
     6  C   -0.216122   0.297477
     7  C   -0.445411  -0.061776
     8  C   -0.765135   0.000242
     9  O   -0.079034   0.005388
    10  C   -0.419371  -0.163133
    11  C    0.151966   0.119887
    12  C   -0.199953   0.106615
    13  C   -1.045333   0.371132
    14  C    0.353068  -0.201680
    15  C    0.569215  -0.338367
    16  O   -0.193256   0.032717
    17  C    0.407312  -0.755896
    18  C    0.403920   0.117490
    19  O   -0.405270   0.092438
    20  O   -0.236350   0.014462
    21  H    0.155935   0.006905
    22  H    0.154830   0.017543
    23  H    0.108348   0.002271
    24  H    0.216918  -0.008741
    25  H    0.121899  -0.024078
    26  H    0.100103   0.008540
    27  H    0.150129  -0.000502
    28  H    0.116865   0.007354
    29  H    0.157547   0.004377
    30  H    0.162250   0.017461
    31  H    0.157529   0.031076
    32  H    0.190293   0.021878
    33  H    0.013723   0.141885
    34  H   -0.077982   0.226642
    35  H   -0.448399   0.617528
    36  H    0.277804  -0.001558
 Sum of Mulliken charges =  -1.00000   1.00000

 Dipole moment (field-independent basis, Debye):
    X=             -1.8264    Y=             -0.6038    Z=              1.9582  Tot=              2.7449
 Quadrupole moment (field-independent basis, Debye-Ang):
   XX=           -198.0422   YY=           -143.7963   ZZ=           -135.7398
   XY=             20.8126   XZ=             -0.0792   YZ=             -6.7209

 Summary of Natural Population Analysis:

                                       Natural Population
                Natural  -----------------------------------------------
    Atom  No    Charge         Core      Valence    Rydberg      Total
 -----------------------------------------------------------------------
      C    1   -0.29327      0.99964     2.28872    0.00490     3.29327
      C    2    0.03894      0.99951     1.95363    0.00792     2.96106
      C    3   -0.06268      0.99942     2.05367    0.00960     3.06268
      C    4   -0.03985      0.99950     2.03155    0.00880     3.03985
      C    5   -0.06861      0.99949     2.06085    0.00827     3.06861
      C    6   -0.02453      0.99952     2.01653    0.00848     3.02453
      C    7   -0.12512      0.99953     2.11699    0.00859     3.12512
      C    8   -0.00999      0.99952     1.99903    0.01144     3.00999
      O    9   -0.29474      0.99987     3.28529    0.00958     4.29474
      C   10    0.14041      0.99936     1.84507    0.01516     2.85959
      C   11   -0.11335      0.99951     2.10624    0.00759     3.11335
      C   12   -0.12064      0.99954     2.11202    0.00908     3.12064
      C   13    0.15154      0.99938     1.83522    0.01385     2.84846
      C   14   -0.14112      0.99953     2.13295    0.00864     3.14112
      C   15   -0.09992      0.99952     2.09051    0.00989     3.09992
      O   16   -0.27578      0.99986     3.26612    0.00980     4.27578
      C   17   -0.10172      0.99960     2.09279    0.00932     3.10172
      C   18    0.42807      0.99967     1.54831    0.02395     2.57193
      O   19   -0.31095      0.99987     3.30359    0.00749     4.31095
      O   20   -0.35289      0.99988     3.34550    0.00751     4.35289
      H   21    0.10583      0.00000     0.39314    0.00102     0.39417
      H   22    0.10692      0.00000     0.39209    0.00099     0.39308
      H   23    0.09057      0.00000     0.40844    0.00099     0.40943
      H   24    0.10744      0.00000     0.39174    0.00082     0.39256
      H   25    0.08982      0.00000     0.40885    0.00133     0.41018
      H   26    0.08987      0.00000     0.40849    0.00164     0.41013
      H   27    0.09140      0.00000     0.40749    0.00112     0.40860
      H   28    0.07802      0.00000     0.42050    0.00148     0.42198
      H   29    0.10214      0.00000     0.39697    0.00089     0.39786
      H   30    0.10382      0.00000     0.39516    0.00102     0.39618
      H   31    0.10496      0.00000     0.39398    0.00106     0.39504
      H   32    0.11115      0.00000     0.38709    0.00175     0.38885
      H   33    0.08501      0.00000     0.41363    0.00136     0.41499
      H   34    0.08340      0.00000     0.41522    0.00138     0.41660
      H   35    0.09412      0.00000     0.40458    0.00130     0.40588
      H   36    0.23171      0.00000     0.26534    0.00295     0.26829
 =======================================================================
   * Total *    0.00001     19.99172    51.78728    0.22099    71.99999

 Normal termination of Gaussian 16 at Mon Dec 14 19:00:15 2020.
