 Gaussian 16, Revision A.03,

 -----------------------------------------------------------
 # opt freq B3LYP/6-31G(d) empiricaldispersion=gd3bj scf=xqc
 -----------------------------------------------------------

 ------------------------------
 CID_20307664_JID_3141_neutraal
 ------------------------------
 Symbolic Z-matrix:
 Charge =  0 Multiplicity = 1

 SCF Done:  E(RB3LYP) =  -580.491702068     A.U. after   13 cycles
 SCF Done:  E(RB3LYP) =  -580.493681425     A.U. after   10 cycles
 SCF Done:  E(RB3LYP) =  -580.493799234     A.U. after   10 cycles
 SCF Done:  E(RB3LYP) =  -580.493811580     A.U. after    8 cycles
 SCF Done:  E(RB3LYP) =  -580.493813225     A.U. after    8 cycles
 SCF Done:  E(RB3LYP) =  -580.493813580     A.U. after    7 cycles
 SCF Done:  E(RB3LYP) =  -580.493813638     A.U. after    6 cycles
 Optimization completed.
    -- Stationary point found.
 Normal termination of Gaussian 16 at Wed Dec  9 22:23:26 2020.

 --------------------------------------------------------------------
 #N Geom=AllCheck Guess=TCheck SCRF=Check GenChk RB3LYP/6-31G(d) Freq
 --------------------------------------------------------------------

 Structure from the checkpoint file:  "JID_3141.chk"
 ------------------------------
 CID_20307664_JID_3141_neutraal
 ------------------------------
 Charge =  0 Multiplicity = 1

 SCF Done:  E(RB3LYP) =  -580.493813638     A.U. after    1 cycles

  Exact polarizability: 129.900  -2.720 118.574   3.053  -4.578  96.602
 Approx polarizability: 158.999 -10.909 181.114   6.555 -11.759 150.076

                      1                      2                      3
                      A                      A                      A
 Frequencies --     71.5308                95.0279               139.2486
 Red. masses --      3.2082                 3.2310                 2.6651
 Frc consts  --      0.0097                 0.0172                 0.0304
 IR Inten    --      0.1815                 0.6674                 0.8354

                      4                      5                      6
                      A                      A                      A
 Frequencies --    168.5037               191.5493               211.5418
 Red. masses --      3.2605                 1.1769                 1.2252
 Frc consts  --      0.0545                 0.0254                 0.0323
 IR Inten    --      1.4246                 0.6720                 0.5689

                      7                      8                      9
                      A                      A                      A
 Frequencies --    225.5447               275.0410               284.5761
 Red. masses --      2.2299                 2.0528                 2.1522
 Frc consts  --      0.0668                 0.0915                 0.1027
 IR Inten    --      1.2768                 1.5368                 0.6814

                     10                     11                     12
                      A                      A                      A
 Frequencies --    320.2862               362.6859               394.9025
 Red. masses --      2.3502                 2.4122                 3.2857
 Frc consts  --      0.1420                 0.1870                 0.3019
 IR Inten    --      0.2738                 5.2606                 0.4899

                     13                     14                     15
                      A                      A                      A
 Frequencies --    415.1087               428.3705               438.9416
 Red. masses --      2.4857                 2.4334                 1.9758
 Frc consts  --      0.2524                 0.2631                 0.2243
 IR Inten    --      0.9394                 0.0377                 1.4825

                     16                     17                     18
                      A                      A                      A
 Frequencies --    479.9963               484.2608               515.4314
 Red. masses --      3.4370                 4.4875                 4.3045
 Frc consts  --      0.4666                 0.6200                 0.6738
 IR Inten    --      5.2127                12.0930                 5.6094

                     19                     20                     21
                      A                      A                      A
 Frequencies --    573.8415               644.4621               700.8214
 Red. masses --      3.9329                 2.6813                 3.0662
 Frc consts  --      0.7630                 0.6561                 0.8873
 IR Inten    --      7.7120                 0.5683                 2.2324

                     22                     23                     24
                      A                      A                      A
 Frequencies --    787.0298               822.0085               830.6041
 Red. masses --      2.2105                 2.2612                 1.6117
 Frc consts  --      0.8067                 0.9002                 0.6551
 IR Inten    --      7.0618                 4.5466                 4.3927

                     25                     26                     27
                      A                      A                      A
 Frequencies --    854.7513               889.5165               913.7759
 Red. masses --      2.3032                 2.3936                 2.7228
 Frc consts  --      0.9914                 1.1158                 1.3395
 IR Inten    --      1.4860                31.5124                 8.4734

                     28                     29                     30
                      A                      A                      A
 Frequencies --    923.8140               937.3370               957.8956
 Red. masses --      2.0448                 2.2089                 1.7697
 Frc consts  --      1.0282                 1.1434                 0.9567
 IR Inten    --      3.2118                 7.6835                 1.6187

                     31                     32                     33
                      A                      A                      A
 Frequencies --   1004.4495              1011.3474              1033.0541
 Red. masses --      1.9342                 2.2009                 2.7472
 Frc consts  --      1.1498                 1.3263                 1.7274
 IR Inten    --      4.7164                16.3511                 7.5109

                     34                     35                     36
                      A                      A                      A
 Frequencies --   1035.1490              1057.3246              1074.5942
 Red. masses --      1.8236                 2.2488                 1.4768
 Frc consts  --      1.1513                 1.4812                 1.0047
 IR Inten    --      7.4574                 0.3809                 2.9590

                     37                     38                     39
                      A                      A                      A
 Frequencies --   1085.1168              1120.9988              1122.9600
 Red. masses --      2.2496                 2.1048                 2.1916
 Frc consts  --      1.5607                 1.5584                 1.6283
 IR Inten    --     18.1641                70.1489                71.6831

                     40                     41                     42
                      A                      A                      A
 Frequencies --   1159.9430              1164.1158              1187.0717
 Red. masses --      2.0126                 1.6912                 2.1958
 Frc consts  --      1.5954                 1.3503                 1.8231
 IR Inten    --     16.1489                 2.6901                 2.8454

                     43                     44                     45
                      A                      A                      A
 Frequencies --   1208.3321              1215.0217              1244.2667
 Red. masses --      3.5479                 2.4368                 1.5628
 Frc consts  --      3.0521                 2.1195                 1.4256
 IR Inten    --    213.4667                17.2234                 6.2513

                     46                     47                     48
                      A                      A                      A
 Frequencies --   1270.8627              1285.4808              1331.0522
 Red. masses --      1.3414                 1.2025                 1.4913
 Frc consts  --      1.2765                 1.1707                 1.5567
 IR Inten    --      5.9191                 5.2992                 0.6352

                     49                     50                     51
                      A                      A                      A
 Frequencies --   1335.2053              1376.6774              1385.9402
 Red. masses --      1.2552                 1.4589                 1.2354
 Frc consts  --      1.3184                 1.6291                 1.3981
 IR Inten    --      0.9888                 2.5358                 2.7960

                     52                     53                     54
                      A                      A                      A
 Frequencies --   1391.2599              1398.3192              1401.4811
 Red. masses --      1.4466                 1.2568                 1.6419
 Frc consts  --      1.6498                 1.4479                 1.9001
 IR Inten    --      6.5345                13.6672                 2.1295

                     55                     56                     57
                      A                      A                      A
 Frequencies --   1414.6974              1423.6552              1432.7201
 Red. masses --      1.8816                 1.2841                 1.2960
 Frc consts  --      2.2187                 1.5334                 1.5674
 IR Inten    --      0.9960                 8.4136                39.4311

                     58                     59                     60
                      A                      A                      A
 Frequencies --   1439.4208              1443.3364              1502.6215
 Red. masses --      1.3813                 1.2841                 1.0819
 Frc consts  --      1.6862                 1.5761                 1.4392
 IR Inten    --     10.5763                 2.4699                 3.0863

                     61                     62                     63
                      A                      A                      A
 Frequencies --   1509.3023              1512.8114              1515.3572
 Red. masses --      1.0503                 1.0756                 1.0630
 Frc consts  --      1.4096                 1.4504                 1.4382
 IR Inten    --      7.3554                 1.6571                 3.2723

                     64                     65                     66
                      A                      A                      A
 Frequencies --   1517.0670              1522.9209              1526.0681
 Red. masses --      1.0623                 1.0553                 1.0959
 Frc consts  --      1.4405                 1.4421                 1.5037
 IR Inten    --      2.8420                 6.7519                 1.1155

                     67                     68                     69
                      A                      A                      A
 Frequencies --   1539.2500              1545.0601              1757.1485
 Red. masses --      1.0738                 1.0820                 6.5085
 Frc consts  --      1.4990                 1.5218                11.8398
 IR Inten    --      0.8205                 2.9836                 1.5594

                     70                     71                     72
                      A                      A                      A
 Frequencies --   2997.8533              3003.8889              3006.1620
 Red. masses --      1.0696                 1.0702                 1.0715
 Frc consts  --      5.6637                 5.6896                 5.7052
 IR Inten    --     18.6866                37.2494                73.7216

                     73                     74                     75
                      A                      A                      A
 Frequencies --   3008.0579              3027.7081              3030.4550
 Red. masses --      1.0719                 1.0394                 1.0620
 Frc consts  --      5.7144                 5.6140                 5.7466
 IR Inten    --      8.3547                49.1739                26.4953

                     76                     77                     78
                      A                      A                      A
 Frequencies --   3050.7701              3069.6634              3071.4955
 Red. masses --      1.0871                 1.1025                 1.0369
 Frc consts  --      5.9611                 6.1208                 5.7638
 IR Inten    --     53.6226                35.5568                20.2769

                     79                     80                     81
                      A                      A                      A
 Frequencies --   3072.8825              3086.2301              3098.8621
 Red. masses --      1.0995                 1.0881                 1.0939
 Frc consts  --      6.1168                 6.1060                 6.1892
 IR Inten    --     22.3823                12.2689                46.8046

                     82                     83                     84
                      A                      A                      A
 Frequencies --   3105.7739              3120.7971              3127.6328
 Red. masses --      1.0899                 1.1001                 1.0928
 Frc consts  --      6.1941                 6.3125                 6.2983
 IR Inten    --     25.4793                23.1261                23.1664

                     85                     86                     87
                      A                      A                      A
 Frequencies --   3143.5234              3148.1349              3152.1156
 Red. masses --      1.1037                 1.1009                 1.0894
 Frc consts  --      6.4259                 6.4285                 6.3773
 IR Inten    --     15.9408                42.0883                38.2245

 - Thermochemistry -
 -------------------
 Temperature   298.150 Kelvin.  Pressure   1.00000 Atm.
 Atom     1 has atomic number  6 and mass  12.00000

 Molecular mass:   182.13068 amu.
 Principal axes and moments of inertia in atomic units:
                           1         2         3
     Eigenvalues --  1205.059873305.495053652.46895
           X            0.99979   0.02032  -0.00320
           Y           -0.02036   0.99971  -0.01309
           Z            0.00294   0.01316   0.99991
 This molecule is an asymmetric top.
 Rotational symmetry number  1.
 Warning -- assumption of classical behavior for rotation
           may cause significant error
 Rotational temperatures (Kelvin)      0.07188     0.02620     0.02371
 Rotational constants (GHZ):           1.49764     0.54598     0.49412
 Zero-point vibrational energy     730690.3 (Joules/Mol)
                                  174.63917 (Kcal/Mol)
 Warning -- explicit consideration of  19 degrees of freedom as
           vibrations may cause significant error
 Vibrational temperatures:    102.92   136.72   200.35   242.44   275.60
          (Kelvin)            304.36   324.51   395.72   409.44   460.82
                              521.82   568.18   597.25   616.33   631.54
                              690.61   696.74   741.59   825.63   927.24
                             1008.33  1132.36  1182.69  1195.05  1229.80
                             1279.82  1314.72  1329.16  1348.62  1378.20
                             1445.18  1455.10  1486.33  1489.35  1521.25
                             1546.10  1561.24  1612.87  1615.69  1668.90
                             1674.90  1707.93  1738.52  1748.15  1790.22
                             1828.49  1849.52  1915.09  1921.06  1980.73
                             1994.06  2001.71  2011.87  2016.42  2035.43
                             2048.32  2061.36  2071.01  2076.64  2161.94
                             2171.55  2176.60  2180.26  2182.72  2191.14
                             2195.67  2214.64  2223.00  2528.14  4313.24
                             4321.93  4325.20  4327.92  4356.20  4360.15
                             4389.38  4416.56  4419.20  4421.19  4440.40
                             4458.57  4468.52  4490.13  4499.97  4522.83
                             4529.46  4535.19

 Zero-point correction=                           0.278305 (Hartree/Particle)
 Thermal correction to Energy=                    0.290559
 Thermal correction to Enthalpy=                  0.291504
 Thermal correction to Gibbs Free Energy=         0.240841
 Sum of electronic and zero-point Energies=           -580.215508
 Sum of electronic and thermal Energies=              -580.203254
 Sum of electronic and thermal Enthalpies=            -580.202310
 Sum of electronic and thermal Free Energies=         -580.252973

                     E (Thermal)             CV                S
                      KCal/Mol        Cal/Mol-Kelvin    Cal/Mol-Kelvin
 Total                  182.329             49.287            106.629
 Electronic               0.000              0.000              0.000
 Translational            0.889              2.981             41.505
 Rotational               0.889              2.981             31.054
 Vibrational            180.551             43.326             34.070
 Vibration     1          0.598              1.968              4.111
 Vibration     2          0.603              1.953              3.554
 Vibration     3          0.615              1.914              2.814
 Vibration     4          0.625              1.881              2.452
 Vibration     5          0.634              1.852              2.213
 Vibration     6          0.643              1.823              2.030
 Vibration     7          0.650              1.802              1.914
 Vibration     8          0.677              1.719              1.564
 Vibration     9          0.683              1.702              1.506
 Vibration    10          0.706              1.635              1.309
 Vibration    11          0.737              1.549              1.111
 Vibration    12          0.762              1.481              0.982
 Vibration    13          0.779              1.437              0.909
 Vibration    14          0.790              1.408              0.864
 Vibration    15          0.799              1.385              0.830
 Vibration    16          0.836              1.294              0.710
 Vibration    17          0.840              1.285              0.699
 Vibration    18          0.870              1.216              0.621
 Vibration    19          0.930              1.088              0.497

 Optimization completed.
    -- Stationary point found.
 Normal termination of Gaussian 16 at Wed Dec  9 22:32:22 2020.

 ----------------------------------------------------------------------
 # B3LYP/6-311++G(d,p) empiricaldispersion=gd3bj scf=xqc pop=npa geom=c
 heck
 ----------------------------------------------------------------------

 --------------------------------------
 CID_20307664_JID_3141_Energie_neutraal
 --------------------------------------
 Structure from the checkpoint file:  "JID_3141.chk"
 Charge =  0 Multiplicity = 1

 SCF Done:  E(RB3LYP) =  -580.654802332     A.U. after   14 cycles
 Normal termination of Gaussian 16 at Wed Dec  9 22:36:26 2020.

 ----------------------------------------------------------------------
 # B3LYP/6-311++G(d,p) empiricaldispersion=gd3bj scf=xqc pop=npa geom=c
 heck
 ----------------------------------------------------------------------

 ------------------------------------
 CID_20307664_JID_3141_Energie_kation
 ------------------------------------
 Structure from the checkpoint file:  "JID_3141.chk"
 Charge =  1 Multiplicity = 2

 SCF Done:  E(UB3LYP) =  -580.346008411     A.U. after   25 cycles
 Normal termination of Gaussian 16 at Wed Dec  9 22:46:40 2020.
 Gaussian 16:  ES64L-G16RevA.03 25-Dec-2016

 ----------------------------------------------------------------------
 # B3LYP/6-311++G(d,p) empiricaldispersion=gd3bj scf=xqc pop=npa geom=c
 heck
 ----------------------------------------------------------------------

 -----------------------------------
 CID_20307664_JID_3141_Energie_anion
 -----------------------------------
 Structure from the checkpoint file:  "JID_3141.chk"
 Charge = -1 Multiplicity = 2

                         Standard orientation:
 ---------------------------------------------------------------------
 Center     Atomic      Atomic             Coordinates (Angstroms)
 Number     Number       Type             X           Y           Z
 ---------------------------------------------------------------------
      1          6           0        3.575164    0.245053   -0.558120
      2          6           0        2.495843   -0.786798   -0.225535
      3          8           0        2.026871   -0.675420    1.107260
      4          6           0        1.185898    0.455047    1.319888
      5          6           0       -0.018359    0.449737    0.369271
      6          6           0       -0.816392    1.751314    0.529840
      7          6           0       -2.025907    1.809339   -0.413465
      8          6           0       -2.772121    0.502451   -0.464431
      9          6           0       -2.297064   -0.653194    0.016629
     10          6           0       -0.933510   -0.752801    0.663804
     11          6           0       -3.085985   -1.933288   -0.044742
     12          6           0        0.558337    0.331551   -1.053668
     13          8           0        1.436408   -0.786988   -1.166120
     14          1           0        3.956273    0.060027   -1.566824
     15          1           0        4.399057    0.154189    0.156016
     16          1           0        3.203703    1.272494   -0.519522
     17          1           0        2.919856   -1.792237   -0.286262
     18          1           0        1.752540    1.392274    1.199522
     19          1           0        0.863985    0.393254    2.364184
     20          1           0       -1.166795    1.812719    1.569206
     21          1           0       -0.166066    2.620247    0.363730
     22          1           0       -2.702693    2.613409   -0.094735
     23          1           0       -1.702510    2.090637   -1.427993
     24          1           0       -3.755539    0.517784   -0.933509
     25          1           0       -0.432902   -1.670805    0.336109
     26          1           0       -1.060222   -0.860057    1.752645
     27          1           0       -2.557057   -2.693112   -0.635989
     28          1           0       -3.222791   -2.360155    0.958668
     29          1           0       -4.075639   -1.781452   -0.487128
     30          1           0        1.075311    1.265413   -1.325783
     31          1           0       -0.230161    0.154162   -1.788279
 ---------------------------------------------------------------------

 SCF Done:  E(UB3LYP) =  -580.639580869     A.U. after   32 cycles

 The electronic state is 2-A.
 Alpha  occ. eigenvalues --  -19.02867 -19.02805 -10.17125 -10.11466 -10.11250
 Alpha  occ. eigenvalues --  -10.08027 -10.07190 -10.06704 -10.06519 -10.06519
 Alpha  occ. eigenvalues --  -10.06425 -10.06330 -10.05781  -0.97620  -0.90807
 Alpha  occ. eigenvalues --   -0.75103  -0.69361  -0.66180  -0.64047  -0.59214
 Alpha  occ. eigenvalues --   -0.58355  -0.57717  -0.52717  -0.49872  -0.44406
 Alpha  occ. eigenvalues --   -0.42296  -0.41349  -0.39127  -0.37899  -0.35665
 Alpha  occ. eigenvalues --   -0.35318  -0.33829  -0.33160  -0.32322  -0.31621
 Alpha  occ. eigenvalues --   -0.30610  -0.30297  -0.30092  -0.28431  -0.27696
 Alpha  occ. eigenvalues --   -0.26959  -0.26278  -0.25461  -0.24416  -0.21374
 Alpha  occ. eigenvalues --   -0.21181  -0.20827  -0.16598  -0.16236  -0.13539
 Alpha  occ. eigenvalues --    0.04519
 Alpha virt. eigenvalues --    0.06563   0.07292   0.07775   0.08571   0.09107
 Alpha virt. eigenvalues --    0.09627   0.09844   0.10410   0.10839   0.11632
 Alpha virt. eigenvalues --    0.11925   0.12580   0.12725   0.13277   0.13601

  Beta  occ. eigenvalues --  -19.02867 -19.02804 -10.17119 -10.11444 -10.11226
  Beta  occ. eigenvalues --  -10.08029 -10.07188 -10.06683 -10.06497 -10.06493
  Beta  occ. eigenvalues --  -10.06387 -10.06313 -10.05767  -0.97613  -0.90802
  Beta  occ. eigenvalues --   -0.75081  -0.69337  -0.66142  -0.64009  -0.59169
  Beta  occ. eigenvalues --   -0.58310  -0.57672  -0.52677  -0.49818  -0.44350
  Beta  occ. eigenvalues --   -0.42271  -0.41325  -0.39079  -0.37852  -0.35633
  Beta  occ. eigenvalues --   -0.35280  -0.33796  -0.33131  -0.32295  -0.31588
  Beta  occ. eigenvalues --   -0.30584  -0.30265  -0.30064  -0.28395  -0.27650
  Beta  occ. eigenvalues --   -0.26931  -0.26248  -0.25431  -0.24390  -0.21353
  Beta  occ. eigenvalues --   -0.21152  -0.20799  -0.16582  -0.16223  -0.13511
  Beta virt. eigenvalues --    0.06663   0.07378   0.07985   0.08383   0.09183
  Beta virt. eigenvalues --    0.09624   0.09966   0.10299   0.10779   0.11249
  Beta virt. eigenvalues --    0.12088   0.12252   0.12879   0.13019   0.13586

 Mulliken charges and spin densities:
               1          2
     1  C    1.360653  -1.657556
     2  C   -1.332737   0.906998
     3  O    0.026668   0.022163
     4  C    0.500731  -0.838278
     5  C   -1.106340   1.795219
     6  C   -0.146320  -0.383314
     7  C    1.285544  -1.880442
     8  C   -0.305745  -0.038282
     9  C   -1.007738   1.861309
    10  C   -0.018055  -0.900319
    11  C    1.360289  -1.964091
    12  C    0.891532  -1.528009
    13  O   -0.012472   0.024791
    14  H   -0.038147   0.202698
    15  H   -0.094127   0.257295
    16  H   -0.541809   0.695782
    17  H   -0.149416   0.336382
    18  H    0.022830   0.131452
    19  H   -0.204481   0.385199
    20  H   -0.030767   0.185740
    21  H   -0.409824   0.584926
    22  H   -0.440361   0.617128
    23  H   -0.069486   0.231519
    24  H   -0.462322   0.625276
    25  H    0.255304  -0.057013
    26  H   -0.078119   0.287317
    27  H    0.034154   0.114599
    28  H   -0.107221   0.258158
    29  H   -0.248800   0.393838
    30  H   -0.053806   0.244499
    31  H    0.120390   0.085014
 Sum of Mulliken charges =  -1.00000   1.00000

 Dipole moment (field-independent basis, Debye):
    X=              1.2541    Y=             -3.2784    Z=             -0.0033  Tot=              3.5101
 Quadrupole moment (field-independent basis, Debye-Ang):
   XX=           -151.8219   YY=           -126.3754   ZZ=           -115.3540
   XY=             -2.4522   XZ=              0.7892   YZ=              1.8375

 Summary of Natural Population Analysis:

                                       Natural Population
                Natural  -----------------------------------------------
    Atom  No    Charge         Core      Valence    Rydberg      Total
 -----------------------------------------------------------------------
      C    1   -0.31220      0.99964     2.30737    0.00519     3.31220
      C    2    0.22168      0.99959     1.75902    0.01971     2.77832
      O    3   -0.30478      0.99988     3.29616    0.00873     4.30478
      C    4   -0.00732      0.99950     1.99301    0.01481     3.00732
      C    5   -0.06445      0.99955     2.05047    0.01443     3.06445
      C    6   -0.18734      0.99959     2.17697    0.01078     3.18734
      C    7   -0.20380      0.99962     2.19463    0.00954     3.20380
      C    8   -0.09867      0.99945     2.08915    0.01007     3.09867
      C    9   -0.00781      0.99948     1.99791    0.01041     3.00781
      C   10   -0.20616      0.99955     2.19517    0.01144     3.20616
      C   11   -0.29051      0.99962     2.28589    0.00499     3.29051
      C   12   -0.01287      0.99950     1.99900    0.01438     3.01287
      O   13   -0.30495      0.99988     3.29656    0.00851     4.30495
      H   14    0.10387      0.00000     0.39499    0.00114     0.39613
      H   15    0.10375      0.00000     0.39511    0.00114     0.39625
      H   16    0.10390      0.00000     0.39466    0.00145     0.39610
      H   17    0.08319      0.00000     0.41556    0.00125     0.41681
      H   18    0.08491      0.00000     0.41324    0.00184     0.41509
      H   19    0.09416      0.00000     0.40441    0.00143     0.40584
      H   20    0.09996      0.00000     0.39843    0.00161     0.40004
      H   21    0.10444      0.00000     0.39349    0.00207     0.39556
      H   22    0.10444      0.00000     0.39415    0.00141     0.39556
      H   23    0.10017      0.00000     0.39827    0.00156     0.39983
      H   24    0.09515      0.00000     0.40358    0.00128     0.40485
      H   25    0.11075      0.00000     0.38757    0.00168     0.38925
      H   26    0.10476      0.00000     0.39401    0.00124     0.39524
      H   27    0.09952      0.00000     0.39921    0.00127     0.40048
      H   28    0.10032      0.00000     0.39836    0.00132     0.39968
      H   29    0.10186      0.00000     0.39708    0.00106     0.39814
      H   30    0.08546      0.00000     0.41274    0.00180     0.41454
      H   31    0.09857      0.00000     0.39974    0.00169     0.40143
 =======================================================================
   * Total *    0.00000     12.99486    36.83591    0.16923    50.00000

 Normal termination of Gaussian 16 at Wed Dec  9 23:03:09 2020.
