 Gaussian 16, Revision A.03,

 -----------------------------------------------------------
 # opt freq B3LYP/6-31G(d) empiricaldispersion=gd3bj scf=xqc
 -----------------------------------------------------------

 -------------------------------
 CID_117058869_JID_6955_neutraal
 -------------------------------
 Symbolic Z-matrix:
 Charge =  0 Multiplicity = 1

 SCF Done:  E(RB3LYP) =  -1190.70935231     A.U. after   16 cycles
 SCF Done:  E(RB3LYP) =  -1190.71961422     A.U. after   15 cycles
 SCF Done:  E(RB3LYP) =  -1190.71914919     A.U. after   15 cycles
 SCF Done:  E(RB3LYP) =  -1190.72451048     A.U. after   15 cycles
 SCF Done:  E(RB3LYP) =  -1190.72756935     A.U. after   14 cycles
 SCF Done:  E(RB3LYP) =  -1190.72888211     A.U. after   15 cycles
 SCF Done:  E(RB3LYP) =  -1190.73004863     A.U. after   15 cycles
 SCF Done:  E(RB3LYP) =  -1190.73126667     A.U. after   14 cycles
 SCF Done:  E(RB3LYP) =  -1190.73173186     A.U. after   14 cycles
 SCF Done:  E(RB3LYP) =  -1190.73209827     A.U. after   14 cycles
 SCF Done:  E(RB3LYP) =  -1190.73290072     A.U. after   11 cycles
 SCF Done:  E(RB3LYP) =  -1190.73290461     A.U. after   11 cycles
 SCF Done:  E(RB3LYP) =  -1190.73290587     A.U. after   10 cycles
 SCF Done:  E(RB3LYP) =  -1190.73290645     A.U. after    9 cycles
 SCF Done:  E(RB3LYP) =  -1190.73290661     A.U. after    9 cycles
 SCF Done:  E(RB3LYP) =  -1190.73290665     A.U. after    8 cycles
 Optimization completed.
    -- Stationary point found.
 Normal termination of Gaussian 16 at Fri Dec 11 01:24:23 2020.

 --------------------------------------------------------------------
 #N Geom=AllCheck Guess=TCheck SCRF=Check GenChk RB3LYP/6-31G(d) Freq
 --------------------------------------------------------------------

 Structure from the checkpoint file:  "JID_6955.chk"
 -------------------------------
 CID_117058869_JID_6955_neutraal
 -------------------------------
 Charge =  0 Multiplicity = 1

 SCF Done:  E(RB3LYP) =  -1190.73290665     A.U. after    1 cycles

  Exact polarizability: 204.881 -14.515 147.904   3.115   5.165  74.494
 Approx polarizability: 325.849 -38.423 257.321   1.931  14.846 122.460

                      1                      2                      3
                      A                      A                      A
 Frequencies --     32.6635                51.7097                67.4917
 Red. masses --      8.6197                 2.2806                 2.5855
 Frc consts  --      0.0054                 0.0036                 0.0069
 IR Inten    --      0.7369                 0.5428                 1.1601

                      4                      5                      6
                      A                      A                      A
 Frequencies --     75.7866               107.3365               135.5355
 Red. masses --      2.7612                 2.6447                 4.5087
 Frc consts  --      0.0093                 0.0180                 0.0488
 IR Inten    --      3.1763                 1.0147                 1.3542

                      7                      8                      9
                      A                      A                      A
 Frequencies --    151.6980               171.3912               185.7957
 Red. masses --      2.0969                 2.2886                 5.2704
 Frc consts  --      0.0284                 0.0396                 0.1072
 IR Inten    --      0.3518                 1.6132                 3.4374

                     10                     11                     12
                      A                      A                      A
 Frequencies --    210.0891               216.5829               273.1489
 Red. masses --      3.6639                 3.7760                 4.4562
 Frc consts  --      0.0953                 0.1044                 0.1959
 IR Inten    --      3.6749                 6.9673                 8.3054

                     13                     14                     15
                      A                      A                      A
 Frequencies --    286.3528               296.8600               304.9962
 Red. masses --      3.9253                 3.9921                 5.2180
 Frc consts  --      0.1896                 0.2073                 0.2860
 IR Inten    --     19.8663                 0.6306                 2.0181

                     16                     17                     18
                      A                      A                      A
 Frequencies --    328.3798               350.2853               410.2454
 Red. masses --      2.3667                 2.7165                 4.8899
 Frc consts  --      0.1504                 0.1964                 0.4849
 IR Inten    --     17.1143                12.6764                 5.2958

                     19                     20                     21
                      A                      A                      A
 Frequencies --    457.8366               458.5098               486.2190
 Red. masses --      4.1266                 3.5143                 6.4930
 Frc consts  --      0.5096                 0.4353                 0.9044
 IR Inten    --      3.1098                11.9035                15.9097

                     22                     23                     24
                      A                      A                      A
 Frequencies --    510.9320               556.8885               588.4458
 Red. masses --      5.7797                 5.5797                 5.1452
 Frc consts  --      0.8890                 1.0195                 1.0497
 IR Inten    --      3.9600               111.9273                 7.3746

                     25                     26                     27
                      A                      A                      A
 Frequencies --    639.2226               653.3857               678.0131
 Red. masses --      6.9979                 3.9652                 3.2629
 Frc consts  --      1.6847                 0.9974                 0.8838
 IR Inten    --      4.8260                49.4915               118.4673

                     28                     29                     30
                      A                      A                      A
 Frequencies --    681.9256               730.2949               771.6460
 Red. masses --      6.4175                 4.8515                 9.1504
 Frc consts  --      1.7583                 1.5245                 3.2101
 IR Inten    --     29.8074                 7.4160                15.8982

                     31                     32                     33
                      A                      A                      A
 Frequencies --    814.4777               833.1767               874.1543
 Red. masses --      4.9162                 1.7359                 7.5634
 Frc consts  --      1.9215                 0.7100                 3.4052
 IR Inten    --     25.8461                22.8120                31.2501

                     34                     35                     36
                      A                      A                      A
 Frequencies --    889.9046               995.5846              1001.1737
 Red. masses --      2.8718                 1.3127                 2.8458
 Frc consts  --      1.3399                 0.7666                 1.6806
 IR Inten    --    125.6402                 2.9979                31.3700

                     37                     38                     39
                      A                      A                      A
 Frequencies --   1064.6288              1101.0407              1117.2816
 Red. masses --      4.3804                 1.5428                 1.9523
 Frc consts  --      2.9252                 1.1020                 1.4359
 IR Inten    --     70.2422                30.9192                48.9971

                     40                     41                     42
                      A                      A                      A
 Frequencies --   1138.3151              1147.4508              1176.7978
 Red. masses --      1.2238                 2.4555                 1.3354
 Frc consts  --      0.9343                 1.9049                 1.0896
 IR Inten    --      0.6783               103.0195                 2.1218

                     43                     44                     45
                      A                      A                      A
 Frequencies --   1184.0782              1217.3538              1229.3151
 Red. masses --      1.7157                 2.4225                 1.8028
 Frc consts  --      1.4173                 2.1152                 1.6052
 IR Inten    --     79.1638                37.1818                35.0740

                     46                     47                     48
                      A                      A                      A
 Frequencies --   1268.2948              1348.6669              1366.7354
 Red. masses --      4.3192                10.4412                 8.5186
 Frc consts  --      4.0934                11.1895                 9.3753
 IR Inten    --     16.9868               105.5599                 9.2294

                     49                     50                     51
                      A                      A                      A
 Frequencies --   1386.8787              1427.1998              1464.4567
 Red. masses --     10.9887                 2.2032                 1.1924
 Frc consts  --     12.4530                 2.6441                 1.5067
 IR Inten    --    947.6833                 3.6978                11.9383

                     52                     53                     54
                      A                      A                      A
 Frequencies --   1467.5840              1488.2733              1518.7186
 Red. masses --      3.1946                 1.7568                 1.2220
 Frc consts  --      4.0539                 2.2927                 1.6607
 IR Inten    --     76.3919                12.5211                13.8717

                     55                     56                     57
                      A                      A                      A
 Frequencies --   1520.1117              1536.8586              1540.6897
 Red. masses --      1.0628                 1.0451                 1.0878
 Frc consts  --      1.4470                 1.4544                 1.5214
 IR Inten    --     12.4147                 4.8323                15.4610

                     58                     59                     60
                      A                      A                      A
 Frequencies --   1556.0732              1581.8659              1604.6009
 Red. masses --      3.0116                 1.2906                 3.1431
 Frc consts  --      4.2964                 1.9028                 4.7680
 IR Inten    --     11.2895               179.5982                64.5613

                     61                     62                     63
                      A                      A                      A
 Frequencies --   1641.7624              1660.8065              3034.5180
 Red. masses --      8.1573                 6.4130                 1.0388
 Frc consts  --     12.9543                10.4219                 5.6356
 IR Inten    --    202.1406               639.3647                42.1340

                     64                     65                     66
                      A                      A                      A
 Frequencies --   3047.0166              3089.8803              3099.4524
 Red. masses --      1.0390                 1.1038                 1.1056
 Frc consts  --      5.6836                 6.2089                 6.2580
 IR Inten    --     81.0162                28.8976                22.9597

                     67                     68                     69
                      A                      A                      A
 Frequencies --   3164.0725              3202.9766              3242.4460
 Red. masses --      1.0982                 1.0979                 1.0882
 Frc consts  --      6.4779                 6.6363                 6.7405
 IR Inten    --     10.9331                 1.8604                 3.1958

                     70                     71                     72
                      A                      A                      A
 Frequencies --   3255.2268              3509.8712              3632.9972
 Red. masses --      1.0949                 1.0457                 1.0992
 Frc consts  --      6.8357                 7.5898                 8.5476
 IR Inten    --      3.8949                32.9312                52.4362

 - Thermochemistry -
 -------------------
 Temperature   298.150 Kelvin.  Pressure   1.00000 Atm.
 Atom     1 has atomic number  6 and mass  12.00000

 Molecular mass:   246.04228 amu.
 Principal axes and moments of inertia in atomic units:
                           1         2         3
     Eigenvalues --  2534.743794681.564526763.81462
           X            0.99994   0.00981   0.00549
           Y           -0.00985   0.99991   0.00865
           Z           -0.00541  -0.00870   0.99995
 This molecule is an asymmetric top.
 Rotational symmetry number  1.
 Warning -- assumption of classical behavior for rotation
           may cause significant error
 Rotational temperatures (Kelvin)      0.03417     0.01850     0.01281
 Rotational constants (GHZ):           0.71200     0.38550     0.26682
 Zero-point vibrational energy     504300.4 (Joules/Mol)
                                  120.53068 (Kcal/Mol)
 Warning -- explicit consideration of  24 degrees of freedom as
           vibrations may cause significant error
 Vibrational temperatures:     47.00    74.40    97.11   109.04   154.43
          (Kelvin)            195.01   218.26   246.59   267.32   302.27
                              311.61   393.00   412.00   427.12   438.82
                              472.47   503.98   590.25   658.72   659.69
                              699.56   735.12   801.24   846.64   919.70
                              940.08   975.51   981.14  1050.73  1110.23
                             1171.85  1198.76  1257.71  1280.37  1432.42
                             1440.47  1531.76  1584.15  1607.52  1637.78
                             1650.93  1693.15  1703.62  1751.50  1768.71
                             1824.79  1940.43  1966.43  1995.41  2053.42
                             2107.03  2111.53  2141.29  2185.10  2187.10
                             2211.20  2216.71  2238.84  2275.95  2308.66
                             2362.13  2389.53  4365.99  4383.98  4445.65
                             4459.42  4552.39  4608.37  4665.16  4683.55
                             5049.92  5227.07

 Zero-point correction=                           0.192078 (Hartree/Particle)
 Thermal correction to Energy=                    0.207904
 Thermal correction to Enthalpy=                  0.208848
 Thermal correction to Gibbs Free Energy=         0.148062
 Sum of electronic and zero-point Energies=          -1190.540829
 Sum of electronic and thermal Energies=             -1190.525003
 Sum of electronic and thermal Enthalpies=           -1190.524059
 Sum of electronic and thermal Free Energies=        -1190.584845

                     E (Thermal)             CV                S
                      KCal/Mol        Cal/Mol-Kelvin    Cal/Mol-Kelvin
 Total                  130.462             57.442            127.936
 Electronic               0.000              0.000              0.000
 Translational            0.889              2.981             42.402
 Rotational               0.889              2.981             32.751
 Vibrational            128.684             51.480             52.783
 Vibration     1          0.594              1.983              5.661
 Vibration     2          0.596              1.977              4.751
 Vibration     3          0.598              1.970              4.225
 Vibration     4          0.599              1.965              3.997
 Vibration     5          0.606              1.943              3.317
 Vibration     6          0.613              1.918              2.866
 Vibration     7          0.619              1.901              2.651
 Vibration     8          0.626              1.878              2.420
 Vibration     9          0.632              1.859              2.269
 Vibration    10          0.642              1.825              2.043
 Vibration    11          0.645              1.816              1.987
 Vibration    12          0.676              1.723              1.576
 Vibration    13          0.684              1.699              1.495
 Vibration    14          0.691              1.680              1.435
 Vibration    15          0.696              1.664              1.389
 Vibration    16          0.712              1.619              1.268
 Vibration    17          0.727              1.575              1.165
 Vibration    18          0.774              1.448              0.926
 Vibration    19          0.816              1.344              0.772
 Vibration    20          0.817              1.342              0.770
 Vibration    21          0.842              1.281              0.693
 Vibration    22          0.866              1.226              0.631
 Vibration    23          0.912              1.125              0.530
 Vibration    24          0.946              1.056              0.470

                           ! Non-Optimized Parameters !
 Normal termination of Gaussian 16 at Fri Dec 11 01:32:52 2020.

 ----------------------------------------------------------------------
 # B3LYP/6-311++G(d,p) empiricaldispersion=gd3bj scf=xqc pop=npa geom=c
 heck
 ----------------------------------------------------------------------

 ---------------------------------------
 CID_117058869_JID_6955_Energie_neutraal
 ---------------------------------------
 Structure from the checkpoint file:  "JID_6955.chk"
 Charge =  0 Multiplicity = 1

 SCF Done:  E(RB3LYP) =  -1190.99097119     A.U. after   18 cycles
 Normal termination of Gaussian 16 at Fri Dec 11 01:37:19 2020.

 ----------------------------------------------------------------------
 # B3LYP/6-311++G(d,p) empiricaldispersion=gd3bj scf=xqc pop=npa geom=c
 heck
 ----------------------------------------------------------------------

 -------------------------------------
 CID_117058869_JID_6955_Energie_kation
 -------------------------------------
 Structure from the checkpoint file:  "JID_6955.chk"
 Charge =  1 Multiplicity = 2

 SCF Done:  E(UB3LYP) =  -1190.68088425     A.U. after   28 cycles
 Normal termination of Gaussian 16 at Fri Dec 11 01:47:18 2020.
 Gaussian 16:  ES64L-G16RevA.03 25-Dec-2016

 ----------------------------------------------------------------------
 # B3LYP/6-311++G(d,p) empiricaldispersion=gd3bj scf=xqc pop=npa geom=c
 heck
 ----------------------------------------------------------------------

 ------------------------------------
 CID_117058869_JID_6955_Energie_anion
 ------------------------------------
 Structure from the checkpoint file:  "JID_6955.chk"
 Charge = -1 Multiplicity = 2

                         Standard orientation:
 ---------------------------------------------------------------------
 Center     Atomic      Atomic             Coordinates (Angstroms)
 Number     Number       Type             X           Y           Z
 ---------------------------------------------------------------------
      1          6           0        4.400442    0.636253   -0.062114
      2          7           0        3.225075   -0.219403   -0.055442
      3          6           0        3.434806   -1.664541   -0.027616
      4          6           0        1.981820    0.321752   -0.020128
      5          7           0        0.938485   -0.535837   -0.008875
      6          6           0       -0.297490   -0.098102   -0.008784
      7          6           0       -0.610882    1.271392   -0.007504
      8          6           0        0.459693    2.178429    0.019141
      9          6           0        1.759038    1.725529    0.012780
     10          7           0       -1.950595    1.816522   -0.053480
     11          8           0       -2.879954    1.075639   -0.386809
     12          8           0       -2.090976    3.009408    0.222364
     13         16           0       -1.488355   -1.490695    0.179962
     14          8           0       -0.715220   -2.730303    0.168333
     15          8           0       -2.341804   -1.154568    1.319707
     16          7           0       -2.291436   -1.467184   -1.295768
     17          1           0        5.286470    0.008293   -0.163475
     18          1           0        4.490318    1.211760    0.868616
     19          1           0        4.379468    1.336050   -0.906052
     20          1           0        4.015401   -1.942282    0.860182
     21          1           0        2.468436   -2.163974    0.000686
     22          1           0        3.984746   -1.980677   -0.921741
     23          1           0        0.233809    3.237357    0.041517
     24          1           0        2.579337    2.430606    0.035010
     25          1           0       -2.520485   -2.424028   -1.555813
     26          1           0       -3.095453   -0.846362   -1.266769
 ---------------------------------------------------------------------

 SCF Done:  E(UB3LYP) =  -1191.03622396     A.U. after   26 cycles

 The electronic state is 2-A.
 Alpha  occ. eigenvalues --  -88.93154 -18.98729 -18.98298 -18.94909 -18.94701
 Alpha  occ. eigenvalues --  -14.32797 -14.22978 -14.21378 -14.18726 -10.12304
 Alpha  occ. eigenvalues --  -10.11838 -10.10455 -10.09858 -10.07773 -10.06324
 Alpha  occ. eigenvalues --  -10.06171  -7.99316  -5.95614  -5.95557  -5.95392
 Alpha  occ. eigenvalues --   -1.03084  -0.98902  -0.87855  -0.87196  -0.85794
 Alpha  occ. eigenvalues --   -0.81153  -0.78411  -0.69558  -0.66592  -0.63463
 Alpha  occ. eigenvalues --   -0.59602  -0.56508  -0.51352  -0.49031  -0.46701
 Alpha  occ. eigenvalues --   -0.43227  -0.41280  -0.39908  -0.38488  -0.37919
 Alpha  occ. eigenvalues --   -0.37115  -0.36180  -0.35544  -0.34365  -0.32197
 Alpha  occ. eigenvalues --   -0.31994  -0.31893  -0.31654  -0.30063  -0.29051
 Alpha  occ. eigenvalues --   -0.28681  -0.27854  -0.22816  -0.20647  -0.20226
 Alpha  occ. eigenvalues --   -0.19161  -0.18672  -0.17264  -0.16170  -0.14654
 Alpha  occ. eigenvalues --   -0.13893  -0.12894  -0.11026  -0.09777   0.01885
 Alpha virt. eigenvalues --    0.06024   0.08238   0.08277   0.09218   0.09731
 Alpha virt. eigenvalues --    0.09937   0.11712   0.11767   0.12674   0.13404
 Alpha virt. eigenvalues --    0.14327   0.14366   0.15126   0.15885   0.16737

  Beta  occ. eigenvalues --  -88.93156 -18.98719 -18.98281 -18.94417 -18.94184
  Beta  occ. eigenvalues --  -14.32143 -14.22859 -14.21354 -14.18838 -10.12053
  Beta  occ. eigenvalues --  -10.11845 -10.10167 -10.09864 -10.07733 -10.06268
  Beta  occ. eigenvalues --  -10.06184  -7.99317  -5.95607  -5.95557  -5.95401
  Beta  occ. eigenvalues --   -1.01993  -0.98861  -0.87816  -0.86958  -0.84850
  Beta  occ. eigenvalues --   -0.80993  -0.78376  -0.69307  -0.66209  -0.63401
  Beta  occ. eigenvalues --   -0.59185  -0.56229  -0.50868  -0.48888  -0.46313
  Beta  occ. eigenvalues --   -0.43076  -0.41203  -0.39726  -0.38349  -0.37670
  Beta  occ. eigenvalues --   -0.36499  -0.36101  -0.34337  -0.32608  -0.32091
  Beta  occ. eigenvalues --   -0.31866  -0.31657  -0.31342  -0.29821  -0.28941
  Beta  occ. eigenvalues --   -0.27945  -0.27722  -0.22743  -0.20527  -0.19682
  Beta  occ. eigenvalues --   -0.18991  -0.18090  -0.17001  -0.16005  -0.14579
  Beta  occ. eigenvalues --   -0.12470  -0.10620  -0.10415  -0.08912
  Beta virt. eigenvalues --    0.06007   0.08253   0.08589   0.08851   0.09275
  Beta virt. eigenvalues --    0.09904   0.09953   0.11712   0.11787   0.12666
  Beta virt. eigenvalues --    0.14254   0.14322   0.15124   0.15850   0.16296

 Mulliken charges and spin densities:
               1          2
     1  C   -0.290961  -0.004833
     2  N    0.061717   0.033539
     3  C   -0.367064  -0.004301
     4  C   -0.243439   0.150718
     5  N    0.001604  -0.065927
     6  C   -0.640503   0.195282
     7  C   -0.404605  -0.025272
     8  C   -0.069081   0.118876
     9  C   -0.049649  -0.047272
    10  N   -0.310498   0.219260
    11  O   -0.222263   0.186413
    12  O   -0.145631   0.196573
    13  S    0.739474   0.023980
    14  O   -0.215560   0.004211
    15  O   -0.153438  -0.004682
    16  N   -0.507117  -0.004670
    17  H    0.137026   0.000064
    18  H    0.144914   0.008748
    19  H    0.145719   0.003694
    20  H    0.123413   0.005023
    21  H    0.215117   0.000720
    22  H    0.124402   0.003086
    23  H    0.235427  -0.004036
    24  H    0.120050   0.002358
    25  H    0.270550   0.001856
    26  H    0.300397   0.006592
 Sum of Mulliken charges =  -1.00000   1.00000

 Dipole moment (field-independent basis, Debye):
    X=              9.0650    Y=             -2.7010    Z=             -2.3761  Tot=              9.7528
 Quadrupole moment (field-independent basis, Debye-Ang):
   XX=           -122.5608   YY=           -131.8128   ZZ=           -109.8173
   XY=             17.5968   XZ=              7.2220   YZ=              4.1196

 Summary of Natural Population Analysis:

                                       Natural Population
                Natural  -----------------------------------------------
    Atom  No    Charge         Core      Valence    Rydberg      Total
 -----------------------------------------------------------------------
      C    1   -0.17602      0.99967     2.16980    0.00655     3.17602
      N    2   -0.22944      0.99963     2.72166    0.00815     3.72944
      C    3   -0.17844      0.99965     2.17235    0.00643     3.17844
      C    4    0.24973      0.99953     1.73820    0.01255     2.75027
      N    5   -0.27992      0.99961     2.76879    0.01152     3.77992
      C    6    0.07643      0.99936     1.90290    0.02132     2.92357
      C    7    0.00624      0.99935     1.97854    0.01587     2.99376
      C    8   -0.04426      0.99955     2.03494    0.00977     3.04426
      C    9   -0.17364      0.99954     2.16648    0.00762     3.17364
      N   10    0.31205      0.99971     2.16222    0.02602     3.18795
      O   11   -0.20369      0.99989     3.19554    0.00827     4.20369
      O   12   -0.18894      0.99990     3.18164    0.00740     4.18894
      S   13    1.08354      4.99935     1.81371    0.10340     6.91646
      O   14   -0.46930      0.99990     3.46338    0.00601     4.46930
      O   15   -0.45231      0.99990     3.44628    0.00612     4.45231
      N   16   -0.51588      0.99977     3.00548    0.01063     4.01588
      H   17    0.09481      0.00000     0.40445    0.00074     0.40519
      H   18    0.09081      0.00000     0.40760    0.00160     0.40919
      H   19    0.09301      0.00000     0.40548    0.00150     0.40699
      H   20    0.08434      0.00000     0.41452    0.00114     0.41566
      H   21    0.12656      0.00000     0.37247    0.00096     0.37344
      H   22    0.08433      0.00000     0.41457    0.00110     0.41567
      H   23    0.11610      0.00000     0.38269    0.00121     0.38390
      H   24    0.09878      0.00000     0.40012    0.00110     0.40122
      H   25    0.18503      0.00000     0.31283    0.00214     0.31497
      H   26    0.21008      0.00000     0.28811    0.00181     0.28992
 =======================================================================
   * Total *   -0.00000     19.99432    43.72476    0.28091    64.00000

 Normal termination of Gaussian 16 at Fri Dec 11 01:56:37 2020.
