 Gaussian 16, Revision A.03,

 -----------------------------------------------------------
 # opt freq B3LYP/6-31G(d) empiricaldispersion=gd3bj scf=xqc
 -----------------------------------------------------------

 -------------------------------
 CID_106613998_JID_6400_neutraal
 -------------------------------
 Symbolic Z-matrix:
 Charge =  0 Multiplicity = 1

 SCF Done:  E(RB3LYP) =  -709.429960090     A.U. after   14 cycles
 SCF Done:  E(RB3LYP) =  -709.437742410     A.U. after   12 cycles
 SCF Done:  E(RB3LYP) =  -709.438489739     A.U. after   12 cycles
 SCF Done:  E(RB3LYP) =  -709.438656851     A.U. after   11 cycles
 SCF Done:  E(RB3LYP) =  -709.438724182     A.U. after   12 cycles
 SCF Done:  E(RB3LYP) =  -709.438762261     A.U. after   10 cycles
 SCF Done:  E(RB3LYP) =  -709.438831737     A.U. after   11 cycles
 SCF Done:  E(RB3LYP) =  -709.438894123     A.U. after   11 cycles
 SCF Done:  E(RB3LYP) =  -709.438935698     A.U. after   11 cycles
 SCF Done:  E(RB3LYP) =  -709.438966204     A.U. after    8 cycles
 SCF Done:  E(RB3LYP) =  -709.439947242     A.U. after   11 cycles
 SCF Done:  E(RB3LYP) =  -709.440035103     A.U. after   11 cycles
 SCF Done:  E(RB3LYP) =  -709.440038331     A.U. after    9 cycles
 SCF Done:  E(RB3LYP) =  -709.440038393     A.U. after    7 cycles
 SCF Done:  E(RB3LYP) =  -709.440038424     A.U. after    6 cycles
 Optimization completed.
    -- Stationary point found.
 Normal termination of Gaussian 16 at Thu Dec 10 22:51:40 2020.

 --------------------------------------------------------------------
 #N Geom=AllCheck Guess=TCheck SCRF=Check GenChk RB3LYP/6-31G(d) Freq
 --------------------------------------------------------------------

 Structure from the checkpoint file:  "JID_6400.chk"
 -------------------------------
 CID_106613998_JID_6400_neutraal
 -------------------------------
 Charge =  0 Multiplicity = 1

 SCF Done:  E(RB3LYP) =  -709.440038424     A.U. after    1 cycles

  Exact polarizability: 162.019  -6.602 149.416  10.138   4.099 121.019
 Approx polarizability: 201.580  -7.344 213.323  17.104  14.528 193.476

                      1                      2                      3
                      A                      A                      A
 Frequencies --     26.0580                30.1390                35.1341
 Red. masses --      3.8432                 3.7286                 3.0101
 Frc consts  --      0.0015                 0.0020                 0.0022
 IR Inten    --      0.8542                 0.5450                 0.2822

                      4                      5                      6
                      A                      A                      A
 Frequencies --     77.1454                87.5384                99.8976
 Red. masses --      3.1299                 2.1388                 2.7827
 Frc consts  --      0.0110                 0.0097                 0.0164
 IR Inten    --      1.8676                 0.1009                 0.2404

                      7                      8                      9
                      A                      A                      A
 Frequencies --    110.8971               141.9983               156.3401
 Red. masses --      1.0546                 1.0282                 2.9910
 Frc consts  --      0.0076                 0.0122                 0.0431
 IR Inten    --      0.1980                 0.0184                 0.2833

                     10                     11                     12
                      A                      A                      A
 Frequencies --    181.5079               227.4044               245.5216
 Red. masses --      3.1240                 4.0290                 2.4848
 Frc consts  --      0.0606                 0.1228                 0.0883
 IR Inten    --      1.9567                 0.0416                 3.9349

                     13                     14                     15
                      A                      A                      A
 Frequencies --    250.7117               251.9694               258.7893
 Red. masses --      1.7516                 2.5017                 1.9796
 Frc consts  --      0.0649                 0.0936                 0.0781
 IR Inten    --      2.6632                 0.3500                 1.3807

                     16                     17                     18
                      A                      A                      A
 Frequencies --    297.7908               322.5019               367.1858
 Red. masses --      1.9255                 3.3158                 3.7148
 Frc consts  --      0.1006                 0.2032                 0.2951
 IR Inten    --      3.1665                 3.1689                 0.5543

                     19                     20                     21
                      A                      A                      A
 Frequencies --    436.1493               444.7354               471.8216
 Red. masses --      2.7377                 2.5010                 2.7365
 Frc consts  --      0.3068                 0.2915                 0.3589
 IR Inten    --      0.6002                 4.2257                 7.4018

                     22                     23                     24
                      A                      A                      A
 Frequencies --    495.5579               629.8830               641.8579
 Red. masses --      2.5086                 2.7911                 4.6047
 Frc consts  --      0.3630                 0.6524                 1.1177
 IR Inten    --      0.4181                 7.4954                 7.9831

                     25                     26                     27
                      A                      A                      A
 Frequencies --    653.1909               657.2148               673.6180
 Red. masses --      4.2265                 2.6848                 4.3979
 Frc consts  --      1.0625                 0.6833                 1.1758
 IR Inten    --      0.0286                 4.2935                 0.8712

                     28                     29                     30
                      A                      A                      A
 Frequencies --    738.3724               803.2702               829.1630
 Red. masses --      5.9119                 1.3384                 4.1521
 Frc consts  --      1.8990                 0.5088                 1.6819
 IR Inten    --      4.1065                 1.0071                15.8146

                     31                     32                     33
                      A                      A                      A
 Frequencies --    841.0068               861.9252               879.4622
 Red. masses --      2.9404                 2.5052                 1.9115
 Frc consts  --      1.2253                 1.0966                 0.8711
 IR Inten    --      2.0236                20.9038                29.4612

                     34                     35                     36
                      A                      A                      A
 Frequencies --    900.9341               911.1756               958.6519
 Red. masses --      1.8201                 2.7718                 2.3158
 Frc consts  --      0.8704                 1.3559                 1.2540
 IR Inten    --     49.1172                 2.7597                 4.6999

                     37                     38                     39
                      A                      A                      A
 Frequencies --    992.0347               996.2714              1013.8445
 Red. masses --      2.1385                 1.8113                 2.1797
 Frc consts  --      1.2399                 1.0593                 1.3201
 IR Inten    --     22.7981                 7.2020                 1.1597

                     40                     41                     42
                      A                      A                      A
 Frequencies --   1018.9384              1034.4343              1043.7568
 Red. masses --      3.4752                 1.6162                 2.1226
 Frc consts  --      2.1258                 1.0190                 1.3625
 IR Inten    --      7.3946                 7.7882                 9.6651

                     43                     44                     45
                      A                      A                      A
 Frequencies --   1074.6101              1078.8085              1084.6627
 Red. masses --      1.8517                 1.4226                 1.5302
 Frc consts  --      1.2598                 0.9755                 1.0607
 IR Inten    --      7.5964                 2.0083                 1.0225

                     46                     47                     48
                      A                      A                      A
 Frequencies --   1086.0717              1112.8342              1129.0782
 Red. masses --      2.1575                 4.3696                 2.3032
 Frc consts  --      1.4994                 3.1883                 1.7299
 IR Inten    --     39.1036                31.7461                 3.2483

                     49                     50                     51
                      A                      A                      A
 Frequencies --   1161.8723              1168.9048              1175.9719
 Red. masses --      1.4716                 3.0298                 1.7995
 Frc consts  --      1.1705                 2.4390                 1.4662
 IR Inten    --     11.0963                31.3651                 2.6849

                     52                     53                     54
                      A                      A                      A
 Frequencies --   1229.1648              1232.6541              1235.4780
 Red. masses --      1.3310                 1.5439                 3.7244
 Frc consts  --      1.1848                 1.3822                 3.3495
 IR Inten    --      6.4359                10.5775                19.8912

                     55                     56                     57
                      A                      A                      A
 Frequencies --   1263.9250              1289.6762              1297.1619
 Red. masses --      1.3499                 1.3778                 2.0558
 Frc consts  --      1.2706                 1.3502                 2.0381
 IR Inten    --      2.9035                 2.3149                18.4874

                     58                     59                     60
                      A                      A                      A
 Frequencies --   1302.7832              1330.2560              1334.0826
 Red. masses --      1.5316                 1.3895                 2.5498
 Frc consts  --      1.5316                 1.4487                 2.6737
 IR Inten    --     11.1550                 0.8247                26.7404

                     61                     62                     63
                      A                      A                      A
 Frequencies --   1358.6418              1362.3599              1378.3180
 Red. masses --      1.4860                 1.2684                 1.3717
 Frc consts  --      1.6162                 1.3871                 1.5354
 IR Inten    --      1.3052                 2.3203                 4.9740

                     64                     65                     66
                      A                      A                      A
 Frequencies --   1381.2238              1403.4823              1419.9077
 Red. masses --      2.0950                 1.2946                 1.5005
 Frc consts  --      2.3548                 1.5025                 1.7824
 IR Inten    --     12.7551                 2.5267                26.1986

                     67                     68                     69
                      A                      A                      A
 Frequencies --   1432.3668              1450.9660              1452.9665
 Red. masses --      1.5431                 1.3765                 1.4955
 Frc consts  --      1.8653                 1.7074                 1.8602
 IR Inten    --     25.2202                 2.4883                 1.9889

                     70                     71                     72
                      A                      A                      A
 Frequencies --   1482.8034              1491.1521              1502.6171
 Red. masses --      1.1555                 1.1581                 1.0429
 Frc consts  --      1.4968                 1.5172                 1.3873
 IR Inten    --      2.8400                 8.1759                 2.5971

                     73                     74                     75
                      A                      A                      A
 Frequencies --   1506.4078              1511.7565              1515.1956
 Red. masses --      1.0428                 1.0602                 1.0864
 Frc consts  --      1.3942                 1.4276                 1.4695
 IR Inten    --      7.5229                14.3642                 2.2334

                     76                     77                     78
                      A                      A                      A
 Frequencies --   1517.0522              1520.6839              1522.2379
 Red. masses --      1.0962                 1.0759                 1.0641
 Frc consts  --      1.4864                 1.4659                 1.4528
 IR Inten    --      3.1453                 3.4142                 3.5700

                     79                     80                     81
                      A                      A                      A
 Frequencies --   1524.8991              1527.5194              1541.5342
 Red. masses --      1.0833                 1.0887                 1.0942
 Frc consts  --      1.4842                 1.4967                 1.5320
 IR Inten    --      1.6358                 1.7591                 1.2753

                     82                     83                     84
                      A                      A                      A
 Frequencies --   1551.6046              1635.0349              1698.1639
 Red. masses --      1.0617                 9.3992                 7.4826
 Frc consts  --      1.5060                14.8045                12.7134
 IR Inten    --      6.8915                21.0828                20.1787

                     85                     86                     87
                      A                      A                      A
 Frequencies --   2968.8432              2979.2602              3029.8725
 Red. masses --      1.0579                 1.0693                 1.0659
 Frc consts  --      5.4939                 5.5921                 5.7654
 IR Inten    --     60.1133                70.0608                23.0730

                     88                     89                     90
                      A                      A                      A
 Frequencies --   3044.4315              3046.4034              3050.1886
 Red. masses --      1.0692                 1.0382                 1.0886
 Frc consts  --      5.8386                 5.6767                 5.9673
 IR Inten    --     40.3266                31.6889                28.8024

                     91                     92                     93
                      A                      A                      A
 Frequencies --   3051.9801              3053.0418              3057.2997
 Red. masses --      1.0369                 1.0665                 1.0778
 Frc consts  --      5.6907                 5.8568                 5.9356
 IR Inten    --     22.6085                18.6758                40.7735

                     94                     95                     96
                      A                      A                      A
 Frequencies --   3064.5974              3067.7283              3086.3152
 Red. masses --      1.0773                 1.0632                 1.0996
 Frc consts  --      5.9611                 5.8952                 6.1711
 IR Inten    --     48.6124                43.4960                41.6525

                     97                     98                     99
                      A                      A                      A
 Frequencies --   3092.1151              3096.6712              3106.7831
 Red. masses --      1.1008                 1.1018                 1.1015
 Frc consts  --      6.2013                 6.2250                 6.2640
 IR Inten    --     14.7307                14.8880                15.8966

                    100                    101                    102
                      A                      A                      A
 Frequencies --   3107.0425              3118.4514              3119.7758
 Red. masses --      1.1002                 1.1031                 1.1030
 Frc consts  --      6.2576                 6.3205                 6.3252
 IR Inten    --     15.8715                 4.2825               104.8751

                    103                    104                    105
                      A                      A                      A
 Frequencies --   3131.8186              3142.6118              3422.6358
 Red. masses --      1.1014                 1.0987                 1.0733
 Frc consts  --      6.3650                 6.3929                 7.4078
 IR Inten    --     20.3416                14.0541                 5.6600

 - Thermochemistry -
 -------------------
 Temperature   298.150 Kelvin.  Pressure   1.00000 Atm.
 Atom     1 has atomic number  6 and mass  12.00000

 Molecular mass:   223.16846 amu.
 Principal axes and moments of inertia in atomic units:
                           1         2         3
     Eigenvalues --  2260.950115747.935837058.98866
           X            0.99986  -0.01446   0.00802
           Y            0.01446   0.99990   0.00006
           Z           -0.00802   0.00006   0.99997
 This molecule is an asymmetric top.
 Rotational symmetry number  1.
 Warning -- assumption of classical behavior for rotation
           may cause significant error
 Rotational temperatures (Kelvin)      0.03831     0.01507     0.01227
 Rotational constants (GHZ):           0.79822     0.31398     0.25567
 Zero-point vibrational energy     862570.7 (Joules/Mol)
                                  206.15935 (Kcal/Mol)
 Warning -- explicit consideration of  22 degrees of freedom as
           vibrations may cause significant error
 Vibrational temperatures:     37.49    43.36    50.55   111.00   125.95
          (Kelvin)            143.73   159.56   204.30   224.94   261.15
                              327.18   353.25   360.72   362.53   372.34
                              428.45   464.01   528.30   627.52   639.88
                              678.85   713.00   906.26   923.49   939.80
                              945.59   969.19  1062.35  1155.73  1192.98
                             1210.02  1240.12  1265.35  1296.24  1310.98
                             1379.29  1427.32  1433.41  1458.70  1466.03
                             1488.32  1501.73  1546.12  1552.16  1560.59
                             1562.61  1601.12  1624.49  1671.68  1681.79
                             1691.96  1768.49  1773.51  1777.58  1818.51
                             1855.56  1866.33  1874.41  1913.94  1919.45
                             1954.78  1960.13  1983.09  1987.27  2019.30
                             2042.93  2060.86  2087.62  2090.49  2133.42
                             2145.44  2161.93  2167.38  2175.08  2180.03
                             2182.70  2187.92  2190.16  2193.99  2197.76
                             2217.92  2232.41  2352.45  2443.28  4271.50
                             4286.49  4359.31  4380.26  4383.09  4388.54
                             4391.12  4392.65  4398.77  4409.27  4413.78
                             4440.52  4448.86  4455.42  4469.97  4470.34
                             4486.76  4488.66  4505.99  4521.52  4924.41

 Zero-point correction=                           0.328536 (Hartree/Particle)
 Thermal correction to Energy=                    0.345409
 Thermal correction to Enthalpy=                  0.346353
 Thermal correction to Gibbs Free Energy=         0.282130
 Sum of electronic and zero-point Energies=           -709.111503
 Sum of electronic and thermal Energies=              -709.094629
 Sum of electronic and thermal Enthalpies=            -709.093685
 Sum of electronic and thermal Free Energies=         -709.157908

                     E (Thermal)             CV                S
                      KCal/Mol        Cal/Mol-Kelvin    Cal/Mol-Kelvin
 Total                  216.748             62.067            135.169
 Electronic               0.000              0.000              0.000
 Translational            0.889              2.981             42.111
 Rotational               0.889              2.981             32.884
 Vibrational            214.970             56.106             60.174
 Vibration     1          0.593              1.985              6.109
 Vibration     2          0.594              1.984              5.820
 Vibration     3          0.594              1.982              5.516
 Vibration     4          0.599              1.964              3.962
 Vibration     5          0.601              1.958              3.714
 Vibration     6          0.604              1.949              3.456
 Vibration     7          0.607              1.940              3.253
 Vibration     8          0.615              1.911              2.777
 Vibration     9          0.620              1.896              2.594
 Vibration    10          0.630              1.865              2.313
 Vibration    11          0.651              1.799              1.899
 Vibration    12          0.660              1.770              1.763
 Vibration    13          0.663              1.762              1.726
 Vibration    14          0.664              1.759              1.717
 Vibration    15          0.668              1.748              1.670
 Vibration    16          0.691              1.678              1.429
 Vibration    17          0.708              1.630              1.297
 Vibration    18          0.740              1.540              1.092
 Vibration    19          0.797              1.391              0.839
 Vibration    20          0.804              1.373              0.812
 Vibration    21          0.829              1.313              0.732
 Vibration    22          0.851              1.260              0.669

                           ! Non-Optimized Parameters !
 Normal termination of Gaussian 16 at Thu Dec 10 23:04:27 2020.

 ----------------------------------------------------------------------
 # B3LYP/6-311++G(d,p) empiricaldispersion=gd3bj scf=xqc pop=npa geom=c
 heck
 ----------------------------------------------------------------------

 ---------------------------------------
 CID_106613998_JID_6400_Energie_neutraal
 ---------------------------------------
 Structure from the checkpoint file:  "JID_6400.chk"
 Charge =  0 Multiplicity = 1

 SCF Done:  E(RB3LYP) =  -709.635722428     A.U. after   15 cycles
 Normal termination of Gaussian 16 at Thu Dec 10 23:11:08 2020.

 ----------------------------------------------------------------------
 # B3LYP/6-311++G(d,p) empiricaldispersion=gd3bj scf=xqc pop=npa geom=c
 heck
 ----------------------------------------------------------------------

 -------------------------------------
 CID_106613998_JID_6400_Energie_kation
 -------------------------------------
 Structure from the checkpoint file:  "JID_6400.chk"
 Charge =  1 Multiplicity = 2

 SCF Done:  E(UB3LYP) =  -709.355365215     A.U. after   32 cycles
 Normal termination of Gaussian 16 at Thu Dec 10 23:31:38 2020.
 Gaussian 16:  ES64L-G16RevA.03 25-Dec-2016

 ----------------------------------------------------------------------
 # B3LYP/6-311++G(d,p) empiricaldispersion=gd3bj scf=xqc pop=npa geom=c
 heck
 ----------------------------------------------------------------------

 ------------------------------------
 CID_106613998_JID_6400_Energie_anion
 ------------------------------------
 Structure from the checkpoint file:  "JID_6400.chk"
 Charge = -1 Multiplicity = 2

                         Standard orientation:
 ---------------------------------------------------------------------
 Center     Atomic      Atomic             Coordinates (Angstroms)
 Number     Number       Type             X           Y           Z
 ---------------------------------------------------------------------
      1          6           0        3.176830   -2.376910   -0.776289
      2          6           0        2.655377   -1.006556   -0.497514
      3          6           0        3.126284   -0.047229    0.346743
      4          8           0        2.282936    1.042299    0.247285
      5          6           0        1.336883    0.672587   -0.660125
      6          7           0        1.506642   -0.524190   -1.131679
      7          6           0        0.236303    1.629690   -0.970717
      8          7           0       -0.586293    1.937431    0.194974
      9          6           0       -1.588274    2.942096   -0.116782
     10          6           0       -1.058971    0.771855    0.939426
     11          6           0       -1.841849   -0.310978    0.184338
     12          6           0       -3.221472    0.093869   -0.391318
     13          6           0       -4.041244   -1.223936   -0.384126
     14          6           0       -3.123911   -2.234416    0.363694
     15          7           0       -2.102183   -1.455020    1.078301
     16          6           0        4.272075    0.063638    1.284356
     17          1           0        4.075203   -2.588868   -0.188821
     18          1           0        3.426446   -2.492198   -1.837415
     19          1           0        2.422757   -3.134805   -0.535018
     20          1           0        0.661803    2.575810   -1.331053
     21          1           0       -0.331717    1.190248   -1.808943
     22          1           0       -2.289851    2.655837   -0.920613
     23          1           0       -2.173494    3.163567    0.781255
     24          1           0       -1.085968    3.865818   -0.429646
     25          1           0       -0.188641    0.283969    1.392997
     26          1           0       -1.676419    1.149941    1.766305
     27          1           0       -1.212662   -0.695255   -0.628685
     28          1           0       -3.690143    0.842580    0.259525
     29          1           0       -3.146118    0.536879   -1.389616
     30          1           0       -4.994018   -1.089897    0.139139
     31          1           0       -4.277511   -1.569138   -1.395978
     32          1           0       -3.665207   -2.883153    1.058788
     33          1           0       -2.611180   -2.881381   -0.358402
     34          1           0       -2.528145   -1.086886    1.932610
     35          1           0        4.938822    0.890104    1.009527
     36          1           0        3.933108    0.240343    2.312336
     37          1           0        4.854085   -0.861717    1.272139
 ---------------------------------------------------------------------

 SCF Done:  E(UB3LYP) =  -709.621962868     A.U. after   33 cycles
 SCF Done:  E(UB3LYP) =  -709.621962868     a.u. after    1 cycles

 The electronic state is 2-A.
 Alpha  occ. eigenvalues --  -19.09711 -14.21608 -14.21221 -14.19983 -10.16254
 Alpha  occ. eigenvalues --  -10.13403 -10.11752 -10.10517 -10.09572 -10.09512
 Alpha  occ. eigenvalues --  -10.09488 -10.09334 -10.08609 -10.07881 -10.07088
 Alpha  occ. eigenvalues --  -10.06820  -1.03257  -0.84101  -0.82509  -0.81971
 Alpha  occ. eigenvalues --   -0.71421  -0.66079  -0.65819  -0.64582  -0.63878
 Alpha  occ. eigenvalues --   -0.59370  -0.57121  -0.51831  -0.50964  -0.49758
 Alpha  occ. eigenvalues --   -0.48044  -0.46386  -0.41242  -0.40527  -0.39006
 Alpha  occ. eigenvalues --   -0.38118  -0.37578  -0.36631  -0.34949  -0.33887
 Alpha  occ. eigenvalues --   -0.33512  -0.33222  -0.32443  -0.32047  -0.31786
 Alpha  occ. eigenvalues --   -0.30814  -0.29628  -0.29260  -0.28859  -0.27931
 Alpha  occ. eigenvalues --   -0.27595  -0.27109  -0.25341  -0.24768  -0.23927
 Alpha  occ. eigenvalues --   -0.22540  -0.21617  -0.19633  -0.14146  -0.13691
 Alpha  occ. eigenvalues --   -0.12252   0.04109
 Alpha virt. eigenvalues --    0.05497   0.06548   0.07285   0.07762   0.08162
 Alpha virt. eigenvalues --    0.08626   0.09103   0.09171   0.09599   0.10104
 Alpha virt. eigenvalues --    0.10478   0.10889   0.11248   0.11759   0.12355

  Beta  occ. eigenvalues --  -19.09704 -14.21608 -14.21216 -14.19968 -10.16251
  Beta  occ. eigenvalues --  -10.13402 -10.11740 -10.10516 -10.09556 -10.09486
  Beta  occ. eigenvalues --  -10.09477 -10.09333 -10.08563 -10.07855 -10.07071
  Beta  occ. eigenvalues --  -10.06801  -1.03248  -0.84088  -0.82500  -0.81951
  Beta  occ. eigenvalues --   -0.71401  -0.66041  -0.65792  -0.64540  -0.63846
  Beta  occ. eigenvalues --   -0.59329  -0.57075  -0.51794  -0.50941  -0.49715
  Beta  occ. eigenvalues --   -0.48005  -0.46355  -0.41214  -0.40500  -0.38972
  Beta  occ. eigenvalues --   -0.38093  -0.37554  -0.36605  -0.34923  -0.33857
  Beta  occ. eigenvalues --   -0.33475  -0.33190  -0.32415  -0.32006  -0.31756
  Beta  occ. eigenvalues --   -0.30780  -0.29599  -0.29235  -0.28836  -0.27907
  Beta  occ. eigenvalues --   -0.27570  -0.27080  -0.25311  -0.24736  -0.23905
  Beta  occ. eigenvalues --   -0.22513  -0.21606  -0.19618  -0.14120  -0.13673
  Beta  occ. eigenvalues --   -0.12241
  Beta virt. eigenvalues --    0.06090   0.06567   0.07080   0.07685   0.08136
  Beta virt. eigenvalues --    0.08396   0.08865   0.09376   0.09479   0.10015
  Beta virt. eigenvalues --    0.10393   0.10979   0.11011   0.11477   0.12068

 Mulliken charges and spin densities:
               1          2
     1  C    0.328019  -0.767637
     2  C   -0.283074   0.757601
     3  C   -0.964699   1.331110
     4  O    0.050595   0.045056
     5  C   -1.143792   0.420803
     6  N    0.147169   0.081517
     7  C    0.303999  -1.218112
     8  N    0.217098   0.100621
     9  C    0.441744  -0.681245
    10  C   -0.248534  -0.555115
    11  C   -1.020098   0.836497
    12  C    0.370225  -0.691591
    13  C    0.334699  -0.856110
    14  C   -0.095571  -0.191876
    15  N    0.144532  -0.003837
    16  C    1.876465  -2.461010
    17  H   -0.118757   0.251942
    18  H   -0.014744   0.167536
    19  H   -0.010188   0.172839
    20  H   -0.015997   0.178155
    21  H    0.125959   0.057347
    22  H   -0.092149   0.225945
    23  H   -0.105131   0.245118
    24  H   -0.270887   0.418375
    25  H    0.232706  -0.029066
    26  H   -0.316037   0.483857
    27  H    0.150454   0.088176
    28  H   -0.095733   0.286245
    29  H    0.071351   0.053292
    30  H   -0.185831   0.311785
    31  H   -0.032101   0.166696
    32  H   -0.186435   0.350548
    33  H    0.175546  -0.040584
    34  H    0.071257   0.144062
    35  H   -0.237040   0.394052
    36  H   -0.131063   0.295112
    37  H   -0.473960   0.631896
 Sum of Mulliken charges =  -1.00000   1.00000

 Dipole moment (field-independent basis, Debye):
    X=             -1.0453    Y=             -0.0788    Z=             -2.5347  Tot=              2.7430
 Quadrupole moment (field-independent basis, Debye-Ang):
   XX=           -193.7188   YY=           -145.7708   ZZ=           -133.6404
   XY=              6.5598   XZ=             -1.5592   YZ=              1.4138

 Summary of Natural Population Analysis:

                                       Natural Population
                Natural  -----------------------------------------------
    Atom  No    Charge         Core      Valence    Rydberg      Total
 -----------------------------------------------------------------------
      C    1   -0.29587      0.99963     2.29052    0.00572     3.29587
      C    2    0.03796      0.99945     1.94857    0.01402     2.96204
      C    3    0.13396      0.99939     1.85278    0.01388     2.86604
      O    4   -0.23854      0.99985     3.23109    0.00760     4.23854
      C    5    0.26585      0.99959     1.71489    0.01967     2.73415
      N    6   -0.25270      0.99967     2.74422    0.00881     3.75270
      C    7   -0.11155      0.99956     2.10130    0.01070     3.11155
      N    8   -0.27282      0.99973     2.76058    0.01251     3.77282
      C    9   -0.17563      0.99964     2.16754    0.00845     3.17563
      C   10   -0.08461      0.99958     2.07204    0.01300     3.08461
      C   11   -0.02850      0.99959     2.01702    0.01189     3.02850
      C   12   -0.20221      0.99962     2.19397    0.00862     3.20221
      C   13   -0.20285      0.99965     2.19555    0.00766     3.20285
      C   14   -0.09093      0.99965     2.08042    0.01086     3.09093
      N   15   -0.33048      0.99976     2.81917    0.01156     3.83048
      C   16   -0.30554      0.99963     2.30028    0.00563     3.30554
      H   17    0.10530      0.00000     0.39365    0.00105     0.39470
      H   18    0.10449      0.00000     0.39446    0.00105     0.39551
      H   19    0.10728      0.00000     0.39165    0.00107     0.39272
      H   20    0.10535      0.00000     0.39334    0.00131     0.39465
      H   21    0.09552      0.00000     0.40305    0.00142     0.40448
      H   22    0.08151      0.00000     0.41699    0.00150     0.41849
      H   23    0.09824      0.00000     0.40063    0.00113     0.40176
      H   24    0.09312      0.00000     0.40574    0.00114     0.40688
      H   25    0.10259      0.00000     0.39548    0.00193     0.39741
      H   26    0.09503      0.00000     0.40358    0.00139     0.40497
      H   27    0.09779      0.00000     0.39975    0.00246     0.40221
      H   28    0.09742      0.00000     0.40062    0.00196     0.40258
      H   29    0.09979      0.00000     0.39883    0.00138     0.40021
      H   30    0.09773      0.00000     0.40072    0.00155     0.40227
      H   31    0.09598      0.00000     0.40308    0.00095     0.40402
      H   32    0.09449      0.00000     0.40456    0.00095     0.40551
      H   33    0.08818      0.00000     0.41050    0.00132     0.41182
      H   34    0.16622      0.00000     0.33073    0.00306     0.33378
      H   35    0.10815      0.00000     0.39037    0.00148     0.39185
      H   36    0.10874      0.00000     0.38996    0.00130     0.39126
      H   37    0.11156      0.00000     0.38675    0.00169     0.38844
 =======================================================================
   * Total *    0.00000     15.99398    44.80436    0.20166    61.00000

 Normal termination of Gaussian 16 at Thu Dec 10 23:52:41 2020.
