 Gaussian 16, Revision A.03,

 -----------------------------------------------------------
 # opt freq B3LYP/6-31G(d) empiricaldispersion=gd3bj scf=xqc
 -----------------------------------------------------------

 -------------------------------
 CID_130511131_JID_1529_neutraal
 -------------------------------
 Symbolic Z-matrix:
 Charge =  0 Multiplicity = 1

 SCF Done:  E(RB3LYP) =  -538.918737172     A.U. after   14 cycles
 SCF Done:  E(RB3LYP) =  -538.925598527     A.U. after   13 cycles
 SCF Done:  E(RB3LYP) =  -538.923125578     A.U. after   13 cycles
 SCF Done:  E(RB3LYP) =  -538.926689386     A.U. after   12 cycles
 SCF Done:  E(RB3LYP) =  -538.926816637     A.U. after   10 cycles
 SCF Done:  E(RB3LYP) =  -538.926832771     A.U. after   11 cycles
 SCF Done:  E(RB3LYP) =  -538.926853102     A.U. after    9 cycles
 SCF Done:  E(RB3LYP) =  -538.926856046     A.U. after    9 cycles
 SCF Done:  E(RB3LYP) =  -538.926857305     A.U. after    8 cycles
 SCF Done:  E(RB3LYP) =  -538.926858592     A.U. after    9 cycles
 SCF Done:  E(RB3LYP) =  -538.926859438     A.U. after   10 cycles
 SCF Done:  E(RB3LYP) =  -538.926860558     A.U. after   10 cycles
 SCF Done:  E(RB3LYP) =  -538.926861644     A.U. after   11 cycles
 SCF Done:  E(RB3LYP) =  -538.926861906     A.U. after    9 cycles
 SCF Done:  E(RB3LYP) =  -538.926861966     A.U. after    8 cycles
 Optimization completed.
    -- Stationary point found.

 1\1\GINC-NODE103\FOpt\RB3LYP\6-31G(d)\C8H14O3\VSC10255\08-Dec-2020\0\\
 # opt freq B3LYP/6-31G(d) empiricaldispersion=gd3bj scf=xqc\\CID_13051
 1131_JID_1529_neutraal\\0,1\C,1.0368151927,0.1970616359,0.0604399608\O
 ,0.5098889472,1.4724064665,0.3674751262\C,0.844087557,2.454382414,-0.5
 948963643\C,0.3196864222,3.8282037497,-0.1311992461\C,1.747684031,4.17
 89857977,0.3828712808\C,2.2976142882,2.9959039024,-0.4731554437\C,1.90
 15742175,3.9698734686,1.8868230762\C,3.3508606065,4.0715040962,2.40462
 84863\C,3.8023054859,5.4884613764,2.6993703006\O,4.3622924251,5.811356

 Normal termination of Gaussian 16 at Tue Dec  8 20:31:15 2020.

 --------------------------------------------------------------------
 #N Geom=AllCheck Guess=TCheck SCRF=Check GenChk RB3LYP/6-31G(d) Freq
 --------------------------------------------------------------------

 Structure from the checkpoint file:  "JID_1529.chk"
 -------------------------------
 CID_130511131_JID_1529_neutraal
 -------------------------------
 Charge =  0 Multiplicity = 1

 SCF Done:  E(RB3LYP) =  -538.926861967     A.U. after    1 cycles

  Exact polarizability: 107.430   0.904  90.297   2.103   1.636  74.218
 Approx polarizability: 135.488   4.229 126.974   3.709   4.312 112.030

                      1                      2                      3
                      A                      A                      A
 Frequencies --     40.4509                51.8591                60.8622
 Red. masses --      4.2743                 2.5399                 3.9686
 Frc consts  --      0.0041                 0.0040                 0.0087
 IR Inten    --      5.2914                 1.2172                 0.6050

                      4                      5                      6
                      A                      A                      A
 Frequencies --    127.1080               139.9804               174.8326
 Red. masses --      3.1272                 2.2927                 2.5934
 Frc consts  --      0.0298                 0.0265                 0.0467
 IR Inten    --      0.4370                 5.0159                 0.0794

                      7                      8                      9
                      A                      A                      A
 Frequencies --    214.0243               229.6633               280.1326
 Red. masses --      1.4880                 3.1230                 2.9230
 Frc consts  --      0.0402                 0.0971                 0.1351
 IR Inten    --      3.1716                 1.1834                 7.5342

                     10                     11                     12
                      A                      A                      A
 Frequencies --    317.4121               336.7598               347.4743
 Red. masses --      1.3633                 3.8851                 1.8515
 Frc consts  --      0.0809                 0.2596                 0.1317
 IR Inten    --     42.6851                 5.9214                59.6947

                     13                     14                     15
                      A                      A                      A
 Frequencies --    380.1120               431.8074               473.5732
 Red. masses --      2.1706                 3.1029                 2.0617
 Frc consts  --      0.1848                 0.3409                 0.2724
 IR Inten    --      0.4262                 9.0651                 2.2589

                     16                     17                     18
                      A                      A                      A
 Frequencies --    489.7149               537.2265               669.8437
 Red. masses --      2.6072                 2.0959                 3.5324
 Frc consts  --      0.3684                 0.3564                 0.9338
 IR Inten    --      3.8441                 8.1554                 5.5667

                     19                     20                     21
                      A                      A                      A
 Frequencies --    804.1769               814.7892               828.8271
 Red. masses --      1.8107                 2.6835                 1.8194
 Frc consts  --      0.6899                 1.0496                 0.7364
 IR Inten    --      1.7835                 6.9625                 1.1243

                     22                     23                     24
                      A                      A                      A
 Frequencies --    836.8233               880.7815               934.1744
 Red. masses --      2.4826                 2.0509                 2.3178
 Frc consts  --      1.0243                 0.9374                 1.1917
 IR Inten    --      7.4932                 1.1974                 5.0052

                     25                     26                     27
                      A                      A                      A
 Frequencies --    970.5615               994.9475              1001.4077
 Red. masses --      2.3870                 2.2464                 1.8001
 Frc consts  --      1.3248                 1.3102                 1.0636
 IR Inten    --     21.1674                13.8655                 9.2259

                     28                     29                     30
                      A                      A                      A
 Frequencies --   1035.2182              1067.0854              1090.6361
 Red. masses --      2.5945                 3.0060                 1.2249
 Frc consts  --      1.6382                 2.0167                 0.8584
 IR Inten    --     11.6750                75.2326                 1.5655

                     31                     32                     33
                      A                      A                      A
 Frequencies --   1110.1206              1130.2835              1154.3069
 Red. masses --      2.3441                 2.6949                 2.0560
 Frc consts  --      1.7020                 2.0285                 1.6140
 IR Inten    --     12.5712                19.6341               101.2510

                     34                     35                     36
                      A                      A                      A
 Frequencies --   1173.8799              1194.3910              1195.9965
 Red. masses --      2.1411                 1.3144                 1.3625
 Frc consts  --      1.7383                 1.1048                 1.1483
 IR Inten    --     79.7532                 1.6551                 7.3232

                     37                     38                     39
                      A                      A                      A
 Frequencies --   1224.3285              1238.1131              1259.0217
 Red. masses --      1.5508                 1.3404                 1.8547
 Frc consts  --      1.3696                 1.2107                 1.7322
 IR Inten    --      7.4269                 5.6805                38.3526

                     40                     41                     42
                      A                      A                      A
 Frequencies --   1277.7568              1292.0099              1327.7523
 Red. masses --      1.4537                 1.5647                 1.7622
 Frc consts  --      1.3983                 1.5389                 1.8303
 IR Inten    --      0.1555                13.8389                47.6404

                     43                     44                     45
                      A                      A                      A
 Frequencies --   1364.3698              1372.0871              1401.5524
 Red. masses --      1.3904                 1.3732                 1.2792
 Frc consts  --      1.5250                 1.5231                 1.4805
 IR Inten    --      0.7393                50.1159                35.5193

                     46                     47                     48
                      A                      A                      A
 Frequencies --   1432.2609              1437.5135              1481.6176
 Red. masses --      1.5859                 1.4045                 1.0925
 Frc consts  --      1.9168                 1.7100                 1.4130
 IR Inten    --     27.5926                13.9036                 7.1177

                     49                     50                     51
                      A                      A                      A
 Frequencies --   1489.1273              1504.2394              1506.8955
 Red. masses --      1.0883                 1.1501                 1.1331
 Frc consts  --      1.4219                 1.5332                 1.5160
 IR Inten    --      6.5847                 0.2068                 3.1660

                     52                     53                     54
                      A                      A                      A
 Frequencies --   1517.1457              1518.2460              1538.8728
 Red. masses --      1.0538                 1.0832                 1.0567
 Frc consts  --      1.4291                 1.4711                 1.4744
 IR Inten    --      5.0418                 4.9340                 6.4421

                     55                     56                     57
                      A                      A                      A
 Frequencies --   1825.4757              2982.3402              2999.6084
 Red. masses --      9.2652                 1.0857                 1.0390
 Frc consts  --     18.1910                 5.6896                 5.5082
 IR Inten    --    193.7581                54.7956                46.2081

                     58                     59                     60
                      A                      A                      A
 Frequencies --   3019.0112              3028.1902              3048.5530
 Red. masses --      1.0838                 1.0673                 1.1027
 Frc consts  --      5.8200                 5.7664                 6.0380
 IR Inten    --     82.2512                 6.7698                49.5093

                     61                     62                     63
                      A                      A                      A
 Frequencies --   3053.4476              3063.2222              3073.9053
 Red. masses --      1.0679                 1.0611                 1.0625
 Frc consts  --      5.8663                 5.8664                 5.9153
 IR Inten    --     27.5403                31.6669                23.6967

                     64                     65                     66
                      A                      A                      A
 Frequencies --   3107.3453              3119.3502              3123.2518
 Red. masses --      1.0965                 1.1034                 1.0968
 Frc consts  --      6.2378                 6.3255                 6.3035
 IR Inten    --     18.9142                15.1829                17.3815

                     67                     68                     69
                      A                      A                      A
 Frequencies --   3133.1888              3143.4573              3737.5841
 Red. masses --      1.1062                 1.0975                 1.0660
 Frc consts  --      6.3984                 6.3896                 8.7739
 IR Inten    --     16.2459                28.1122                 7.7059

 - Thermochemistry -
 -------------------
 Temperature   298.150 Kelvin.  Pressure   1.00000 Atm.
 Atom     1 has atomic number  6 and mass  12.00000

 Molecular mass:   158.09429 amu.
 Principal axes and moments of inertia in atomic units:
                           1         2         3
     Eigenvalues --   861.059273202.924343671.19176
           X            0.99990  -0.01226   0.00642
           Y            0.01236   0.99982  -0.01465
           Z           -0.00624   0.01473   0.99987
 This molecule is an asymmetric top.
 Rotational symmetry number  1.
 Warning -- assumption of classical behavior for rotation
           may cause significant error
 Rotational temperatures (Kelvin)      0.10059     0.02704     0.02359
 Rotational constants (GHZ):           2.09595     0.56347     0.49160
 Zero-point vibrational energy     563214.3 (Joules/Mol)
                                  134.61146 (Kcal/Mol)
 Warning -- explicit consideration of  17 degrees of freedom as
           vibrations may cause significant error
 Vibrational temperatures:     58.20    74.61    87.57   182.88   201.40
          (Kelvin)            251.55   307.93   330.43   403.05   456.69
                              484.52   499.94   546.90   621.27   681.37
                              704.59   772.95   963.76  1157.03  1172.30
                             1192.50  1204.00  1267.25  1344.07  1396.42
                             1431.51  1440.80  1489.45  1535.30  1569.18
                             1597.22  1626.23  1660.79  1688.95  1718.46
                             1720.77  1761.54  1781.37  1811.45  1838.41
                             1858.91  1910.34  1963.02  1974.13  2016.52
                             2060.70  2068.26  2131.72  2142.52  2164.27
                             2168.09  2182.83  2184.42  2214.09  2626.45
                             4290.92  4315.77  4343.68  4356.89  4386.19
                             4393.23  4407.29  4422.66  4470.78  4488.05
                             4493.66  4507.96  4522.73  5377.55

 Zero-point correction=                           0.214517 (Hartree/Particle)
 Thermal correction to Energy=                    0.226707
 Thermal correction to Enthalpy=                  0.227651
 Thermal correction to Gibbs Free Energy=         0.175416
 Sum of electronic and zero-point Energies=           -538.712345
 Sum of electronic and thermal Energies=              -538.700155
 Sum of electronic and thermal Enthalpies=            -538.699211
 Sum of electronic and thermal Free Energies=         -538.751446

                     E (Thermal)             CV                S
                      KCal/Mol        Cal/Mol-Kelvin    Cal/Mol-Kelvin
 Total                  142.261             44.313            109.938
 Electronic               0.000              0.000              0.000
 Translational            0.889              2.981             41.083
 Rotational               0.889              2.981             30.694
 Vibrational            140.483             38.351             38.161
 Vibration     1          0.594              1.981              5.237
 Vibration     2          0.596              1.977              4.745
 Vibration     3          0.597              1.973              4.429
 Vibration     4          0.611              1.926              2.989
 Vibration     5          0.615              1.913              2.804
 Vibration     6          0.627              1.873              2.383
 Vibration     7          0.644              1.820              2.009
 Vibration     8          0.652              1.796              1.882
 Vibration     9          0.680              1.710              1.533
 Vibration    10          0.704              1.640              1.323
 Vibration    11          0.717              1.602              1.227
 Vibration    12          0.725              1.580              1.178
 Vibration    13          0.750              1.513              1.039
 Vibration    14          0.793              1.401              0.853
 Vibration    15          0.830              1.309              0.728
 Vibration    16          0.846              1.273              0.684
 Vibration    17          0.892              1.168              0.571

                           ! Non-Optimized Parameters !

 1\1\GINC-NODE103\Freq\RB3LYP\6-31G(d)\C8H14O3\VSC10255\08-Dec-2020\0\\
 #N Geom=AllCheck Guess=TCheck SCRF=Check GenChk RB3LYP/6-31G(d) Freq\\
 CID_130511131_JID_1529_neutraal\\0,1\C,1.0368151927,0.1970616359,0.060
 4399608\O,0.5098889472,1.4724064665,0.3674751262\C,0.844087557,2.45438
 2414,-0.5948963643\C,0.3196864222,3.8282037497,-0.1311992461\C,1.74768
 4031,4.1789857977,0.3828712808\C,2.2976142882,2.9959039024,-0.47315544
 37\C,1.9015742175,3.9698734686,1.8868230762\C,3.3508606065,4.071504096
 2,2.4046284863\C,3.8023054859,5.4884613764,2.6993703006\O,4.3622924251

 Normal termination of Gaussian 16 at Tue Dec  8 20:37:07 2020.

 ----------------------------------------------------------------------
 # B3LYP/6-311++G(d,p) empiricaldispersion=gd3bj scf=xqc pop=npa geom=c
 heck
 ----------------------------------------------------------------------

 ---------------------------------------
 CID_130511131_JID_1529_Energie_neutraal
 ---------------------------------------
 Structure from the checkpoint file:  "JID_1529.chk"
 Charge =  0 Multiplicity = 1

 SCF Done:  E(RB3LYP) =  -539.096309297     A.U. after   14 cycles
 Normal termination of Gaussian 16 at Tue Dec  8 20:40:23 2020.

 ----------------------------------------------------------------------
 # B3LYP/6-311++G(d,p) empiricaldispersion=gd3bj scf=xqc pop=npa geom=c
 heck
 ----------------------------------------------------------------------

 -------------------------------------
 CID_130511131_JID_1529_Energie_kation
 -------------------------------------
 Structure from the checkpoint file:  "JID_1529.chk"
 Charge =  1 Multiplicity = 2

 SCF Done:  E(UB3LYP) =  -538.770168822     A.U. after   25 cycles
 Normal termination of Gaussian 16 at Tue Dec  8 20:48:05 2020.
 Gaussian 16:  ES64L-G16RevA.03 25-Dec-2016

 ------------------------------------
 CID_130511131_JID_1529_Energie_anion
 ------------------------------------
 Structure from the checkpoint file:  "JID_1529.chk"
 Charge = -1 Multiplicity = 2

                         Standard orientation:
 ---------------------------------------------------------------------
 Center     Atomic      Atomic             Coordinates (Angstroms)
 Number     Number       Type             X           Y           Z
 ---------------------------------------------------------------------
      1          6           0        3.250671   -1.570243    0.261734
      2          8           0        2.488696   -0.706747   -0.558142
      3          6           0        2.153108    0.509492    0.082380
      4          6           0        1.240559    1.341926   -0.840497
      5          6           0        0.003573    0.845033   -0.034608
      6          6           0        0.978703    0.391838    1.096155
      7          6           0       -0.720746   -0.311318   -0.718344
      8          6           0       -1.800634   -0.993851    0.145874
      9          6           0       -3.151697   -0.307585    0.099936
     10          8           0       -4.195782   -0.899047   -0.079544
     11          8           0       -0.977878    1.809321    0.306776
     12          1           0        4.196993   -1.098035    0.569112
     13          1           0        3.471283   -2.461201   -0.330831
     14          1           0        2.703740   -1.870876    1.167769
     15          1           0        3.064485    0.999298    0.455020
     16          1           0        1.398145    2.417870   -0.707912
     17          1           0        1.287312    1.097865   -1.905722
     18          1           0        0.807891   -0.586982    1.555210
     19          1           0        1.049588    1.143558    1.890801
     20          1           0       -1.162608    0.062616   -1.651285
     21          1           0        0.034651   -1.049784   -1.000941
     22          1           0       -1.953756   -2.033232   -0.161183
     23          1           0       -1.472643   -1.008683    1.196332
     24          1           0       -3.129485    0.790426    0.243165
     25          1           0       -0.537109    2.537188    0.771961
 ---------------------------------------------------------------------

 SCF Done:  E(UB3LYP) =  -539.087526975     A.U. after   30 cycles

 The electronic state is 2-A.
 Alpha  occ. eigenvalues --  -19.02655 -19.02256 -19.01336 -10.14578 -10.12887
 Alpha  occ. eigenvalues --  -10.11874 -10.10933 -10.07523 -10.07253 -10.06359
 Alpha  occ. eigenvalues --  -10.06127  -0.94188  -0.94104  -0.92751  -0.73996
 Alpha  occ. eigenvalues --   -0.68282  -0.60125  -0.57912  -0.56308  -0.50063
 Alpha  occ. eigenvalues --   -0.47491  -0.45316  -0.41534  -0.39882  -0.37783
 Alpha  occ. eigenvalues --   -0.35933  -0.35723  -0.34401  -0.34209  -0.31717
 Alpha  occ. eigenvalues --   -0.31468  -0.29172  -0.28991  -0.28524  -0.26532
 Alpha  occ. eigenvalues --   -0.25866  -0.24865  -0.24241  -0.21970  -0.19799
 Alpha  occ. eigenvalues --   -0.16847  -0.15629  -0.14947   0.04382
 Alpha virt. eigenvalues --    0.06713   0.06846   0.08374   0.08726   0.09811
 Alpha virt. eigenvalues --    0.10436   0.10558   0.10943   0.11470   0.12307
 Alpha virt. eigenvalues --    0.12986   0.13816   0.14890   0.15142   0.15980

  Beta  occ. eigenvalues --  -19.02641 -19.02217 -19.01263 -10.14502 -10.12890
  Beta  occ. eigenvalues --  -10.11855 -10.10891 -10.07525 -10.07238 -10.06336
  Beta  occ. eigenvalues --  -10.06082  -0.94093  -0.94032  -0.92680  -0.73955
  Beta  occ. eigenvalues --   -0.68233  -0.60055  -0.57833  -0.56228  -0.49967
  Beta  occ. eigenvalues --   -0.47377  -0.45211  -0.41430  -0.39826  -0.37719
  Beta  occ. eigenvalues --   -0.35872  -0.35671  -0.34344  -0.34137  -0.31662
  Beta  occ. eigenvalues --   -0.31332  -0.29115  -0.28904  -0.28449  -0.26404
  Beta  occ. eigenvalues --   -0.25821  -0.24752  -0.24167  -0.21911  -0.19753
  Beta  occ. eigenvalues --   -0.16810  -0.15582  -0.14883
  Beta virt. eigenvalues --    0.07030   0.07591   0.08209   0.08837   0.09186
  Beta virt. eigenvalues --    0.10299   0.10698   0.10973   0.11511   0.11639
  Beta virt. eigenvalues --    0.12807   0.13263   0.14056   0.15115   0.15257

 Mulliken charges and spin densities:
               1          2
     1  C    0.968807  -1.222832
     2  O   -0.113067   0.010193
     3  C   -0.747338   0.810033
     4  C    0.947296  -1.536220
     5  C   -0.768897   1.031250
     6  C    0.792740  -1.305740
     7  C    0.344131  -0.663695
     8  C    0.102771  -0.320465
     9  C   -0.153408   0.011579
    10  O   -0.288269   0.026412
    11  O   -0.212243  -0.010932
    12  H   -0.312577   0.442475
    13  H   -0.267233   0.402159
    14  H   -0.397536   0.531921
    15  H   -0.375153   0.557160
    16  H   -0.440674   0.594227
    17  H    0.060098   0.099256
    18  H    0.164122  -0.021348
    19  H   -0.720996   0.867735
    20  H    0.159422  -0.005131
    21  H    0.080536   0.111461
    22  H    0.074334   0.111059
    23  H    0.040135   0.089092
    24  H    0.147223   0.009995
    25  H   -0.084225   0.380356
 Sum of Mulliken charges =  -1.00000   1.00000

 Dipole moment (field-independent basis, Debye):
    X=             -2.2170    Y=             -1.8340    Z=             -3.0940  Tot=              4.2251
 Quadrupole moment (field-independent basis, Debye-Ang):
   XX=           -140.3791   YY=           -110.3081   ZZ=            -96.0362
   XY=             -4.5164   XZ=             -7.8021   YZ=             -4.2583

 Summary of Natural Population Analysis:

                                       Natural Population
                Natural  -----------------------------------------------
    Atom  No    Charge         Core      Valence    Rydberg      Total
 -----------------------------------------------------------------------
      C    1   -0.09776      0.99961     2.08900    0.00916     3.09776
      O    2   -0.30094      0.99988     3.29146    0.00960     4.30094
      C    3    0.06455      0.99956     1.91958    0.01631     2.93545
      C    4   -0.20212      0.99957     2.19199    0.01055     3.20212
      C    5    0.13248      0.99949     1.85039    0.01764     2.86752
      C    6   -0.21611      0.99957     2.20495    0.01159     3.21611
      C    7   -0.19644      0.99955     2.18803    0.00887     3.19644
      C    8   -0.24422      0.99961     2.23518    0.00943     3.24422
      C    9    0.23546      0.99973     1.74497    0.01984     2.76454
      O   10   -0.28056      0.99988     3.27387    0.00681     4.28056
      O   11   -0.37867      0.99988     3.37224    0.00655     4.37867
      H   12    0.08000      0.00000     0.41823    0.00177     0.42000
      H   13    0.08874      0.00000     0.41016    0.00110     0.41126
      H   14    0.08125      0.00000     0.41683    0.00193     0.41875
      H   15    0.08423      0.00000     0.41298    0.00279     0.41577
      H   16    0.10673      0.00000     0.39127    0.00199     0.39327
      H   17    0.10294      0.00000     0.39580    0.00126     0.39706
      H   18    0.10352      0.00000     0.39507    0.00141     0.39648
      H   19    0.10962      0.00000     0.38613    0.00425     0.39038
      H   20    0.09938      0.00000     0.39945    0.00116     0.40062
      H   21    0.11425      0.00000     0.38418    0.00157     0.38575
      H   22    0.10503      0.00000     0.39384    0.00113     0.39497
      H   23    0.11226      0.00000     0.38619    0.00156     0.38774
      H   24    0.06110      0.00000     0.43711    0.00179     0.43890
      H   25    0.23527      0.00000     0.25915    0.00558     0.26473
 =======================================================================
   * Total *    0.00000     10.99634    31.84805    0.15561    43.00000

 Normal termination of Gaussian 16 at Tue Dec  8 20:57:08 2020.
