 Gaussian 16, Revision A.03,

 -----------------------------------------------------------
 # opt freq B3LYP/6-31G(d) empiricaldispersion=gd3bj scf=xqc
 -----------------------------------------------------------

 ------------------------------
 CID_64504936_JID_5252_neutraal
 ------------------------------
 Symbolic Z-matrix:
 Charge =  0 Multiplicity = 1

 SCF Done:  E(RB3LYP) =  -602.167067879     A.U. after   14 cycles
 SCF Done:  E(RB3LYP) =  -602.170240788     A.U. after   13 cycles
 SCF Done:  E(RB3LYP) =  -602.170587914     A.U. after   13 cycles
 SCF Done:  E(RB3LYP) =  -602.171496552     A.U. after   12 cycles
 SCF Done:  E(RB3LYP) =  -602.172694496     A.U. after   12 cycles
 SCF Done:  E(RB3LYP) =  -602.173072888     A.U. after   12 cycles
 SCF Done:  E(RB3LYP) =  -602.173279191     A.U. after   11 cycles
 SCF Done:  E(RB3LYP) =  -602.173448507     A.U. after   11 cycles
 SCF Done:  E(RB3LYP) =  -602.173369181     A.U. after   11 cycles
 SCF Done:  E(RB3LYP) =  -602.173354243     A.U. after   11 cycles
 SCF Done:  E(RB3LYP) =  -602.173562094     A.U. after    9 cycles
 SCF Done:  E(RB3LYP) =  -602.173562680     A.U. after   10 cycles
 SCF Done:  E(RB3LYP) =  -602.173562890     A.U. after    8 cycles
 SCF Done:  E(RB3LYP) =  -602.173562860     A.U. after    6 cycles
 SCF Done:  E(RB3LYP) =  -602.173562844     A.U. after    6 cycles
 Optimization completed.
    -- Stationary point found.
 Normal termination of Gaussian 16 at Thu Dec 10 15:22:55 2020.

 --------------------------------------------------------------------
 #N Geom=AllCheck Guess=TCheck SCRF=Check GenChk RB3LYP/6-31G(d) Freq
 --------------------------------------------------------------------

 Structure from the checkpoint file:  "JID_5252.chk"
 ------------------------------
 CID_64504936_JID_5252_neutraal
 ------------------------------
 Charge =  0 Multiplicity = 1

 SCF Done:  E(RB3LYP) =  -602.173562844     A.U. after    1 cycles

  Exact polarizability: 168.378  25.425 138.742   6.827  -6.175 139.464
 Approx polarizability: 229.115  42.702 197.449  16.106 -18.076 232.947

                      1                      2                      3
                      A                      A                      A
 Frequencies --     16.6515                20.9342                50.1112
 Red. masses --      1.9209                 1.3781                 3.5131
 Frc consts  --      0.0003                 0.0004                 0.0052
 IR Inten    --      0.0302                 0.2266                 0.0737

                      4                      5                      6
                      A                      A                      A
 Frequencies --     71.3978                80.1517               109.5823
 Red. masses --      3.4358                 3.4158                 2.7055
 Frc consts  --      0.0103                 0.0129                 0.0191
 IR Inten    --      0.5377                 0.0207                 0.7694

                      7                      8                      9
                      A                      A                      A
 Frequencies --    118.7012               132.3144               174.5434
 Red. masses --      1.6652                 3.5522                 2.3243
 Frc consts  --      0.0138                 0.0366                 0.0417
 IR Inten    --      1.1005                 0.5087                 1.4693

                     10                     11                     12
                      A                      A                      A
 Frequencies --    195.7174               238.6893               257.0100
 Red. masses --      3.1750                 1.0866                 2.3741
 Frc consts  --      0.0717                 0.0365                 0.0924
 IR Inten    --      0.6298                 0.1817                 0.6348

                     13                     14                     15
                      A                      A                      A
 Frequencies --    271.1791               290.2723               313.3097
 Red. masses --      1.2130                 2.8821                 2.0688
 Frc consts  --      0.0526                 0.1431                 0.1197
 IR Inten    --      1.9879                 0.6964                 0.7952

                     16                     17                     18
                      A                      A                      A
 Frequencies --    348.0727               382.9616               402.3293
 Red. masses --      3.0833                 2.1888                 2.8986
 Frc consts  --      0.2201                 0.1891                 0.2764
 IR Inten    --      0.8348                 0.4398                 1.6076

                     19                     20                     21
                      A                      A                      A
 Frequencies --    419.7984               451.8369               464.6540
 Red. masses --      3.0097                 2.9529                 2.3512
 Frc consts  --      0.3125                 0.3552                 0.2991
 IR Inten    --      0.0234                 0.2645                 2.5955

                     22                     23                     24
                      A                      A                      A
 Frequencies --    474.5414               504.2648               548.7719
 Red. masses --      2.7778                 2.4881                 2.3827
 Frc consts  --      0.3686                 0.3728                 0.4228
 IR Inten    --      4.9114                 1.1902                 7.6146

                     25                     26                     27
                      A                      A                      A
 Frequencies --    660.7136               704.8886               729.5424
 Red. masses --      6.7628                 3.4499                 3.0388
 Frc consts  --      1.7394                 1.0100                 0.9529
 IR Inten    --      0.0348                 0.5049                 1.3574

                     28                     29                     30
                      A                      A                      A
 Frequencies --    747.1782               809.6123               815.9508
 Red. masses --      1.7726                 1.4994                 1.6585
 Frc consts  --      0.5831                 0.5791                 0.6506
 IR Inten    --     59.1578                 3.4454                27.4017

                     31                     32                     33
                      A                      A                      A
 Frequencies --    826.9332               852.0305               854.4560
 Red. masses --      1.4897                 1.8260                 1.3498
 Frc consts  --      0.6002                 0.7810                 0.5806
 IR Inten    --      7.0544                 4.9211                 1.5706

                     34                     35                     36
                      A                      A                      A
 Frequencies --    862.7105               896.7802               918.7092
 Red. masses --      1.8177                 1.7336                 1.6437
 Frc consts  --      0.7971                 0.8214                 0.8174
 IR Inten    --      1.0115                12.3067                 1.3336

                     37                     38                     39
                      A                      A                      A
 Frequencies --    952.2594               961.4766               966.8004
 Red. masses --      1.4702                 1.4546                 1.7194
 Frc consts  --      0.7855                 0.7923                 0.9469
 IR Inten    --      1.7179                 0.7240                 1.4543

                     40                     41                     42
                      A                      A                      A
 Frequencies --    967.8450              1010.2839              1022.6480
 Red. masses --      1.4834                 1.8400                 1.6242
 Frc consts  --      0.8187                 1.1065                 1.0008
 IR Inten    --      0.7734                 1.6064                 6.5986

                     43                     44                     45
                      A                      A                      A
 Frequencies --   1045.3957              1074.9950              1075.6803
 Red. masses --      2.8721                 2.1684                 1.5882
 Frc consts  --      1.8493                 1.4764                 1.0827
 IR Inten    --      1.5996                 3.6194                 5.5303

                     46                     47                     48
                      A                      A                      A
 Frequencies --   1082.8532              1100.0347              1123.9978
 Red. masses --      1.8527                 2.0577                 1.8795
 Frc consts  --      1.2800                 1.4671                 1.3990
 IR Inten    --      1.0403                 9.2468                 3.9031

                     49                     50                     51
                      A                      A                      A
 Frequencies --   1144.3832              1153.7732              1174.4273
 Red. masses --      1.8132                 1.5054                 1.5686
 Frc consts  --      1.3990                 1.1807                 1.2747
 IR Inten    --      1.9494                18.2536                21.0282

                     52                     53                     54
                      A                      A                      A
 Frequencies --   1193.3137              1221.6918              1234.3581
 Red. masses --      1.9285                 1.1445                 3.4531
 Frc consts  --      1.6180                 1.0064                 3.0998
 IR Inten    --     22.8689                 0.0586                 1.3889

                     55                     56                     57
                      A                      A                      A
 Frequencies --   1243.6237              1250.8996              1273.4788
 Red. masses --      1.9919                 2.1057                 1.2428
 Frc consts  --      1.8150                 1.9413                 1.1875
 IR Inten    --      1.5941                 2.4161                 0.6468

                     58                     59                     60
                      A                      A                      A
 Frequencies --   1297.5351              1327.4824              1353.8274
 Red. masses --      1.3135                 1.2757                 1.7391
 Frc consts  --      1.3029                 1.3245                 1.8780
 IR Inten    --      0.3958                 0.4778                 0.6769

                     61                     62                     63
                      A                      A                      A
 Frequencies --   1354.2759              1360.3181              1377.0788
 Red. masses --      1.5896                 1.5775                 1.2480
 Frc consts  --      1.7177                 1.7199                 1.3943
 IR Inten    --      4.1800                 1.7486                11.5692

                     64                     65                     66
                      A                      A                      A
 Frequencies --   1394.8554              1406.1955              1416.0604
 Red. masses --      1.4907                 1.3917                 1.4672
 Frc consts  --      1.7088                 1.6214                 1.7335
 IR Inten    --      3.4350                 8.8286                 2.9098

                     67                     68                     69
                      A                      A                      A
 Frequencies --   1424.8551              1432.6260              1442.7465
 Red. masses --      1.2520                 1.2430                 1.2512
 Frc consts  --      1.4976                 1.5031                 1.5344
 IR Inten    --      1.9908                 8.8649                 0.1409

                     70                     71                     72
                      A                      A                      A
 Frequencies --   1446.8415              1462.9660              1497.0915
 Red. masses --      1.3719                 2.3896                 1.1564
 Frc consts  --      1.6921                 3.0133                 1.5270
 IR Inten    --      8.5697                 1.7548                22.7258

                     73                     74                     75
                      A                      A                      A
 Frequencies --   1509.7075              1511.9442              1515.7808
 Red. masses --      1.0905                 1.0998                 1.0465
 Frc consts  --      1.4645                 1.4813                 1.4167
 IR Inten    --     10.6205                 4.9747                 5.4262

                     76                     77                     78
                      A                      A                      A
 Frequencies --   1517.2047              1522.2828              1526.0515
 Red. masses --      1.0869                 1.0502                 1.1052
 Frc consts  --      1.4741                 1.4338                 1.5165
 IR Inten    --      0.8899                 3.0943                 9.5596

                     79                     80                     81
                      A                      A                      A
 Frequencies --   1526.2455              1528.8391              1535.2829
 Red. masses --      1.0541                 1.0473                 1.1144
 Frc consts  --      1.4467                 1.4422                 1.5477
 IR Inten    --      5.2070                 0.1825                 7.7100

                     82                     83                     84
                      A                      A                      A
 Frequencies --   1550.7642              1568.2124              1634.6043
 Red. masses --      1.0880                 2.5273                 5.5657
 Frc consts  --      1.5416                 3.6619                 8.7618
 IR Inten    --      4.1105                21.2230                 0.7320

                     85                     86                     87
                      A                      A                      A
 Frequencies --   1679.0657              2941.5793              3007.7580
 Red. masses --      5.8526                 1.0736                 1.0635
 Frc consts  --      9.7215                 5.4733                 5.6688
 IR Inten    --      0.0537                84.1365                31.2388

                     88                     89                     90
                      A                      A                      A
 Frequencies --   3023.0220              3034.4373              3041.4167
 Red. masses --      1.0625                 1.0398                 1.0377
 Frc consts  --      5.7207                 5.6408                 5.6555
 IR Inten    --     24.9938                37.8689                41.3923

                     91                     92                     93
                      A                      A                      A
 Frequencies --   3043.5781              3045.8181              3048.2029
 Red. masses --      1.0393                 1.0731                 1.0894
 Frc consts  --      5.6722                 5.8654                 5.9640
 IR Inten    --     36.1527                53.8003                39.0118

                     94                     95                     96
                      A                      A                      A
 Frequencies --   3062.2363              3083.9380              3087.6538
 Red. masses --      1.1012                 1.0877                 1.0883
 Frc consts  --      6.0840                 6.0951                 6.1129
 IR Inten    --     28.7100                 5.0170                 1.4328

                     97                     98                     99
                      A                      A                      A
 Frequencies --   3092.7337              3104.6798              3107.3960
 Red. masses --      1.1005                 1.0958                 1.0957
 Frc consts  --      6.2021                 6.2231                 6.2338
 IR Inten    --     22.1183                12.6724                40.5511

                    100                    101                    102
                      A                      A                      A
 Frequencies --   3109.1008              3118.2265              3123.5084
 Red. masses --      1.0965                 1.1002                 1.1009
 Frc consts  --      6.2450                 6.3028                 6.3280
 IR Inten    --     67.5471                34.0435                17.7013

                    103                    104                    105
                      A                      A                      A
 Frequencies --   3134.1926              3168.4067              3171.5434
 Red. masses --      1.1017                 1.0866                 1.0874
 Frc consts  --      6.3765                 6.4269                 6.4444
 IR Inten    --     34.4350                16.4692                12.7458

                    106                    107                    108
                      A                      A                      A
 Frequencies --   3186.5444              3195.8033              3456.8990
 Red. masses --      1.0938                 1.0934                 1.0730
 Frc consts  --      6.5439                 6.5796                 7.5550
 IR Inten    --     33.2580                11.1006                 2.8222

 - Thermochemistry -
 -------------------
 Temperature   298.150 Kelvin.  Pressure   1.00000 Atm.
 Atom     1 has atomic number  6 and mass  12.00000

 Molecular mass:   205.18305 amu.
 Principal axes and moments of inertia in atomic units:
                           1         2         3
     Eigenvalues --  2441.818153915.346924934.88442
           X            0.99956   0.02949  -0.00307
           Y           -0.02951   0.99955  -0.00451
           Z            0.00294   0.00460   0.99999
 This molecule is an asymmetric top.
 Rotational symmetry number  1.
 Warning -- assumption of classical behavior for rotation
           may cause significant error
 Rotational temperatures (Kelvin)      0.03547     0.02212     0.01755
 Rotational constants (GHZ):           0.73910     0.46094     0.36571
 Zero-point vibrational energy     907971.2 (Joules/Mol)
                                  217.01034 (Kcal/Mol)
 Warning -- explicit consideration of  24 degrees of freedom as
           vibrations may cause significant error
 Vibrational temperatures:     23.96    30.12    72.10   102.73   115.32
          (Kelvin)            157.66   170.78   190.37   251.13   281.59
                              343.42   369.78   390.17   417.64   450.78
                              500.80   551.00   578.86   604.00   650.09
                              668.53   682.76   725.52   789.56   950.62
                             1014.18  1049.65  1075.02  1164.85  1173.97
                             1189.77  1225.88  1229.37  1241.25  1290.27
                             1321.82  1370.09  1383.35  1391.01  1392.51
                             1453.57  1471.36  1504.09  1546.68  1547.66
                             1557.98  1582.70  1617.18  1646.51  1660.02
                             1689.74  1716.91  1757.74  1775.97  1789.30
                             1799.77  1832.25  1866.86  1909.95  1947.86
                             1948.50  1957.19  1981.31  2006.89  2023.20
                             2037.40  2050.05  2061.23  2075.79  2081.68
                             2104.88  2153.98  2172.13  2175.35  2180.87
                             2182.92  2190.23  2195.65  2195.93  2199.66
                             2208.93  2231.20  2256.31  2351.83  2415.80
                             4232.28  4327.49  4349.45  4365.88  4375.92
                             4379.03  4382.25  4385.68  4405.87  4437.10
                             4442.45  4449.75  4466.94  4470.85  4473.30
                             4486.43  4494.03  4509.40  4558.63  4563.14
                             4584.73  4598.05  4973.71

 Zero-point correction=                           0.345828 (Hartree/Particle)
 Thermal correction to Energy=                    0.362520
 Thermal correction to Enthalpy=                  0.363464
 Thermal correction to Gibbs Free Energy=         0.299780
 Sum of electronic and zero-point Energies=           -601.827735
 Sum of electronic and thermal Energies=              -601.811043
 Sum of electronic and thermal Enthalpies=            -601.810099
 Sum of electronic and thermal Free Energies=         -601.873782

                     E (Thermal)             CV                S
                      KCal/Mol        Cal/Mol-Kelvin    Cal/Mol-Kelvin
 Total                  227.485             62.504            134.033
 Electronic               0.000              0.000              0.000
 Translational            0.889              2.981             41.860
 Rotational               0.889              2.981             32.223
 Vibrational            225.707             56.542             59.950
 Vibration     1          0.593              1.986              6.998
 Vibration     2          0.593              1.986              6.544
 Vibration     3          0.595              1.978              4.813
 Vibration     4          0.598              1.968              4.114
 Vibration     5          0.600              1.963              3.887
 Vibration     6          0.606              1.942              3.276
 Vibration     7          0.609              1.934              3.121
 Vibration     8          0.612              1.921              2.912
 Vibration     9          0.627              1.874              2.386
 Vibration    10          0.636              1.846              2.173
 Vibration    11          0.657              1.781              1.813
 Vibration    12          0.667              1.751              1.682
 Vibration    13          0.675              1.726              1.589
 Vibration    14          0.686              1.692              1.472
 Vibration    15          0.701              1.648              1.345
 Vibration    16          0.726              1.579              1.175
 Vibration    17          0.752              1.507              1.027
 Vibration    18          0.768              1.465              0.954
 Vibration    19          0.782              1.427              0.893
 Vibration    20          0.811              1.357              0.790
 Vibration    21          0.822              1.328              0.753
 Vibration    22          0.831              1.307              0.725
 Vibration    23          0.860              1.241              0.648
 Vibration    24          0.904              1.142              0.547

 Optimization completed.
    -- Stationary point found.
 Normal termination of Gaussian 16 at Thu Dec 10 15:38:40 2020.

 ----------------------------------------------------------------------
 # B3LYP/6-311++G(d,p) empiricaldispersion=gd3bj scf=xqc pop=npa geom=c
 heck
 ----------------------------------------------------------------------

 --------------------------------------
 CID_64504936_JID_5252_Energie_neutraal
 --------------------------------------
 Structure from the checkpoint file:  "JID_5252.chk"
 Charge =  0 Multiplicity = 1

 SCF Done:  E(RB3LYP) =  -602.337207055     A.U. after   14 cycles
 Normal termination of Gaussian 16 at Thu Dec 10 15:46:20 2020.

 ----------------------------------------------------------------------
 # B3LYP/6-311++G(d,p) empiricaldispersion=gd3bj scf=xqc pop=npa geom=c
 heck
 ----------------------------------------------------------------------

 ------------------------------------
 CID_64504936_JID_5252_Energie_kation
 ------------------------------------
 Structure from the checkpoint file:  "JID_5252.chk"
 Charge =  1 Multiplicity = 2

 SCF Done:  E(UB3LYP) =  -602.056654589     A.U. after   22 cycles
 Normal termination of Gaussian 16 at Thu Dec 10 16:03:02 2020.
 Gaussian 16:  ES64L-G16RevA.03 25-Dec-2016

 ----------------------------------------------------------------------
 # B3LYP/6-311++G(d,p) empiricaldispersion=gd3bj scf=xqc pop=npa geom=c
 heck
 ----------------------------------------------------------------------

 -----------------------------------
 CID_64504936_JID_5252_Energie_anion
 -----------------------------------
 Structure from the checkpoint file:  "JID_5252.chk"
 Charge = -1 Multiplicity = 2

                         Standard orientation:
 ---------------------------------------------------------------------
 Center     Atomic      Atomic             Coordinates (Angstroms)
 Number     Number       Type             X           Y           Z
 ---------------------------------------------------------------------
      1          6           0        0.043717    2.960863   -1.207357
      2          6           0       -0.467970    2.189347    0.004887
      3          7           0       -1.514782    1.252258   -0.391639
      4          6           0       -1.984957    0.354207    0.666572
      5          6           0       -2.829087    1.049406    1.747116
      6          6           0       -2.763625   -0.816165    0.043223
      7          6           0       -2.032536   -1.592607   -1.059218
      8          6           0       -0.811717   -2.415294   -0.597024
      9          6           0        0.434243   -1.615618   -0.279429
     10          6           0        1.045069   -0.820520   -1.259032
     11          6           0        2.186628   -0.079378   -0.974532
     12          6           0        2.764215   -0.098141    0.303642
     13          6           0        2.160801   -0.895812    1.278803
     14          6           0        1.018092   -1.645430    0.989258
     15          6           0        3.999581    0.715482    0.603599
     16          1           0        0.416824    2.264835   -1.964633
     17          1           0        0.853562    3.642877   -0.924584
     18          1           0       -0.754370    3.562318   -1.661448
     19          1           0        0.350620    1.598433    0.430121
     20          1           0       -0.785831    2.903542    0.787591
     21          1           0       -2.308172    1.766489   -0.776207
     22          1           0       -1.083324   -0.044569    1.142041
     23          1           0       -3.752558    1.456510    1.313457
     24          1           0       -3.115408    0.348923    2.540865
     25          1           0       -2.281593    1.875640    2.212771
     26          1           0       -3.060001   -1.505361    0.846806
     27          1           0       -3.702075   -0.420391   -0.375089
     28          1           0       -2.748291   -2.286482   -1.519109
     29          1           0       -1.724598   -0.887433   -1.837864
     30          1           0       -0.569813   -3.133730   -1.392752
     31          1           0       -1.090016   -3.015740    0.279223
     32          1           0        0.611765   -0.772748   -2.254196
     33          1           0        2.636009    0.532764   -1.753496
     34          1           0        2.587236   -0.932545    2.278597
     35          1           0        0.566605   -2.255588    1.768517
     36          1           0        4.262357    0.664797    1.664854
     37          1           0        4.864105    0.358461    0.029600
     38          1           0        3.855733    1.771147    0.343363
 ---------------------------------------------------------------------

 SCF Done:  E(UB3LYP) =  -602.320951259     A.U. after   33 cycles
 SCF Done:  E(UB3LYP) =  -602.320951259     a.u. after    1 cycles

 The electronic state is 2-A.
 Alpha  occ. eigenvalues --  -14.19129 -10.09325 -10.08710 -10.08402 -10.08030
 Alpha  occ. eigenvalues --  -10.07367 -10.07362 -10.07356 -10.07312 -10.07283
 Alpha  occ. eigenvalues --  -10.07123 -10.06478 -10.06391 -10.05950 -10.05925
 Alpha  occ. eigenvalues --   -0.80657  -0.76389  -0.70744  -0.68066  -0.65196
 Alpha  occ. eigenvalues --   -0.64704  -0.61866  -0.60328  -0.56504  -0.51894
 Alpha  occ. eigenvalues --   -0.51122  -0.50292  -0.48043  -0.46567  -0.39972
 Alpha  occ. eigenvalues --   -0.38612  -0.37454  -0.36537  -0.35806  -0.34991
 Alpha  occ. eigenvalues --   -0.34472  -0.32843  -0.32264  -0.32154  -0.31166
 Alpha  occ. eigenvalues --   -0.30350  -0.30101  -0.29349  -0.27925  -0.27430
 Alpha  occ. eigenvalues --   -0.26638  -0.26465  -0.25405  -0.24577  -0.24335
 Alpha  occ. eigenvalues --   -0.23947  -0.22803  -0.22492  -0.21633  -0.15734
 Alpha  occ. eigenvalues --   -0.13912  -0.12209   0.04334
 Alpha virt. eigenvalues --    0.06102   0.06509   0.06785   0.07896   0.08171
 Alpha virt. eigenvalues --    0.08411   0.08436   0.08721   0.09181   0.09941
 Alpha virt. eigenvalues --    0.10407   0.10798   0.11138   0.11417   0.11821

  Beta  occ. eigenvalues --  -14.19117 -10.09321 -10.08699 -10.08399 -10.08026
  Beta  occ. eigenvalues --  -10.07357 -10.07353 -10.07345 -10.07302 -10.07276
  Beta  occ. eigenvalues --  -10.07093 -10.06467 -10.06375 -10.05930 -10.05902
  Beta  occ. eigenvalues --   -0.80637  -0.76373  -0.70720  -0.68042  -0.65169
  Beta  occ. eigenvalues --   -0.64683  -0.61829  -0.60288  -0.56459  -0.51855
  Beta  occ. eigenvalues --   -0.51085  -0.50247  -0.48008  -0.46530  -0.39931
  Beta  occ. eigenvalues --   -0.38585  -0.37433  -0.36514  -0.35764  -0.34964
  Beta  occ. eigenvalues --   -0.34438  -0.32814  -0.32236  -0.32131  -0.31135
  Beta  occ. eigenvalues --   -0.30318  -0.30068  -0.29317  -0.27897  -0.27399
  Beta  occ. eigenvalues --   -0.26607  -0.26436  -0.25374  -0.24554  -0.24311
  Beta  occ. eigenvalues --   -0.23923  -0.22778  -0.22460  -0.21609  -0.15720
  Beta  occ. eigenvalues --   -0.13883  -0.12191
  Beta virt. eigenvalues --    0.06266   0.06896   0.07037   0.07366   0.08023
  Beta virt. eigenvalues --    0.08526   0.08726   0.09013   0.09074   0.09441
  Beta virt. eigenvalues --    0.10190   0.10836   0.11164   0.11480   0.11761

 Mulliken charges and spin densities:
               1          2
     1  C    0.432184  -1.137670
     2  C   -0.443176   0.369219
     3  N   -0.115543   0.107893
     4  C   -0.656867   0.746192
     5  C    1.529315  -1.995755
     6  C   -0.574960  -0.078218
     7  C   -0.366870   0.348452
     8  C    0.660886  -1.369473
     9  C    0.830969  -0.084052
    10  C   -1.290635   0.920247
    11  C   -1.027664   0.808303
    12  C   -0.413223   0.757514
    13  C   -0.186488  -0.251843
    14  C   -0.253324  -0.163736
    15  C    2.716487  -3.364438
    16  H    0.039252   0.108010
    17  H   -0.152308   0.287893
    18  H   -0.094694   0.214405
    19  H    0.232050  -0.054997
    20  H   -0.064100   0.188272
    21  H    0.168899   0.064723
    22  H    0.664379  -0.481191
    23  H   -0.151928   0.290105
    24  H   -0.133783   0.277447
    25  H   -0.135623   0.283466
    26  H   -0.010229   0.144075
    27  H   -0.130217   0.260513
    28  H   -0.441593   0.618839
    29  H    0.168803  -0.049213
    30  H    0.031367   0.141816
    31  H   -0.081504   0.218952
    32  H   -0.164357   0.326189
    33  H   -0.213470   0.395146
    34  H   -0.518056   0.692786
    35  H   -0.382042   0.536787
    36  H   -0.297414   0.438547
    37  H   -0.111691   0.269613
    38  H   -0.062832   0.215183
 Sum of Mulliken charges =  -1.00000   1.00000

 Dipole moment (field-independent basis, Debye):
    X=             -0.7987    Y=             -0.4553    Z=             -1.6993  Tot=              1.9320
 Quadrupole moment (field-independent basis, Debye-Ang):
   XX=           -170.0367   YY=           -147.4013   ZZ=           -137.6736
   XY=             -3.7070   XZ=             -2.8486   YZ=              0.4872

 Summary of Natural Population Analysis:

                                       Natural Population
                Natural  -----------------------------------------------
    Atom  No    Charge         Core      Valence    Rydberg      Total
 -----------------------------------------------------------------------
      C    1   -0.28520      0.99967     2.28018    0.00536     3.28520
      C    2   -0.08885      0.99964     2.07957    0.00965     3.08885
      N    3   -0.34111      0.99973     2.82997    0.01141     3.84111
      C    4   -0.01833      0.99959     2.00763    0.01111     3.01833
      C    5   -0.29122      0.99965     2.28617    0.00540     3.29122
      C    6   -0.18719      0.99960     2.17826    0.00932     3.18719
      C    7   -0.18662      0.99962     2.17850    0.00850     3.18662
      C    8   -0.19629      0.99959     2.18778    0.00892     3.19629
      C    9   -0.01651      0.99950     2.00642    0.01059     3.01651
      C   10   -0.09149      0.99950     2.08300    0.00898     3.09149
      C   11   -0.09946      0.99951     2.09043    0.00952     3.09946
      C   12   -0.02210      0.99951     2.01279    0.00980     3.02210
      C   13   -0.10134      0.99951     2.09174    0.01009     3.10134
      C   14   -0.10144      0.99950     2.09208    0.00986     3.10144
      C   15   -0.29261      0.99963     2.28703    0.00594     3.29261
      H   16    0.10018      0.00000     0.39869    0.00113     0.39982
      H   17    0.09836      0.00000     0.40061    0.00103     0.40164
      H   18    0.09255      0.00000     0.40650    0.00095     0.40745
      H   19    0.09622      0.00000     0.40072    0.00305     0.40378
      H   20    0.07521      0.00000     0.42334    0.00145     0.42479
      H   21    0.16722      0.00000     0.33021    0.00257     0.33278
      H   22    0.09706      0.00000     0.39952    0.00342     0.40294
      H   23    0.09459      0.00000     0.40426    0.00115     0.40541
      H   24    0.09960      0.00000     0.39949    0.00091     0.40040
      H   25    0.09965      0.00000     0.39939    0.00096     0.40035
      H   26    0.09611      0.00000     0.40267    0.00122     0.40389
      H   27    0.09469      0.00000     0.40417    0.00114     0.40531
      H   28    0.09546      0.00000     0.40342    0.00111     0.40454
      H   29    0.10358      0.00000     0.39469    0.00173     0.39642
      H   30    0.10253      0.00000     0.39640    0.00107     0.39747
      H   31    0.09693      0.00000     0.40138    0.00169     0.40307
      H   32    0.10010      0.00000     0.39841    0.00149     0.39990
      H   33    0.09884      0.00000     0.39980    0.00136     0.40116
      H   34    0.10027      0.00000     0.39864    0.00109     0.39973
      H   35    0.10016      0.00000     0.39861    0.00123     0.39984
      H   36    0.10260      0.00000     0.39625    0.00114     0.39740
      H   37    0.10362      0.00000     0.39527    0.00111     0.39638
      H   38    0.10420      0.00000     0.39466    0.00114     0.39580
 =======================================================================
   * Total *   -0.00000     14.99376    41.83865    0.16759    57.00000

 Normal termination of Gaussian 16 at Thu Dec 10 16:28:25 2020.
