 Gaussian 16, Revision A.03,

 -----------------------------------------------------------
 # opt freq B3LYP/6-31G(d) empiricaldispersion=gd3bj scf=xqc
 -----------------------------------------------------------

 -------------------------------
 CID_114474079_JID_6760_neutraal
 -------------------------------
 Symbolic Z-matrix:
 Charge =  0 Multiplicity = 1

 SCF Done:  E(RB3LYP) =  -676.134369628     A.U. after   13 cycles
 SCF Done:  E(RB3LYP) =  -676.137902233     A.U. after   12 cycles
 SCF Done:  E(RB3LYP) =  -676.137184146     A.U. after   12 cycles
 SCF Done:  E(RB3LYP) =  -676.139362695     A.U. after   12 cycles
 SCF Done:  E(RB3LYP) =  -676.140404482     A.U. after   12 cycles
 SCF Done:  E(RB3LYP) =  -676.141002040     A.U. after   12 cycles
 SCF Done:  E(RB3LYP) =  -676.141590770     A.U. after   12 cycles
 SCF Done:  E(RB3LYP) =  -676.142482606     A.U. after   14 cycles
 SCF Done:  E(RB3LYP) =  -676.142294417     A.U. after   13 cycles
 SCF Done:  E(RB3LYP) =  -676.143232393     A.U. after   12 cycles
 SCF Done:  E(RB3LYP) =  -676.146013129     A.U. after    8 cycles
 SCF Done:  E(RB3LYP) =  -676.146013583     A.U. after    8 cycles
 SCF Done:  E(RB3LYP) =  -676.146013621     A.U. after    6 cycles
 SCF Done:  E(RB3LYP) =  -676.146013655     A.U. after    6 cycles
 SCF Done:  E(RB3LYP) =  -676.146013670     A.U. after    6 cycles
 Optimization completed.
    -- Stationary point found.
 Normal termination of Gaussian 16 at Fri Dec 11 00:21:11 2020.

 --------------------------------------------------------------------
 #N Geom=AllCheck Guess=TCheck SCRF=Check GenChk RB3LYP/6-31G(d) Freq
 --------------------------------------------------------------------

 Structure from the checkpoint file:  "JID_6760.chk"
 -------------------------------
 CID_114474079_JID_6760_neutraal
 -------------------------------
 Charge =  0 Multiplicity = 1

 SCF Done:  E(RB3LYP) =  -676.146013670     A.U. after    1 cycles

  Exact polarizability: 177.275  19.712 162.001 -20.213  14.935 114.197
 Approx polarizability: 249.498  35.363 239.230 -39.957  28.927 181.347

                      1                      2                      3
                      A                      A                      A
 Frequencies --     25.1147                32.8732                42.8234
 Red. masses --      4.7558                 3.5208                 3.4578
 Frc consts  --      0.0018                 0.0022                 0.0037
 IR Inten    --      0.0618                 0.1090                 0.0249

                      4                      5                      6
                      A                      A                      A
 Frequencies --     64.6475                82.1790               117.3192
 Red. masses --      3.5002                 3.3361                 4.1513
 Frc consts  --      0.0086                 0.0133                 0.0337
 IR Inten    --      0.1063                 1.6377                 1.3583

                      7                      8                      9
                      A                      A                      A
 Frequencies --    127.0023               181.3422               210.6306
 Red. masses --      3.3324                 3.6297                 2.9028
 Frc consts  --      0.0317                 0.0703                 0.0759
 IR Inten    --      0.0401                 1.6396                 2.2599

                     10                     11                     12
                      A                      A                      A
 Frequencies --    232.3538               254.6198               261.2711
 Red. masses --      1.0809                 4.4351                 2.4773
 Frc consts  --      0.0344                 0.1694                 0.0996
 IR Inten    --      0.3897                 0.8106                 1.2155

                     13                     14                     15
                      A                      A                      A
 Frequencies --    277.8736               312.5592               343.6854
 Red. masses --      2.1824                 1.2316                 2.5098
 Frc consts  --      0.0993                 0.0709                 0.1747
 IR Inten    --      6.6504                37.0632                 1.4280

                     16                     17                     18
                      A                      A                      A
 Frequencies --    367.3824               396.9411               422.7897
 Red. masses --      2.6584                 2.1613                 3.1204
 Frc consts  --      0.2114                 0.2006                 0.3286
 IR Inten    --      1.1131                 3.9343                 0.1483

                     19                     20                     21
                      A                      A                      A
 Frequencies --    430.0763               433.9144               467.0447
 Red. masses --      2.5025                 3.1214                 2.4098
 Frc consts  --      0.2727                 0.3463                 0.3097
 IR Inten    --      4.4224                 0.5437                10.3537

                     22                     23                     24
                      A                      A                      A
 Frequencies --    520.0923               536.6976               580.3083
 Red. masses --      2.9635                 2.2975                 3.7633
 Frc consts  --      0.4723                 0.3899                 0.7467
 IR Inten    --      4.8759                 1.3905                 1.7590

                     25                     26                     27
                      A                      A                      A
 Frequencies --    631.1144               648.5716               701.2847
 Red. masses --      6.4053                 2.5961                 2.2739
 Frc consts  --      1.5032                 0.6434                 0.6589
 IR Inten    --      0.2109                 8.7519                14.8075

                     28                     29                     30
                      A                      A                      A
 Frequencies --    714.0930               765.6135               775.8504
 Red. masses --      1.1418                 1.6500                 2.3708
 Frc consts  --      0.3430                 0.5698                 0.8408
 IR Inten    --      0.1412                52.8916                 3.3497

                     31                     32                     33
                      A                      A                      A
 Frequencies --    797.0736               815.8005               827.0570
 Red. masses --      2.6909                 3.1777                 1.2545
 Frc consts  --      1.0073                 1.2460                 0.5056
 IR Inten    --      9.0963                 5.3347                 2.2033

                     34                     35                     36
                      A                      A                      A
 Frequencies --    890.1913               892.0836               896.0601
 Red. masses --      1.5346                 2.3510                 1.4497
 Frc consts  --      0.7165                 1.1023                 0.6858
 IR Inten    --     14.2995                11.5082                86.4181

                     37                     38                     39
                      A                      A                      A
 Frequencies --    908.0764               927.9923               954.0873
 Red. masses --      1.4943                 2.0655                 1.3286
 Frc consts  --      0.7260                 1.0480                 0.7125
 IR Inten    --     44.8292                 4.9607                 0.3250

                     40                     41                     42
                      A                      A                      A
 Frequencies --    966.4973               981.0610               988.8063
 Red. masses --      1.8394                 1.2299                 1.6414
 Frc consts  --      1.0123                 0.6975                 0.9455
 IR Inten    --      5.9606                 0.6227                34.8776

                     43                     44                     45
                      A                      A                      A
 Frequencies --   1002.2913              1010.8800              1018.4102
 Red. masses --      1.8842                 2.1345                 5.1873
 Frc consts  --      1.1152                 1.2851                 3.1698
 IR Inten    --     11.4496                62.0224                 0.7551

                     46                     47                     48
                      A                      A                      A
 Frequencies --   1042.1035              1057.7812              1064.4991
 Red. masses --      1.7346                 1.9642                 1.7570
 Frc consts  --      1.1098                 1.2949                 1.1730
 IR Inten    --      3.8737                 0.3642                18.3320

                     49                     50                     51
                      A                      A                      A
 Frequencies --   1083.5715              1088.8060              1106.6384
 Red. masses --      1.4837                 1.9544                 2.1784
 Frc consts  --      1.0264                 1.3651                 1.5718
 IR Inten    --      8.5625                 8.1518                25.9447

                     52                     53                     54
                      A                      A                      A
 Frequencies --   1120.2917              1171.9171              1187.7041
 Red. masses --      1.7277                 1.8293                 1.3684
 Frc consts  --      1.2775                 1.4802                 1.1373
 IR Inten    --     10.7230                 9.8704                 9.3254

                     55                     56                     57
                      A                      A                      A
 Frequencies --   1191.3609              1209.1220              1238.2824
 Red. masses --      1.0945                 1.1436                 1.2962
 Frc consts  --      0.9153                 0.9850                 1.1710
 IR Inten    --      2.4708                14.8192                 2.5890

                     58                     59                     60
                      A                      A                      A
 Frequencies --   1270.9086              1283.9104              1291.7662
 Red. masses --      1.3939                 1.6434                 2.5648
 Frc consts  --      1.3265                 1.5961                 2.5216
 IR Inten    --     18.1275                59.6155               182.4785

                     61                     62                     63
                      A                      A                      A
 Frequencies --   1298.3718              1336.5994              1348.0991
 Red. masses --      1.5689                 1.3312                 1.5095
 Frc consts  --      1.5583                 1.4012                 1.6163
 IR Inten    --     20.6764                 1.7816                 7.6244

                     64                     65                     66
                      A                      A                      A
 Frequencies --   1352.7576              1373.8348              1392.3392
 Red. masses --      1.7933                 2.4345                 1.4810
 Frc consts  --      1.9335                 2.7072                 1.6915
 IR Inten    --      9.6577                 7.6867                 0.5469

                     67                     68                     69
                      A                      A                      A
 Frequencies --   1409.1925              1418.5549              1426.6282
 Red. masses --      1.4135                 1.3434                 1.2684
 Frc consts  --      1.6538                 1.5927                 1.5210
 IR Inten    --      7.6016                11.0353                 8.2227

                     70                     71                     72
                      A                      A                      A
 Frequencies --   1443.2028              1456.5270              1471.0126
 Red. masses --      1.3132                 1.4170                 1.2024
 Frc consts  --      1.6116                 1.7712                 1.5329
 IR Inten    --     12.8336                 6.2945                 0.4167

                     73                     74                     75
                      A                      A                      A
 Frequencies --   1505.1372              1507.0268              1509.9967
 Red. masses --      1.1894                 1.9869                 1.0614
 Frc consts  --      1.5876                 2.6587                 1.4258
 IR Inten    --      2.1134                 1.9052                 4.6288

                     76                     77                     78
                      A                      A                      A
 Frequencies --   1515.2504              1522.3536              1531.1685
 Red. masses --      1.0813                 1.0845                 1.0599
 Frc consts  --      1.4627                 1.4808                 1.4640
 IR Inten    --      1.7431                 3.1858                 7.3322

                     79                     80                     81
                      A                      A                      A
 Frequencies --   1543.1094              1559.2541              1648.1573
 Red. masses --      1.6160                 1.3633                 5.9204
 Frc consts  --      2.2671                 1.9529                 9.4755
 IR Inten    --     94.2830                 8.9295                18.9832

                     82                     83                     84
                      A                      A                      A
 Frequencies --   1667.0160              1703.1071              1734.1175
 Red. masses --      5.5890                 1.0985                 4.5746
 Frc consts  --      9.1509                 1.8772                 8.1052
 IR Inten    --     64.4220                27.7063                17.7869

                     85                     86                     87
                      A                      A                      A
 Frequencies --   3014.9637              3021.4507              3026.3356
 Red. masses --      1.0807                 1.0613                 1.0627
 Frc consts  --      5.7877                 5.7086                 5.7344
 IR Inten    --     22.9200                30.8409                11.7058

                     88                     89                     90
                      A                      A                      A
 Frequencies --   3031.1796              3037.6963              3048.0253
 Red. masses --      1.0443                 1.0637                 1.0669
 Frc consts  --      5.6533                 5.7829                 5.8401
 IR Inten    --     49.4149                48.6577                68.6888

                     91                     92                     93
                      A                      A                      A
 Frequencies --   3060.2387              3075.6414              3079.9062
 Red. masses --      1.1045                 1.0971                 1.1029
 Frc consts  --      6.0942                 6.1148                 6.1642
 IR Inten    --     17.7053                16.6547                63.2035

                     94                     95                     96
                      A                      A                      A
 Frequencies --   3091.4792              3109.4310              3125.2094
 Red. masses --      1.0941                 1.0928                 1.1027
 Frc consts  --      6.1610                 6.2250                 6.3454
 IR Inten    --     18.0183                34.8179                26.3459

                     97                     98                     99
                      A                      A                      A
 Frequencies --   3158.5935              3185.7123              3193.7586
 Red. masses --      1.0600                 1.0852                 1.0894
 Frc consts  --      6.2307                 6.4891                 6.5469
 IR Inten    --     10.1735                 2.6562                14.7773

                    100                    101                    102
                      A                      A                      A
 Frequencies --   3209.8884              3219.3748              3226.8922
 Red. masses --      1.0933                 1.0949                 1.0925
 Frc consts  --      6.6369                 6.6861                 6.7025
 IR Inten    --     36.6562                 8.6235                 6.7332

                    103                    104                    105
                      A                      A                      A
 Frequencies --   3230.1375              3469.6812              3568.3233
 Red. masses --      1.1149                 1.0522                 1.0885
 Frc consts  --      6.8540                 7.4635                 8.1663
 IR Inten    --     22.4233                 4.9832                 8.5495

 - Thermochemistry -
 -------------------
 Temperature   298.150 Kelvin.  Pressure   1.00000 Atm.
 Atom     1 has atomic number  6 and mass  12.00000

 Molecular mass:   219.16231 amu.
 Principal axes and moments of inertia in atomic units:
                           1         2         3
     Eigenvalues --  2385.973245321.272636763.54178
           X            0.99997  -0.00576  -0.00541
           Y            0.00585   0.99983   0.01735
           Z            0.00531  -0.01738   0.99983
 This molecule is an asymmetric top.
 Rotational symmetry number  1.
 Warning -- assumption of classical behavior for rotation
           may cause significant error
 Rotational temperatures (Kelvin)      0.03630     0.01628     0.01281
 Rotational constants (GHZ):           0.75640     0.33916     0.26683
 Zero-point vibrational energy     861908.4 (Joules/Mol)
                                  206.00105 (Kcal/Mol)
 Warning -- explicit consideration of  24 degrees of freedom as
           vibrations may cause significant error
 Vibrational temperatures:     36.13    47.30    61.61    93.01   118.24
          (Kelvin)            168.80   182.73   260.91   303.05   334.31
                              366.34   375.91   399.80   449.70   494.49
                              528.58   571.11   608.30   618.78   624.31
                              671.97   748.30   772.19   834.93   908.03
                              933.15  1008.99  1027.42  1101.55  1116.28
                             1146.81  1173.75  1189.95  1280.79  1283.51
                             1289.23  1306.52  1335.17  1372.72  1390.57
                             1411.53  1422.67  1442.07  1454.43  1465.27
                             1499.35  1521.91  1531.58  1559.02  1566.55
                             1592.21  1611.85  1686.13  1708.84  1714.10
                             1739.66  1781.61  1828.55  1847.26  1858.56
                             1868.07  1923.07  1939.61  1946.32  1976.64
                             2003.27  2027.51  2040.98  2052.60  2076.45
                             2095.62  2116.46  2165.56  2168.28  2172.55
                             2180.11  2190.33  2203.01  2220.19  2243.42
                             2371.33  2398.46  2450.39  2495.01  4337.86
                             4347.19  4354.22  4361.19  4370.57  4385.43
                             4403.00  4425.16  4431.30  4447.95  4473.78
                             4496.48  4544.51  4583.53  4595.11  4618.31
                             4631.96  4642.78  4647.45  4992.10  5134.02

 Zero-point correction=                           0.328284 (Hartree/Particle)
 Thermal correction to Energy=                    0.344717
 Thermal correction to Enthalpy=                  0.345661
 Thermal correction to Gibbs Free Energy=         0.283069
 Sum of electronic and zero-point Energies=           -675.817730
 Sum of electronic and thermal Energies=              -675.801296
 Sum of electronic and thermal Enthalpies=            -675.800352
 Sum of electronic and thermal Free Energies=         -675.862945

                     E (Thermal)             CV                S
                      KCal/Mol        Cal/Mol-Kelvin    Cal/Mol-Kelvin
 Total                  216.313             63.279            131.737
 Electronic               0.000              0.000              0.000
 Translational            0.889              2.981             42.057
 Rotational               0.889              2.981             32.818
 Vibrational            214.536             57.317             56.863
 Vibration     1          0.593              1.985              6.182
 Vibration     2          0.594              1.983              5.648
 Vibration     3          0.595              1.980              5.124
 Vibration     4          0.597              1.971              4.310
 Vibration     5          0.600              1.961              3.838
 Vibration     6          0.608              1.935              3.144
 Vibration     7          0.611              1.926              2.991
 Vibration     8          0.630              1.865              2.315
 Vibration     9          0.643              1.825              2.038
 Vibration    10          0.653              1.791              1.861
 Vibration    11          0.665              1.755              1.698
 Vibration    12          0.669              1.744              1.653
 Vibration    13          0.679              1.714              1.547
 Vibration    14          0.701              1.650              1.349
 Vibration    15          0.722              1.588              1.195
 Vibration    16          0.740              1.539              1.091
 Vibration    17          0.763              1.477              0.974
 Vibration    18          0.785              1.421              0.883
 Vibration    19          0.791              1.405              0.858
 Vibration    20          0.795              1.396              0.846
 Vibration    21          0.824              1.323              0.746
 Vibration    22          0.875              1.205              0.610
 Vibration    23          0.892              1.169              0.572
 Vibration    24          0.937              1.074              0.485

                           ! Non-Optimized Parameters !
 Normal termination of Gaussian 16 at Fri Dec 11 00:34:37 2020.

 ----------------------------------------------------------------------
 # B3LYP/6-311++G(d,p) empiricaldispersion=gd3bj scf=xqc pop=npa geom=c
 heck
 ----------------------------------------------------------------------

 ---------------------------------------
 CID_114474079_JID_6760_Energie_neutraal
 ---------------------------------------
 Structure from the checkpoint file:  "JID_6760.chk"
 Charge =  0 Multiplicity = 1

 SCF Done:  E(RB3LYP) =  -676.337568668     A.U. after   15 cycles
 Normal termination of Gaussian 16 at Fri Dec 11 00:41:44 2020.

 ----------------------------------------------------------------------
 # B3LYP/6-311++G(d,p) empiricaldispersion=gd3bj scf=xqc pop=npa geom=c
 heck
 ----------------------------------------------------------------------

 -------------------------------------
 CID_114474079_JID_6760_Energie_kation
 -------------------------------------
 Structure from the checkpoint file:  "JID_6760.chk"
 Charge =  1 Multiplicity = 2

 SCF Done:  E(UB3LYP) =  -676.051372032     A.U. after   24 cycles
 Normal termination of Gaussian 16 at Fri Dec 11 00:57:57 2020.
 Gaussian 16:  ES64L-G16RevA.03 25-Dec-2016

 ----------------------------------------------------------------------
 # B3LYP/6-311++G(d,p) empiricaldispersion=gd3bj scf=xqc pop=npa geom=c
 heck
 ----------------------------------------------------------------------

 ------------------------------------
 CID_114474079_JID_6760_Energie_anion
 ------------------------------------
 Structure from the checkpoint file:  "JID_6760.chk"
 Charge = -1 Multiplicity = 2

                         Standard orientation:
 ---------------------------------------------------------------------
 Center     Atomic      Atomic             Coordinates (Angstroms)
 Number     Number       Type             X           Y           Z
 ---------------------------------------------------------------------
      1          6           0       -3.502606    2.238684    0.508605
      2          6           0       -2.450704    1.657163   -0.395737
      3          6           0       -1.233394    2.199440   -0.504128
      4          6           0       -2.874514    0.432889   -1.196888
      5          6           0       -1.891080   -0.747379   -1.138774
      6          6           0       -2.009953   -1.587398    0.143514
      7          6           0       -0.922380   -2.692239    0.219201
      8          6           0        0.499681   -2.240068   -0.093133
      9          8           0        0.802576   -1.084926    0.691656
     10          6           0        1.891705   -0.333093    0.346259
     11          6           0        2.914037   -0.776693   -0.498484
     12          6           0        3.986151    0.074081   -0.782803
     13          6           0        4.048386    1.353116   -0.235590
     14          6           0        3.020780    1.786474    0.608429
     15          6           0        1.946749    0.953206    0.898989
     16          7           0       -2.073658   -0.717494    1.323908
     17          1           0       -3.151064    3.139947    1.020986
     18          1           0       -3.784169    1.489970    1.258372
     19          1           0       -4.409616    2.497657   -0.055400
     20          1           0       -0.462373    1.788342   -1.150337
     21          1           0       -0.958407    3.086854    0.060218
     22          1           0       -3.858755    0.096391   -0.850296
     23          1           0       -3.004455    0.731510   -2.246537
     24          1           0       -2.055167   -1.412517   -1.997174
     25          1           0       -0.873505   -0.358099   -1.239361
     26          1           0       -2.978756   -2.106126    0.102807
     27          1           0       -0.952744   -3.138217    1.221769
     28          1           0       -1.159542   -3.499569   -0.487973
     29          1           0        1.216752   -3.043046    0.128485
     30          1           0        0.600492   -1.988217   -1.156177
     31          1           0        2.888466   -1.772244   -0.925879
     32          1           0        4.777974   -0.276640   -1.439078
     33          1           0        4.884089    2.007635   -0.463439
     34          1           0        3.052023    2.784080    1.037537
     35          1           0        1.132638    1.281427    1.536743
     36          1           0       -2.156335   -1.295691    2.159544
     37          1           0       -1.189700   -0.220671    1.407835
 ---------------------------------------------------------------------

 SCF Done:  E(UB3LYP) =  -676.324420995     A.U. after   33 cycles
 SCF Done:  E(UB3LYP) =  -676.324420996     a.u. after    1 cycles

 The electronic state is 2-A.
 Alpha  occ. eigenvalues --  -19.05828 -14.18580 -10.14416 -10.12729 -10.09939
 Alpha  occ. eigenvalues --  -10.08834 -10.08665 -10.08414 -10.08187 -10.08170
 Alpha  occ. eigenvalues --  -10.08018 -10.07143 -10.07056 -10.06831 -10.06631
 Alpha  occ. eigenvalues --  -10.05376  -0.97498  -0.78970  -0.76431  -0.71556
 Alpha  occ. eigenvalues --   -0.68808  -0.66074  -0.65454  -0.63461  -0.58834
 Alpha  occ. eigenvalues --   -0.57689  -0.53897  -0.51988  -0.50153  -0.46821
 Alpha  occ. eigenvalues --   -0.44974  -0.42898  -0.40274  -0.39626  -0.38911
 Alpha  occ. eigenvalues --   -0.37710  -0.36864  -0.35683  -0.34837  -0.33944
 Alpha  occ. eigenvalues --   -0.33522  -0.33101  -0.31309  -0.31110  -0.29609
 Alpha  occ. eigenvalues --   -0.29226  -0.28264  -0.27650  -0.27472  -0.26835
 Alpha  occ. eigenvalues --   -0.25633  -0.24739  -0.24169  -0.23009  -0.22224
 Alpha  occ. eigenvalues --   -0.21998  -0.16803  -0.15261  -0.13864  -0.13575
 Alpha  occ. eigenvalues --    0.04210
 Alpha virt. eigenvalues --    0.05960   0.06438   0.07068   0.07413   0.07718
 Alpha virt. eigenvalues --    0.07936   0.08569   0.08897   0.09195   0.09769
 Alpha virt. eigenvalues --    0.09880   0.10718   0.11270   0.11589   0.11951

  Beta  occ. eigenvalues --  -19.05821 -14.18570 -10.14416 -10.12704 -10.09930
  Beta  occ. eigenvalues --  -10.08827 -10.08651 -10.08410 -10.08185 -10.08154
  Beta  occ. eigenvalues --  -10.08010 -10.07132 -10.07025 -10.06824 -10.06614
  Beta  occ. eigenvalues --  -10.05365  -0.97485  -0.78945  -0.76415  -0.71538
  Beta  occ. eigenvalues --   -0.68772  -0.66051  -0.65431  -0.63430  -0.58815
  Beta  occ. eigenvalues --   -0.57651  -0.53851  -0.51959  -0.50119  -0.46776
  Beta  occ. eigenvalues --   -0.44932  -0.42868  -0.40233  -0.39594  -0.38885
  Beta  occ. eigenvalues --   -0.37683  -0.36847  -0.35652  -0.34818  -0.33918
  Beta  occ. eigenvalues --   -0.33496  -0.33073  -0.31273  -0.31088  -0.29576
  Beta  occ. eigenvalues --   -0.29197  -0.28244  -0.27621  -0.27440  -0.26818
  Beta  occ. eigenvalues --   -0.25602  -0.24714  -0.24140  -0.22985  -0.22200
  Beta  occ. eigenvalues --   -0.21959  -0.16792  -0.15232  -0.13845  -0.13562
  Beta virt. eigenvalues --    0.06124   0.06635   0.07161   0.07229   0.07647
  Beta virt. eigenvalues --    0.08262   0.08410   0.08620   0.09351   0.09564
  Beta virt. eigenvalues --    0.10004   0.10313   0.10991   0.11451   0.11820

 Mulliken charges and spin densities:
               1          2
     1  C   -0.206294  -0.596263
     2  C    0.744135   0.323506
     3  C   -0.695973  -0.174939
     4  C   -0.340855  -0.250865
     5  C    0.759247  -0.898798
     6  C   -0.998372   1.055557
     7  C    2.077108  -3.082963
     8  C   -0.357894   0.282273
     9  O   -0.039072   0.013685
    10  C    0.025384  -0.318727
    11  C    1.676863  -1.454224
    12  C   -0.667722   0.503345
    13  C    0.483054  -0.854011
    14  C   -0.314179   0.116430
    15  C   -1.118323   1.229145
    16  N   -0.414587  -0.000080
    17  H    0.095395   0.021103
    18  H    0.112272   0.071472
    19  H    0.012999   0.123936
    20  H    0.202250  -0.058097
    21  H   -0.046703   0.175793
    22  H    0.071312   0.080284
    23  H   -0.077584   0.260050
    24  H   -0.429357   0.615061
    25  H    0.287095  -0.243748
    26  H   -0.209388   0.411146
    27  H   -0.079952   0.262152
    28  H   -0.476648   0.642337
    29  H   -0.588332   0.777888
    30  H    0.021062   0.132146
    31  H   -0.359085   0.544413
    32  H   -0.512577   0.698835
    33  H   -0.136327   0.282627
    34  H   -0.028370   0.191769
    35  H    0.064920   0.090427
    36  H    0.124937   0.137237
    37  H    0.339563  -0.109902
 Sum of Mulliken charges =  -1.00000   1.00000

 Dipole moment (field-independent basis, Debye):
    X=             -1.6807    Y=              5.1176    Z=              2.9185  Tot=              6.1263
 Quadrupole moment (field-independent basis, Debye-Ang):
   XX=           -174.2923   YY=           -159.2753   ZZ=           -133.6915
   XY=             -0.4171   XZ=              1.5210   YZ=             -4.0654

 Summary of Natural Population Analysis:

                                       Natural Population
                Natural  -----------------------------------------------
    Atom  No    Charge         Core      Valence    Rydberg      Total
 -----------------------------------------------------------------------
      C    1   -0.29947      0.99961     2.29483    0.00503     3.29947
      C    2    0.01242      0.99953     1.97853    0.00952     2.98758
      C    3   -0.21375      0.99947     2.20632    0.00796     3.21375
      C    4   -0.20485      0.99958     2.19456    0.01072     3.20485
      C    5   -0.19115      0.99960     2.18211    0.00944     3.19115
      C    6   -0.01091      0.99960     1.99736    0.01395     3.01091
      C    7   -0.20107      0.99960     2.19117    0.01030     3.20107
      C    8   -0.01360      0.99955     2.00125    0.01279     3.01360
      O    9   -0.28519      0.99985     3.27517    0.01017     4.28519
      C   10    0.16244      0.99938     1.82457    0.01361     2.83756
      C   11   -0.14074      0.99951     2.13176    0.00947     3.14074
      C   12   -0.09062      0.99957     2.08083    0.01021     3.09062
      C   13   -0.12042      0.99956     2.11045    0.01041     3.12042
      C   14   -0.09604      0.99957     2.08741    0.00907     3.09604
      C   15   -0.12083      0.99952     2.11244    0.00887     3.12083
      N   16   -0.42691      0.99977     2.91702    0.01011     3.92691
      H   17    0.09657      0.00000     0.40239    0.00103     0.40343
      H   18    0.11271      0.00000     0.38585    0.00144     0.38729
      H   19    0.09717      0.00000     0.40167    0.00116     0.40283
      H   20    0.09580      0.00000     0.40302    0.00118     0.40420
      H   21    0.09084      0.00000     0.40807    0.00109     0.40916
      H   22    0.09943      0.00000     0.39923    0.00134     0.40057
      H   23    0.10452      0.00000     0.39456    0.00093     0.39548
      H   24    0.10235      0.00000     0.39622    0.00143     0.39765
      H   25    0.09677      0.00000     0.40072    0.00252     0.40323
      H   26    0.08925      0.00000     0.40878    0.00197     0.41075
      H   27    0.09763      0.00000     0.40098    0.00139     0.40237
      H   28    0.10726      0.00000     0.39027    0.00247     0.39274
      H   29    0.09037      0.00000     0.40768    0.00195     0.40963
      H   30    0.08734      0.00000     0.41052    0.00214     0.41266
      H   31    0.11017      0.00000     0.38802    0.00180     0.38983
      H   32    0.10247      0.00000     0.39618    0.00135     0.39753
      H   33    0.10082      0.00000     0.39827    0.00092     0.39918
      H   34    0.09974      0.00000     0.39941    0.00085     0.40026
      H   35    0.10621      0.00000     0.39219    0.00160     0.39379
      H   36    0.17152      0.00000     0.32678    0.00170     0.32848
      H   37    0.18177      0.00000     0.31571    0.00252     0.31823
 =======================================================================
   * Total *   -0.00000     15.99328    43.81231    0.19441    60.00000

 Normal termination of Gaussian 16 at Fri Dec 11 01:20:23 2020.
