 Gaussian 16, Revision A.03,

 -----------------------------------------------------------
 # opt freq B3LYP/6-31G(d) empiricaldispersion=gd3bj scf=xqc
 -----------------------------------------------------------

 -------------------------------
 CID_138033507_JID_9362_neutraal
 -------------------------------
 Symbolic Z-matrix:
 Charge =  0 Multiplicity = 1

 SCF Done:  E(RB3LYP) =  -896.813014734     A.U. after   15 cycles
 SCF Done:  E(RB3LYP) =  -896.820391670     A.U. after   13 cycles
 SCF Done:  E(RB3LYP) =  -896.794075823     A.U. after   14 cycles
 SCF Done:  E(RB3LYP) =  -896.816795625     A.U. after   13 cycles
 SCF Done:  E(RB3LYP) =  -896.821578379     A.U. after   11 cycles
 SCF Done:  E(RB3LYP) =  -896.823068899     A.U. after   12 cycles
 SCF Done:  E(RB3LYP) =  -896.823929490     A.U. after   12 cycles
 SCF Done:  E(RB3LYP) =  -896.824239520     A.U. after   12 cycles
 SCF Done:  E(RB3LYP) =  -896.824399859     A.U. after   12 cycles
 SCF Done:  E(RB3LYP) =  -896.824488256     A.U. after   11 cycles
 SCF Done:  E(RB3LYP) =  -896.824630214     A.U. after    9 cycles
 SCF Done:  E(RB3LYP) =  -896.824631478     A.U. after    9 cycles
 SCF Done:  E(RB3LYP) =  -896.824632285     A.U. after    9 cycles
 SCF Done:  E(RB3LYP) =  -896.824632851     A.U. after    9 cycles
 SCF Done:  E(RB3LYP) =  -896.824632986     A.U. after    8 cycles
 Optimization completed.
    -- Stationary point found.
 Normal termination of Gaussian 16 at Mon Dec 14 17:03:11 2020.

 --------------------------------------------------------------------
 #N Geom=AllCheck Guess=TCheck SCRF=Check GenChk RB3LYP/6-31G(d) Freq
 --------------------------------------------------------------------

 Structure from the checkpoint file:  "JID_9362.chk"
 -------------------------------
 CID_138033507_JID_9362_neutraal
 -------------------------------
 Charge =  0 Multiplicity = 1

 SCF Done:  E(RB3LYP) =  -896.824632986     A.U. after    1 cycles

  Exact polarizability: 208.379  -4.988 171.106 -14.092 -12.039 113.598
 Approx polarizability: 290.379  -3.335 248.871 -34.089 -28.088 181.005

                      1                      2                      3
                      A                      A                      A
 Frequencies --     27.6922                37.0436                38.8310
 Red. masses --      3.7212                 4.0530                 3.7370
 Frc consts  --      0.0017                 0.0033                 0.0033
 IR Inten    --      1.0452                 2.0390                 0.4474

                      4                      5                      6
                      A                      A                      A
 Frequencies --     59.6368                69.4727                93.9241
 Red. masses --      4.9604                 2.6019                 3.3474
 Frc consts  --      0.0104                 0.0074                 0.0174
 IR Inten    --      0.8473                 0.6530                 3.8110

                      7                      8                      9
                      A                      A                      A
 Frequencies --    126.1628               136.5536               143.2639
 Red. masses --      3.4938                 1.7877                 1.5741
 Frc consts  --      0.0328                 0.0196                 0.0190
 IR Inten    --      2.4407                 1.5712                 0.6397

                     10                     11                     12
                      A                      A                      A
 Frequencies --    159.0864               172.8136               183.2011
 Red. masses --      2.0455                 3.7691                 3.8134
 Frc consts  --      0.0305                 0.0663                 0.0754
 IR Inten    --      0.0878                 4.0401                 2.9443

                     13                     14                     15
                      A                      A                      A
 Frequencies --    206.8778               227.4638               262.5713
 Red. masses --      2.0680                 3.2734                 4.0536
 Frc consts  --      0.0521                 0.0998                 0.1647
 IR Inten    --      0.3860                 1.5976                 5.8108

                     16                     17                     18
                      A                      A                      A
 Frequencies --    290.6846               312.7193               330.6940
 Red. masses --      4.1182                 3.6291                 4.5100
 Frc consts  --      0.2050                 0.2091                 0.2906
 IR Inten    --      4.0684                 2.1318                 6.1592

                     19                     20                     21
                      A                      A                      A
 Frequencies --    346.2368               407.2888               414.1124
 Red. masses --      4.0762                 2.9721                 2.9245
 Frc consts  --      0.2879                 0.2905                 0.2955
 IR Inten    --     11.5524                 0.6528                 6.5631

                     22                     23                     24
                      A                      A                      A
 Frequencies --    434.1031               476.1771               544.7270
 Red. masses --      4.0161                 5.0120                 3.2921
 Frc consts  --      0.4459                 0.6696                 0.5756
 IR Inten    --      3.0808                 5.2992                 1.8584

                     25                     26                     27
                      A                      A                      A
 Frequencies --    557.1320               568.1145               594.2185
 Red. masses --      2.7011                 2.0795                 1.9561
 Frc consts  --      0.4940                 0.3954                 0.4069
 IR Inten    --     15.3182                46.8036                58.3781

                     28                     29                     30
                      A                      A                      A
 Frequencies --    623.2828               676.1861               707.7277
 Red. masses --      3.6403                 3.6256                 4.1057
 Frc consts  --      0.8332                 0.9767                 1.2116
 IR Inten    --     39.5794                 4.5208                 8.2837

                     31                     32                     33
                      A                      A                      A
 Frequencies --    727.0231               763.3406               769.0300
 Red. masses --      5.0282                 5.0063                 1.4616
 Frc consts  --      1.5659                 1.7187                 0.5093
 IR Inten    --     11.4000                14.9780                 3.4084

                     34                     35                     36
                      A                      A                      A
 Frequencies --    797.8129               814.7861               836.4210
 Red. masses --      3.9902                 2.6931                 2.6649
 Frc consts  --      1.4964                 1.0534                 1.0985
 IR Inten    --     15.3547                 7.4063                17.0666

                     37                     38                     39
                      A                      A                      A
 Frequencies --    843.5845               875.0437               893.4817
 Red. masses --      3.6417                 4.0497                 2.2237
 Frc consts  --      1.5269                 1.8270                 1.0459
 IR Inten    --      2.6370                 5.7856                 6.7027

                     40                     41                     42
                      A                      A                      A
 Frequencies --    902.0055               930.2644               974.2328
 Red. masses --      2.4386                 2.1732                 1.9052
 Frc consts  --      1.1690                 1.1080                 1.0654
 IR Inten    --      0.3505                28.5086                 6.4371

                     43                     44                     45
                      A                      A                      A
 Frequencies --    986.9158               996.9902              1005.4424
 Red. masses --      2.9252                 1.4043                 7.8042
 Frc consts  --      1.6787                 0.8224                 4.6483
 IR Inten    --      9.8914                 0.6099                35.6985

                     46                     47                     48
                      A                      A                      A
 Frequencies --   1018.7169              1040.5104              1054.3794
 Red. masses --      1.9860                 3.5600                 2.7380
 Frc consts  --      1.2143                 2.2709                 1.7934
 IR Inten    --     23.5255                28.3506                 3.0824

                     49                     50                     51
                      A                      A                      A
 Frequencies --   1063.6321              1094.0567              1133.4633
 Red. masses --      1.9330                 2.1674                 2.3101
 Frc consts  --      1.2885                 1.5285                 1.7486
 IR Inten    --     48.2162                12.2845                 6.0364

                     52                     53                     54
                      A                      A                      A
 Frequencies --   1147.5752              1155.4933              1184.9371
 Red. masses --      1.6424                 1.3196                 2.1221
 Frc consts  --      1.2744                 1.0381                 1.7555
 IR Inten    --      4.4585                 4.2678                59.9411

                     55                     56                     57
                      A                      A                      A
 Frequencies --   1186.1692              1206.4964              1210.3337
 Red. masses --      1.2771                 1.5993                 1.6559
 Frc consts  --      1.0587                 1.3716                 1.4292
 IR Inten    --      0.9332                35.1116                34.4468

                     58                     59                     60
                      A                      A                      A
 Frequencies --   1230.0471              1239.4893              1259.7711
 Red. masses --      1.4436                 2.2791                 1.4485
 Frc consts  --      1.2869                 2.0630                 1.3544
 IR Inten    --     20.4081               160.6192                39.5880

                     61                     62                     63
                      A                      A                      A
 Frequencies --   1261.5701              1279.7495              1299.1565
 Red. masses --      2.0970                 1.3892                 1.5780
 Frc consts  --      1.9664                 1.3405                 1.5692
 IR Inten    --     54.8000                 6.5254                55.7139

                     64                     65                     66
                      A                      A                      A
 Frequencies --   1317.8818              1332.7872              1343.0667
 Red. masses --      1.9435                 1.4791                 1.4027
 Frc consts  --      1.9888                 1.5480                 1.4907
 IR Inten    --     63.0327                16.1866                26.0178

                     67                     68                     69
                      A                      A                      A
 Frequencies --   1349.3935              1360.0733              1373.7740
 Red. masses --      1.3045                 3.1199                 1.4039
 Frc consts  --      1.3995                 3.4003                 1.5610
 IR Inten    --     11.1758               120.6028               112.3821

                     70                     71                     72
                      A                      A                      A
 Frequencies --   1384.8398              1390.5417              1431.8763
 Red. masses --      1.4514                 1.5069                 1.3374
 Frc consts  --      1.6400                 1.7167                 1.6156
 IR Inten    --     20.6027                 5.6198                33.1238

                     73                     74                     75
                      A                      A                      A
 Frequencies --   1440.4463              1454.7499              1479.3822
 Red. masses --      2.7578                 2.4164                 1.3382
 Frc consts  --      3.3714                 3.0129                 1.7256
 IR Inten    --     38.4372                 1.2060                15.0927

                     76                     77                     78
                      A                      A                      A
 Frequencies --   1485.6537              1495.5050              1502.9316
 Red. masses --      1.3240                 1.3053                 1.1811
 Frc consts  --      1.7217                 1.7200                 1.5719
 IR Inten    --     40.2976                13.1096                36.9697

                     79                     80                     81
                      A                      A                      A
 Frequencies --   1509.5658              1512.9444              1514.5946
 Red. masses --      1.0906                 1.0478                 1.0864
 Frc consts  --      1.4642                 1.4131                 1.4684
 IR Inten    --      1.2018                 6.5585                 4.8572

                     82                     83                     84
                      A                      A                      A
 Frequencies --   1522.8727              1526.2252              1538.8981
 Red. masses --      1.0487                 1.0562                 1.1484
 Frc consts  --      1.4329                 1.4496                 1.6023
 IR Inten    --     10.8405                 4.4358                 0.8284

                     85                     86                     87
                      A                      A                      A
 Frequencies --   1543.0097              1565.4805              1596.4118
 Red. masses --      1.1108                 3.2682                 4.1368
 Frc consts  --      1.5582                 4.7190                 6.2117
 IR Inten    --      2.4743               100.0592                73.8922

                     88                     89                     90
                      A                      A                      A
 Frequencies --   1652.7673              1814.1645              3000.0679
 Red. masses --      5.7707                11.6950                 1.0825
 Frc consts  --      9.2876                22.6780                 5.7402
 IR Inten    --    595.8434               172.2566                17.4980

                     91                     92                     93
                      A                      A                      A
 Frequencies --   3017.1720              3025.5485              3054.2429
 Red. masses --      1.0853                 1.0473                 1.0697
 Frc consts  --      5.8211                 5.6484                 5.8791
 IR Inten    --     55.5314                50.1597                44.1415

                     94                     95                     96
                      A                      A                      A
 Frequencies --   3056.8226              3063.3141              3075.3790
 Red. masses --      1.0649                 1.0640                 1.0302
 Frc consts  --      5.8629                 5.8825                 5.7406
 IR Inten    --     37.1499                65.1927                35.4416

                     97                     98                     99
                      A                      A                      A
 Frequencies --   3076.3751              3093.1032              3098.8143
 Red. masses --      1.0658                 1.0960                 1.1004
 Frc consts  --      5.9428                 6.1782                 6.2257
 IR Inten    --     46.3979                24.1303                10.4718

                    100                    101                    102
                      A                      A                      A
 Frequencies --   3115.9006              3133.9204              3135.5537
 Red. masses --      1.1027                 1.1013                 1.0953
 Frc consts  --      6.3080                 6.3728                 6.3450
 IR Inten    --     30.0556                37.3829                 4.1864

                    103                    104                    105
                      A                      A                      A
 Frequencies --   3149.0514              3178.2706              3181.3057
 Red. masses --      1.1073                 1.0964                 1.0910
 Frc consts  --      6.4698                 6.5252                 6.5055
 IR Inten    --     20.3724                13.3975                26.0691

                    106                    107                    108
                      A                      A                      A
 Frequencies --   3186.8648              3248.6670              3601.4033
 Red. masses --      1.1068                 1.0925                 1.0663
 Frc consts  --      6.6230                 6.7936                 8.1487
 IR Inten    --     18.8150                 6.7613               348.1165

 - Thermochemistry -
 -------------------
 Temperature   298.150 Kelvin.  Pressure   1.00000 Atm.
 Atom     1 has atomic number  6 and mass  12.00000

 Molecular mass:   265.14264 amu.
 Principal axes and moments of inertia in atomic units:
                           1         2         3
     Eigenvalues --  3091.248207086.152589345.33987
           X            0.99994  -0.01084   0.00088
           Y            0.01084   0.99994  -0.00068
           Z           -0.00087   0.00069   1.00000
 This molecule is an asymmetric top.
 Rotational symmetry number  1.
 Warning -- assumption of classical behavior for rotation
           may cause significant error
 Rotational temperatures (Kelvin)      0.02802     0.01222     0.00927
 Rotational constants (GHZ):           0.58382     0.25469     0.19312
 Zero-point vibrational energy     845410.1 (Joules/Mol)
                                  202.05787 (Kcal/Mol)
 Warning -- explicit consideration of  27 degrees of freedom as
           vibrations may cause significant error
 Vibrational temperatures:     39.84    53.30    55.87    85.80    99.96
          (Kelvin)            135.14   181.52   196.47   206.12   228.89
                              248.64   263.59   297.65   327.27   377.78
                              418.23   449.93   475.79   498.16   586.00
                              595.82   624.58   685.11   783.74   801.59
                              817.39   854.95   896.76   972.88  1018.26
                             1046.02  1098.28  1106.46  1147.87  1172.30
                             1203.42  1213.73  1258.99  1285.52  1297.78
                             1338.44  1401.70  1419.95  1434.45  1446.61
                             1465.71  1497.06  1517.02  1530.33  1574.10
                             1630.80  1651.10  1662.50  1704.86  1706.63
                             1735.88  1741.40  1769.76  1783.35  1812.53
                             1815.12  1841.27  1869.20  1896.14  1917.58
                             1932.37  1941.48  1956.84  1976.55  1992.48
                             2000.68  2060.15  2072.48  2093.06  2128.50
                             2137.52  2151.70  2162.38  2171.93  2176.79
                             2179.16  2191.07  2195.90  2214.13  2220.05
                             2252.38  2296.88  2377.96  2610.18  4316.43
                             4341.04  4353.09  4394.37  4398.09  4407.43
                             4424.78  4426.22  4450.29  4458.50  4483.09
                             4509.01  4511.36  4530.78  4572.82  4577.19
                             4585.19  4674.11  5181.62

 Zero-point correction=                           0.322000 (Hartree/Particle)
 Thermal correction to Energy=                    0.340409
 Thermal correction to Enthalpy=                  0.341353
 Thermal correction to Gibbs Free Energy=         0.273783
 Sum of electronic and zero-point Energies=           -896.502633
 Sum of electronic and thermal Energies=              -896.484224
 Sum of electronic and thermal Enthalpies=            -896.483280
 Sum of electronic and thermal Free Energies=         -896.550850

                     E (Thermal)             CV                S
                      KCal/Mol        Cal/Mol-Kelvin    Cal/Mol-Kelvin
 Total                  213.610             68.396            142.214
 Electronic               0.000              0.000              0.000
 Translational            0.889              2.981             42.625
 Rotational               0.889              2.981             33.681
 Vibrational            211.833             62.435             65.908
 Vibration     1          0.593              1.984              5.988
 Vibration     2          0.594              1.982              5.411
 Vibration     3          0.594              1.981              5.318
 Vibration     4          0.597              1.974              4.469
 Vibration     5          0.598              1.969              4.168
 Vibration     6          0.603              1.954              3.577
 Vibration     7          0.611              1.927              3.004
 Vibration     8          0.614              1.917              2.852
 Vibration     9          0.616              1.910              2.760
 Vibration    10          0.621              1.892              2.561
 Vibration    11          0.626              1.876              2.405
 Vibration    12          0.631              1.863              2.296
 Vibration    13          0.641              1.830              2.071
 Vibration    14          0.651              1.799              1.899
 Vibration    15          0.670              1.741              1.645
 Vibration    16          0.687              1.691              1.470
 Vibration    17          0.701              1.649              1.348
 Vibration    18          0.713              1.614              1.257
 Vibration    19          0.724              1.583              1.183
 Vibration    20          0.772              1.454              0.936
 Vibration    21          0.778              1.440              0.912
 Vibration    22          0.795              1.396              0.845
 Vibration    23          0.833              1.303              0.720
 Vibration    24          0.900              1.151              0.555
 Vibration    25          0.913              1.124              0.530
 Vibration    26          0.924              1.100              0.508
 Vibration    27          0.952              1.044              0.460

 Optimization completed.
    -- Stationary point found.
 Normal termination of Gaussian 16 at Mon Dec 14 17:23:41 2020.

 ----------------------------------------------------------------------
 # B3LYP/6-311++G(d,p) empiricaldispersion=gd3bj scf=xqc pop=npa geom=c
 heck
 ----------------------------------------------------------------------

 ---------------------------------------
 CID_138033507_JID_9362_Energie_neutraal
 ---------------------------------------
 Structure from the checkpoint file:  "JID_9362.chk"
 Charge =  0 Multiplicity = 1

 SCF Done:  E(RB3LYP) =  -897.078959653     A.U. after   15 cycles
 Normal termination of Gaussian 16 at Mon Dec 14 17:32:57 2020.

 ----------------------------------------------------------------------
 # B3LYP/6-311++G(d,p) empiricaldispersion=gd3bj scf=xqc pop=npa geom=c
 heck
 ----------------------------------------------------------------------

 -------------------------------------
 CID_138033507_JID_9362_Energie_kation
 -------------------------------------
 Structure from the checkpoint file:  "JID_9362.chk"
 Charge =  1 Multiplicity = 2

 SCF Done:  E(UB3LYP) =  -896.783116750     A.U. after   24 cycles
 Normal termination of Gaussian 16 at Mon Dec 14 17:53:46 2020.
 Gaussian 16:  ES64L-G16RevA.03 25-Dec-2016

 ----------------------------------------------------------------------
 # B3LYP/6-311++G(d,p) empiricaldispersion=gd3bj scf=xqc pop=npa geom=c
 heck
 ----------------------------------------------------------------------

 ------------------------------------
 CID_138033507_JID_9362_Energie_anion
 ------------------------------------
 Structure from the checkpoint file:  "JID_9362.chk"
 Charge = -1 Multiplicity = 2

                         Standard orientation:
 ---------------------------------------------------------------------
 Center     Atomic      Atomic             Coordinates (Angstroms)
 Number     Number       Type             X           Y           Z
 ---------------------------------------------------------------------
      1          6           0       -2.007586    2.775197    0.339125
      2          7           0       -1.186538    1.598173    0.576616
      3          6           0       -1.714070    0.553957    1.465393
      4          6           0       -2.621477   -0.511579    0.820733
      5          6           0       -3.568888   -0.036408   -0.292537
      6          6           0       -4.118288   -1.345346   -0.907037
      7          6           0       -3.087497   -2.449191   -0.531349
      8          6           0       -1.923697   -1.725817    0.163620
      9          8           0       -0.996176   -1.340943   -0.836726
     10          6           0        0.095142    1.578279    0.131670
     11          7           0        0.818742    0.459622    0.345502
     12          6           0        2.085640    0.448016   -0.067581
     13          7           0        2.755021    1.428253   -0.670677
     14          6           0        2.024898    2.537080   -0.898818
     15          6           0        0.699767    2.676542   -0.534965
     16          6           0        2.780804   -0.877808    0.154234
     17          8           0        2.185531   -1.904876    0.403149
     18          8           0        4.112027   -0.782112    0.036588
     19          6           0        4.821109   -2.018819    0.207927
     20          1           0       -3.015446    2.577442    0.701790
     21          1           0       -2.075533    3.001728   -0.730489
     22          1           0       -1.615877    3.659201    0.862081
     23          1           0       -0.863310    0.070325    1.949435
     24          1           0       -2.279217    1.077449    2.245352
     25          1           0       -3.229468   -0.917829    1.644532
     26          1           0       -2.979621    0.505550   -1.038709
     27          1           0       -4.362603    0.629573    0.064844
     28          1           0       -4.245017   -1.253407   -1.989631
     29          1           0       -5.103756   -1.582051   -0.490758
     30          1           0       -2.709585   -2.996094   -1.398506
     31          1           0       -3.535547   -3.178195    0.152760
     32          1           0       -1.432258   -2.359829    0.916645
     33          1           0       -0.190570   -1.035501   -0.374926
     34          1           0        2.541585    3.352776   -1.400760
     35          1           0        0.165404    3.593657   -0.743945
     36          1           0        4.640156   -2.428979    1.205141
     37          1           0        4.499817   -2.749418   -0.539036
     38          1           0        5.874059   -1.769891    0.077533
 ---------------------------------------------------------------------

 SCF Done:  E(UB3LYP) =  -897.087335457     A.U. after   33 cycles
 SCF Done:  E(UB3LYP) =  -897.087437211     a.u. after    5 cycles

 The electronic state is 2-A.
 Alpha  occ. eigenvalues --  -19.01738 -18.97386 -18.94304 -14.21860 -14.14992
 Alpha  occ. eigenvalues --  -14.14181 -10.12408 -10.11188 -10.10275 -10.09928
 Alpha  occ. eigenvalues --  -10.09876 -10.09286 -10.06720 -10.06529 -10.06521
 Alpha  occ. eigenvalues --  -10.06122 -10.05862 -10.05770 -10.02228  -0.95807
 Alpha  occ. eigenvalues --   -0.88515  -0.86394  -0.85421  -0.81019  -0.72967
 Alpha  occ. eigenvalues --   -0.71985  -0.65420  -0.63522  -0.60265  -0.59940
 Alpha  occ. eigenvalues --   -0.59173  -0.55443  -0.51321  -0.48393  -0.46270
 Alpha  occ. eigenvalues --   -0.44792  -0.43720  -0.40871  -0.39726  -0.38772
 Alpha  occ. eigenvalues --   -0.37459  -0.36245  -0.35224  -0.35099  -0.33957
 Alpha  occ. eigenvalues --   -0.33101  -0.32376  -0.31959  -0.30857  -0.30287
 Alpha  occ. eigenvalues --   -0.29047  -0.28567  -0.27941  -0.27165  -0.26276
 Alpha  occ. eigenvalues --   -0.25705  -0.24918  -0.24314  -0.23822  -0.23088
 Alpha  occ. eigenvalues --   -0.22093  -0.21835  -0.19677  -0.18854  -0.16878
 Alpha  occ. eigenvalues --   -0.15492  -0.14836  -0.13729  -0.12614  -0.09997
 Alpha  occ. eigenvalues --   -0.09367   0.04627
 Alpha virt. eigenvalues --    0.06117   0.07532   0.08441   0.08572   0.09081
 Alpha virt. eigenvalues --    0.10214   0.10429   0.10615   0.11431   0.11917
 Alpha virt. eigenvalues --    0.12084   0.12328   0.12854   0.13024   0.13330

  Beta  occ. eigenvalues --  -19.01637 -18.97373 -18.94012 -14.21873 -14.15034
  Beta  occ. eigenvalues --  -14.13814 -10.12217 -10.11250 -10.10279 -10.09927
  Beta  occ. eigenvalues --  -10.09865 -10.09283 -10.06716 -10.06520 -10.06165
  Beta  occ. eigenvalues --  -10.06118 -10.05860 -10.05615 -10.01978  -0.95510
  Beta  occ. eigenvalues --   -0.88483  -0.85957  -0.85252  -0.80709  -0.72799
  Beta  occ. eigenvalues --   -0.71714  -0.65198  -0.63218  -0.60205  -0.59830
  Beta  occ. eigenvalues --   -0.59116  -0.55386  -0.50583  -0.48297  -0.46179
  Beta  occ. eigenvalues --   -0.44722  -0.43494  -0.40784  -0.39704  -0.38659
  Beta  occ. eigenvalues --   -0.37440  -0.36142  -0.35091  -0.34704  -0.33875
  Beta  occ. eigenvalues --   -0.32983  -0.32222  -0.31765  -0.30680  -0.30145
  Beta  occ. eigenvalues --   -0.28783  -0.28152  -0.27463  -0.27097  -0.26108
  Beta  occ. eigenvalues --   -0.25370  -0.24686  -0.23938  -0.23796  -0.22916
  Beta  occ. eigenvalues --   -0.22070  -0.21635  -0.19583  -0.18465  -0.15967
  Beta  occ. eigenvalues --   -0.15074  -0.13758  -0.12955  -0.12062  -0.09784
  Beta  occ. eigenvalues --   -0.08602
  Beta virt. eigenvalues --    0.06230   0.07536   0.08363   0.08552   0.09069
  Beta virt. eigenvalues --    0.10144   0.10334   0.10436   0.11039   0.11399
  Beta virt. eigenvalues --    0.12013   0.12252   0.12381   0.12833   0.13006

 Mulliken charges and spin densities:
               1          2
     1  C   -0.113130  -0.134374
     2  N    0.287337   0.020825
     3  C   -0.849649  -0.055305
     4  C    0.774631   0.180436
     5  C   -0.335298  -0.038919
     6  C   -0.230424  -0.287318
     7  C   -0.502075   0.042308
     8  C   -0.182738  -0.195308
     9  O   -0.240921   0.014568
    10  C   -0.188248  -0.085307
    11  N   -0.240075   0.146283
    12  C   -0.607543   0.293778
    13  N   -0.124567  -0.030802
    14  C   -0.270579   0.087836
    15  C   -0.022317   0.225312
    16  C    0.030209   0.088800
    17  O   -0.357118   0.099585
    18  O   -0.062133   0.018284
    19  C   -0.212617  -0.002847
    20  H    0.020906   0.104121
    21  H    0.179871  -0.013843
    22  H    0.032118   0.119724
    23  H    0.255660  -0.007661
    24  H    0.037209   0.090056
    25  H    0.072628   0.101926
    26  H    0.182375  -0.022277
    27  H    0.022291   0.115973
    28  H    0.122360   0.012126
    29  H    0.046941   0.073808
    30  H    0.166127  -0.002151
    31  H    0.073725   0.042119
    32  H    0.194638  -0.006278
    33  H    0.395897   0.002433
    34  H    0.121119  -0.004480
    35  H    0.085141  -0.000966
    36  H    0.154342   0.001645
    37  H    0.163612   0.005593
    38  H    0.120296   0.000298
 Sum of Mulliken charges =  -1.00000   1.00000

 Dipole moment (field-independent basis, Debye):
    X=             -4.9535    Y=              0.2868    Z=              1.3613  Tot=              5.1452
 Quadrupole moment (field-independent basis, Debye-Ang):
   XX=           -155.5263   YY=           -136.8814   ZZ=           -125.6262
   XY=             -7.5815   XZ=              1.6018   YZ=             -1.1666

 Summary of Natural Population Analysis:

                                       Natural Population
                Natural  -----------------------------------------------
    Atom  No    Charge         Core      Valence    Rydberg      Total
 -----------------------------------------------------------------------
      C    1   -0.17599      0.99965     2.16815    0.00819     3.17599
      N    2   -0.25373      0.99962     2.74373    0.01038     3.75373
      C    3   -0.08124      0.99958     2.06881    0.01284     3.08124
      C    4   -0.12648      0.99957     2.11381    0.01311     3.12648
      C    5   -0.19765      0.99962     2.18827    0.00976     3.19765
      C    6   -0.19103      0.99965     2.18431    0.00707     3.19103
      C    7   -0.19898      0.99963     2.19096    0.00839     3.19898
      C    8    0.06783      0.99954     1.91859    0.01405     2.93217
      O    9   -0.39173      0.99988     3.38480    0.00704     4.39173
      C   10    0.21403      0.99953     1.77149    0.01495     2.78597
      N   11   -0.24288      0.99963     2.73235    0.01090     3.74288
      C   12    0.23366      0.99956     1.75005    0.01673     2.76634
      N   13   -0.26095      0.99969     2.75206    0.00920     3.76095
      C   14    0.06282      0.99960     1.92359    0.01399     2.93718
      C   15   -0.13391      0.99953     2.12773    0.00666     3.13391
      C   16    0.41098      0.99967     1.56505    0.02429     2.58902
      O   17   -0.29325      0.99987     3.28678    0.00660     4.29325
      O   18   -0.26452      0.99986     3.25583    0.00882     4.26452
      C   19   -0.10691      0.99961     2.09849    0.00881     3.10691
      H   20    0.09637      0.00000     0.40277    0.00085     0.40363
      H   21    0.09562      0.00000     0.40343    0.00094     0.40438
      H   22    0.09057      0.00000     0.40807    0.00136     0.40943
      H   23    0.11802      0.00000     0.38074    0.00124     0.38198
      H   24    0.08749      0.00000     0.41154    0.00097     0.41251
      H   25    0.09230      0.00000     0.40635    0.00136     0.40770
      H   26    0.10570      0.00000     0.39278    0.00152     0.39430
      H   27    0.09393      0.00000     0.40512    0.00095     0.40607
      H   28    0.09638      0.00000     0.40257    0.00105     0.40362
      H   29    0.09046      0.00000     0.40817    0.00137     0.40954
      H   30    0.10571      0.00000     0.39287    0.00142     0.39429
      H   31    0.09346      0.00000     0.40541    0.00113     0.40654
      H   32    0.08261      0.00000     0.41592    0.00147     0.41739
      H   33    0.25549      0.00000     0.24175    0.00276     0.24451
      H   34    0.07685      0.00000     0.42190    0.00125     0.42315
      H   35    0.09470      0.00000     0.40401    0.00129     0.40530
      H   36    0.08551      0.00000     0.41316    0.00133     0.41449
      H   37    0.08682      0.00000     0.41188    0.00130     0.41318
      H   38    0.08191      0.00000     0.41721    0.00089     0.41809
 =======================================================================
   * Total *    0.00000     18.99330    51.77049    0.23622    71.00000

 Normal termination of Gaussian 16 at Mon Dec 14 19:59:31 2020.
