 Gaussian 16, Revision A.03,

 -----------------------------------------------------------
 # opt freq B3LYP/6-31G(d) empiricaldispersion=gd3bj scf=xqc
 -----------------------------------------------------------

 -------------------------------
 CID_106701439_JID_8673_neutraal
 -------------------------------
 Symbolic Z-matrix:
 Charge =  0 Multiplicity = 1

 SCF Done:  E(RB3LYP) =  -790.704690527     A.U. after   14 cycles
 SCF Done:  E(RB3LYP) =  -790.709043432     A.U. after   12 cycles
 SCF Done:  E(RB3LYP) =  -790.708123849     A.U. after   12 cycles
 SCF Done:  E(RB3LYP) =  -790.710548196     A.U. after   11 cycles
 SCF Done:  E(RB3LYP) =  -790.711712909     A.U. after   11 cycles
 SCF Done:  E(RB3LYP) =  -790.712432079     A.U. after   12 cycles
 SCF Done:  E(RB3LYP) =  -790.712664461     A.U. after   12 cycles
 SCF Done:  E(RB3LYP) =  -790.712871222     A.U. after   10 cycles
 SCF Done:  E(RB3LYP) =  -790.713264649     A.U. after   12 cycles
 SCF Done:  E(RB3LYP) =  -790.713258830     A.U. after   12 cycles
 SCF Done:  E(RB3LYP) =  -790.713664176     A.U. after   10 cycles
 SCF Done:  E(RB3LYP) =  -790.713662566     A.U. after   10 cycles
 SCF Done:  E(RB3LYP) =  -790.713664526     A.U. after    9 cycles
 SCF Done:  E(RB3LYP) =  -790.713664542     A.U. after    8 cycles
 SCF Done:  E(RB3LYP) =  -790.713664565     A.U. after    7 cycles
 Optimization completed.
    -- Stationary point found.
 Normal termination of Gaussian 16 at Fri Dec 11 21:47:45 2020.

 --------------------------------------------------------------------
 #N Geom=AllCheck Guess=TCheck SCRF=Check GenChk RB3LYP/6-31G(d) Freq
 --------------------------------------------------------------------

 Structure from the checkpoint file:  "JID_8673.chk"
 -------------------------------
 CID_106701439_JID_8673_neutraal
 -------------------------------
 Charge =  0 Multiplicity = 1

 SCF Done:  E(RB3LYP) =  -790.713664565     A.U. after    1 cycles

  Exact polarizability: 212.093  -6.822 173.439  -5.046   5.890 113.381
 Approx polarizability: 278.637  -4.285 268.981  -8.733  19.256 178.223

                      1                      2                      3
                      A                      A                      A
 Frequencies --     18.9374                44.9308                57.6575
 Red. masses --      4.1631                 4.2866                 3.6925
 Frc consts  --      0.0009                 0.0051                 0.0072
 IR Inten    --      0.4307                 0.5705                 0.2208

                      4                      5                      6
                      A                      A                      A
 Frequencies --     66.2222                90.5499               114.8584
 Red. masses --      3.4612                 4.0766                 3.5201
 Frc consts  --      0.0089                 0.0197                 0.0274
 IR Inten    --      0.3757                 0.7361                 1.7307

                      7                      8                      9
                      A                      A                      A
 Frequencies --    165.7568               183.9994               210.9088
 Red. masses --      3.1287                 3.0967                 1.7797
 Frc consts  --      0.0506                 0.0618                 0.0466
 IR Inten    --      0.4658                 0.9438                 1.7512

                     10                     11                     12
                      A                      A                      A
 Frequencies --    214.5586               231.8128               238.4122
 Red. masses --      2.3994                 1.8053                 1.2206
 Frc consts  --      0.0651                 0.0572                 0.0409
 IR Inten    --      1.2667                 4.5101                 0.4615

                     13                     14                     15
                      A                      A                      A
 Frequencies --    242.6982               267.7702               280.4967
 Red. masses --      1.3991                 1.5407                 2.5093
 Frc consts  --      0.0486                 0.0651                 0.1163
 IR Inten    --      0.8088                 1.5452                 0.4060

                     16                     17                     18
                      A                      A                      A
 Frequencies --    301.0051               305.6720               322.3620
 Red. masses --      2.1266                 1.5069                 1.5402
 Frc consts  --      0.1135                 0.0830                 0.0943
 IR Inten    --     12.0024                 5.3861                67.9274

                     19                     20                     21
                      A                      A                      A
 Frequencies --    328.1051               357.9117               404.7290
 Red. masses --      1.9375                 2.1264                 2.5728
 Frc consts  --      0.1229                 0.1605                 0.2483
 IR Inten    --     43.8328                 1.7290                10.8687

                     22                     23                     24
                      A                      A                      A
 Frequencies --    415.7828               422.6921               440.0405
 Red. masses --      2.3975                 2.4514                 3.0788
 Frc consts  --      0.2442                 0.2581                 0.3513
 IR Inten    --      4.2623                10.6347                 4.3595

                     25                     26                     27
                      A                      A                      A
 Frequencies --    470.9095               513.5800               539.7138
 Red. masses --      2.8186                 3.9915                 2.9199
 Frc consts  --      0.3683                 0.6203                 0.5011
 IR Inten    --      2.0695                 0.4933                 2.2840

                     28                     29                     30
                      A                      A                      A
 Frequencies --    553.2338               576.5590               622.9561
 Red. masses --      3.7691                 4.2192                 3.7984
 Frc consts  --      0.6797                 0.8264                 0.8685
 IR Inten    --      1.1629                 3.3781                 5.2317

                     31                     32                     33
                      A                      A                      A
 Frequencies --    639.2608               662.0128               707.0691
 Red. masses --      4.1023                 3.6307                 2.2334
 Frc consts  --      0.9877                 0.9375                 0.6579
 IR Inten    --      8.0557                 7.7928                56.1642

                     34                     35                     36
                      A                      A                      A
 Frequencies --    736.7597               762.1107               789.1275
 Red. masses --      3.3338                 1.4312                 2.9361
 Frc consts  --      1.0662                 0.4898                 1.0772
 IR Inten    --      0.6126                44.2352                 0.8397

                     37                     38                     39
                      A                      A                      A
 Frequencies --    809.5185               853.4890               864.6801
 Red. masses --      2.9858                 4.0596                 1.4667
 Frc consts  --      1.1528                 1.7423                 0.6461
 IR Inten    --     10.8105                 6.4909                 5.7634

                     40                     41                     42
                      A                      A                      A
 Frequencies --    877.6400               897.5448               907.3694
 Red. masses --      2.3323                 4.2026                 2.2833
 Frc consts  --      1.0584                 1.9947                 1.1076
 IR Inten    --      1.8272                70.1196                11.3820

                     43                     44                     45
                      A                      A                      A
 Frequencies --    930.5526               940.4532               954.5736
 Red. masses --      1.4331                 1.5171                 1.5900
 Frc consts  --      0.7312                 0.7906                 0.8536
 IR Inten    --      2.5760                 5.3386                 2.4166

                     46                     47                     48
                      A                      A                      A
 Frequencies --    960.1963               965.8928               987.5600
 Red. masses --      1.4481                 1.2243                 1.4378
 Frc consts  --      0.7866                 0.6730                 0.8262
 IR Inten    --      0.0484                 0.1012                 8.6376

                     49                     50                     51
                      A                      A                      A
 Frequencies --   1003.0746              1024.9481              1033.8443
 Red. masses --      2.0039                 1.8622                 1.4642
 Frc consts  --      1.1879                 1.1526                 0.9221
 IR Inten    --     11.1101                27.3206                 4.4856

                     52                     53                     54
                      A                      A                      A
 Frequencies --   1050.0698              1077.3245              1102.0282
 Red. masses --      2.0101                 3.2841                 1.6144
 Frc consts  --      1.3059                 2.2457                 1.1552
 IR Inten    --      9.9119                 6.8110                33.7278

                     55                     56                     57
                      A                      A                      A
 Frequencies --   1117.9322              1138.4281              1157.5500
 Red. masses --      2.3459                 2.3597                 2.4708
 Frc consts  --      1.7274                 1.8019                 1.9506
 IR Inten    --     20.8002                32.9901                60.1616

                     58                     59                     60
                      A                      A                      A
 Frequencies --   1166.6654              1184.8813              1187.1984
 Red. masses --      1.7848                 2.0032                 1.1677
 Frc consts  --      1.4313                 1.6570                 0.9697
 IR Inten    --     26.1311                80.1414                 4.8001

                     61                     62                     63
                      A                      A                      A
 Frequencies --   1203.6035              1209.6471              1234.2303
 Red. masses --      2.3307                 1.8275                 2.6890
 Frc consts  --      1.9893                 1.5755                 2.4135
 IR Inten    --      2.2309                18.4753                15.0582

                     64                     65                     66
                      A                      A                      A
 Frequencies --   1247.9683              1279.2926              1292.9001
 Red. masses --      1.2586                 2.7465                 1.6050
 Frc consts  --      1.1549                 2.6483                 1.5807
 IR Inten    --     12.9244                 1.4902                10.0441

                     67                     68                     69
                      A                      A                      A
 Frequencies --   1298.0707              1309.4611              1328.4261
 Red. masses --      3.0828                 1.6771                 1.5183
 Frc consts  --      3.0605                 1.6944                 1.5787
 IR Inten    --     75.1258                34.9007                15.4429

                     70                     71                     72
                      A                      A                      A
 Frequencies --   1357.8517              1365.1833              1380.7737
 Red. masses --      1.4719                 1.4308                 1.4824
 Frc consts  --      1.5989                 1.5712                 1.6652
 IR Inten    --      2.2270                 2.1643                 8.2466

                     73                     74                     75
                      A                      A                      A
 Frequencies --   1389.6065              1408.3279              1424.6517
 Red. masses --      3.5114                 1.3154                 1.3043
 Frc consts  --      3.9950                 1.5371                 1.5597
 IR Inten    --      2.7010                 2.3125                 3.3256

                     76                     77                     78
                      A                      A                      A
 Frequencies --   1431.2037              1434.5016              1437.0907
 Red. masses --      1.2479                 1.3183                 1.2610
 Frc consts  --      1.5060                 1.5984                 1.5344
 IR Inten    --     22.0436                23.8891                 2.9125

                     79                     80                     81
                      A                      A                      A
 Frequencies --   1446.8251              1448.7788              1500.7932
 Red. masses --      1.2482                 1.2565                 1.3288
 Frc consts  --      1.5395                 1.5539                 1.7634
 IR Inten    --     17.4330                 1.4180                56.1224

                     82                     83                     84
                      A                      A                      A
 Frequencies --   1510.9925              1512.6842              1513.5178
 Red. masses --      1.0768                 1.1657                 1.8063
 Frc consts  --      1.4485                 1.5716                 2.4379
 IR Inten    --      3.6317                 4.5037                27.2854

                     85                     86                     87
                      A                      A                      A
 Frequencies --   1521.1703              1524.0525              1527.4264
 Red. masses --      1.0912                 1.0889                 2.3405
 Frc consts  --      1.4876                 1.4902                 3.2172
 IR Inten    --     15.8838                 2.4071                77.3043

                     88                     89                     90
                      A                      A                      A
 Frequencies --   1528.8718              1533.2647              1536.1309
 Red. masses --      1.0894                 1.0604                 1.0538
 Frc consts  --      1.5003                 1.4688                 1.4651
 IR Inten    --     13.9118                 3.7809                 6.7629

                     91                     92                     93
                      A                      A                      A
 Frequencies --   1536.8926              1547.5389              1658.2359
 Red. masses --      1.0645                 1.0496                 6.7421
 Frc consts  --      1.4814                 1.4810                10.9229
 IR Inten    --      3.3836                 5.8076                13.2929

                     94                     95                     96
                      A                      A                      A
 Frequencies --   1669.1636              2993.8424              2997.4002
 Red. masses --      7.0090                 1.0822                 1.0768
 Frc consts  --     11.5055                 5.7152                 5.7000
 IR Inten    --     37.9697                22.8981                36.3176

                     97                     98                     99
                      A                      A                      A
 Frequencies --   3008.8270              3036.3001              3038.7011
 Red. masses --      1.0799                 1.0405                 1.0415
 Frc consts  --      5.7601                 5.6515                 5.6659
 IR Inten    --     73.3746                19.8983                25.3105

                    100                    101                    102
                      A                      A                      A
 Frequencies --   3052.0735              3066.1977              3071.7582
 Red. masses --      1.0347                 1.0371                 1.0832
 Frc consts  --      5.6785                 5.7450                 6.0219
 IR Inten    --     18.6040                12.2343                 9.9052

                    103                    104                    105
                      A                      A                      A
 Frequencies --   3098.0443              3106.3155              3120.2249
 Red. masses --      1.0997                 1.0973                 1.1017
 Frc consts  --      6.2184                 6.2385                 6.3197
 IR Inten    --     38.6788                38.7748                46.0289

                    106                    107                    108
                      A                      A                      A
 Frequencies --   3125.5686              3130.1126              3132.4162
 Red. masses --      1.1031                 1.1033                 1.1026
 Frc consts  --      6.3495                 6.3688                 6.3741
 IR Inten    --     20.5256                 5.4765                31.9709

                    109                    110                    111
                      A                      A                      A
 Frequencies --   3134.9375              3161.9574              3164.4284
 Red. masses --      1.0975                 1.0947                 1.0959
 Frc consts  --      6.3551                 6.4484                 6.4659
 IR Inten    --     27.3618                34.9567                 2.6661

                    112                    113                    114
                      A                      A                      A
 Frequencies --   3179.4632              3189.4062              3207.1799
 Red. masses --      1.0864                 1.0888                 1.0942
 Frc consts  --      6.4706                 6.5255                 6.6311
 IR Inten    --      4.7648                14.7402                30.9244

                    115                    116                    117
                      A                      A                      A
 Frequencies --   3220.0813              3514.5218              3748.8278
 Red. masses --      1.0945                 1.0741                 1.0660
 Frc consts  --      6.6863                 7.8171                 8.8264
 IR Inten    --     13.4027                 0.7911                10.6284

 - Thermochemistry -
 -------------------
 Temperature   298.150 Kelvin.  Pressure   1.00000 Atm.
 Atom     1 has atomic number  6 and mass  12.00000

 Molecular mass:   249.17288 amu.
 Principal axes and moments of inertia in atomic units:
                           1         2         3
     Eigenvalues --  2412.985226818.619098498.54263
           X            0.99995   0.00996  -0.00293
           Y           -0.00998   0.99991  -0.00883
           Z            0.00284   0.00886   0.99996
 This molecule is an asymmetric top.
 Rotational symmetry number  1.
 Warning -- assumption of classical behavior for rotation
           may cause significant error
 Rotational temperatures (Kelvin)      0.03589     0.01270     0.01019
 Rotational constants (GHZ):           0.74793     0.26468     0.21236
 Zero-point vibrational energy     948293.5 (Joules/Mol)
                                  226.64759 (Kcal/Mol)
 Warning -- explicit consideration of  29 degrees of freedom as
           vibrations may cause significant error
 Vibrational temperatures:     27.25    64.65    82.96    95.28   130.28
          (Kelvin)            165.26   238.49   264.73   303.45   308.70
                              333.53   343.02   349.19   385.26   403.57
                              433.08   439.79   463.81   472.07   514.96
                              582.31   598.22   608.16   633.12   677.53
                              738.93   776.53   795.98   829.54   896.29
                              919.75   952.49  1017.31  1060.03  1096.51
                             1135.38  1164.72  1227.98  1244.08  1262.73
                             1291.37  1305.50  1338.86  1353.10  1373.42
                             1381.51  1389.70  1420.88  1443.20  1474.67
                             1487.47  1510.82  1550.03  1585.57  1608.46
                             1637.94  1665.46  1678.57  1704.78  1708.11
                             1731.72  1740.41  1775.78  1795.55  1840.62
                             1860.19  1867.63  1884.02  1911.31  1953.65
                             1964.19  1986.63  1999.33  2026.27  2049.76
                             2059.18  2063.93  2067.65  2081.66  2084.47
                             2159.31  2173.98  2176.42  2177.61  2188.62
                             2192.77  2197.63  2199.71  2206.03  2210.15
                             2211.25  2226.56  2385.83  2401.55  4307.47
                             4312.59  4329.03  4368.56  4372.01  4391.25
                             4411.57  4419.57  4457.39  4469.30  4489.31
                             4497.00  4503.53  4506.85  4510.48  4549.35
                             4552.91  4574.54  4588.84  4614.42  4632.98
                             5056.61  5393.73

 Zero-point correction=                           0.361186 (Hartree/Particle)
 Thermal correction to Energy=                    0.379674
 Thermal correction to Enthalpy=                  0.380618
 Thermal correction to Gibbs Free Energy=         0.314694
 Sum of electronic and zero-point Energies=           -790.352479
 Sum of electronic and thermal Energies=              -790.333991
 Sum of electronic and thermal Enthalpies=            -790.333046
 Sum of electronic and thermal Free Energies=         -790.398970

                     E (Thermal)             CV                S
                      KCal/Mol        Cal/Mol-Kelvin    Cal/Mol-Kelvin
 Total                  238.249             72.249            138.749
 Electronic               0.000              0.000              0.000
 Translational            0.889              2.981             42.439
 Rotational               0.889              2.981             33.302
 Vibrational            236.472             66.288             63.007
 Vibration     1          0.593              1.986              6.743
 Vibration     2          0.595              1.979              5.029
 Vibration     3          0.596              1.974              4.536
 Vibration     4          0.598              1.970              4.263
 Vibration     5          0.602              1.956              3.648
 Vibration     6          0.608              1.937              3.185
 Vibration     7          0.624              1.885              2.483
 Vibration     8          0.631              1.862              2.287
 Vibration     9          0.643              1.824              2.036
 Vibration    10          0.644              1.819              2.005
 Vibration    11          0.653              1.792              1.865
 Vibration    12          0.656              1.782              1.815
 Vibration    13          0.659              1.775              1.783
 Vibration    14          0.673              1.732              1.611
 Vibration    15          0.680              1.710              1.531
 Vibration    16          0.693              1.672              1.411
 Vibration    17          0.696              1.663              1.386
 Vibration    18          0.707              1.631              1.298
 Vibration    19          0.711              1.619              1.269
 Vibration    20          0.733              1.559              1.131
 Vibration    21          0.770              1.460              0.945
 Vibration    22          0.779              1.436              0.906
 Vibration    23          0.785              1.421              0.883
 Vibration    24          0.800              1.383              0.826
 Vibration    25          0.828              1.315              0.735
 Vibration    26          0.869              1.220              0.625
 Vibration    27          0.895              1.162              0.566
 Vibration    28          0.909              1.133              0.538
 Vibration    29          0.933              1.082              0.492

 Optimization completed.
    -- Stationary point found.
 Normal termination of Gaussian 16 at Fri Dec 11 22:07:42 2020.

 ----------------------------------------------------------------------
 # B3LYP/6-311++G(d,p) empiricaldispersion=gd3bj scf=xqc pop=npa geom=c
 heck
 ----------------------------------------------------------------------

 ---------------------------------------
 CID_106701439_JID_8673_Energie_neutraal
 ---------------------------------------
 Structure from the checkpoint file:  "JID_8673.chk"
 Charge =  0 Multiplicity = 1

 SCF Done:  E(RB3LYP) =  -790.940672192     A.U. after   14 cycles
 Normal termination of Gaussian 16 at Fri Dec 11 22:15:26 2020.

 ----------------------------------------------------------------------
 # B3LYP/6-311++G(d,p) empiricaldispersion=gd3bj scf=xqc pop=npa geom=c
 heck
 ----------------------------------------------------------------------

 -------------------------------------
 CID_106701439_JID_8673_Energie_kation
 -------------------------------------
 Structure from the checkpoint file:  "JID_8673.chk"
 Charge =  1 Multiplicity = 2

 SCF Done:  E(UB3LYP) =  -790.668346018     A.U. after   24 cycles
 Normal termination of Gaussian 16 at Fri Dec 11 22:33:20 2020.
 Gaussian 16:  ES64L-G16RevA.03 25-Dec-2016

 ----------------------------------------------------------------------
 # B3LYP/6-311++G(d,p) empiricaldispersion=gd3bj scf=xqc pop=npa geom=c
 heck
 ----------------------------------------------------------------------

 ------------------------------------
 CID_106701439_JID_8673_Energie_anion
 ------------------------------------
 Structure from the checkpoint file:  "JID_8673.chk"
 Charge = -1 Multiplicity = 2

                         Standard orientation:
 ---------------------------------------------------------------------
 Center     Atomic      Atomic             Coordinates (Angstroms)
 Number     Number       Type             X           Y           Z
 ---------------------------------------------------------------------
      1          6           0       -4.370893   -1.408439    0.195043
      2          6           0       -3.148622   -0.825995   -0.529621
      3          6           0       -3.395766    0.634959   -0.936671
      4          8           0       -3.489866    1.524165    0.176387
      5          6           0       -1.858290   -0.941491    0.309798
      6          6           0       -1.567011   -2.370334    0.792380
      7          7           0       -0.736911   -0.364901   -0.438576
      8          6           0        0.388173    0.113660    0.351327
      9          6           0        1.738199   -0.506897    0.079512
     10          6           0        2.125885   -1.813775   -0.175378
     11          6           0        3.490308   -2.098161   -0.328911
     12          6           0        4.436345   -1.076395   -0.214630
     13          6           0        4.054142    0.247106    0.038135
     14          6           0        2.696034    0.506337    0.178571
     15          8           0        2.155520    1.733886    0.418413
     16          6           0        0.706565    1.636075    0.151403
     17          6           0        0.491106    2.090819   -1.288655
     18          6           0       -0.021055    2.520894    1.146814
     19          1           0       -4.498833   -0.954226    1.186751
     20          1           0       -4.286261   -2.488142    0.343938
     21          1           0       -5.286587   -1.226937   -0.380190
     22          1           0       -3.004474   -1.390707   -1.464878
     23          1           0       -2.549681    0.995572   -1.520654
     24          1           0       -4.302556    0.695713   -1.559275
     25          1           0       -4.285337    1.289764    0.678075
     26          1           0       -2.001332   -0.295769    1.183410
     27          1           0       -1.486103   -3.057473   -0.060841
     28          1           0       -0.616866   -2.398307    1.337175
     29          1           0       -2.343237   -2.755576    1.461355
     30          1           0       -0.422060   -1.000374   -1.166691
     31          1           0        0.150015   -0.032232    1.416146
     32          1           0        1.384357   -2.605403   -0.252666
     33          1           0        3.812541   -3.114608   -0.533951
     34          1           0        5.491432   -1.307377   -0.333463
     35          1           0        4.782148    1.047858    0.114336
     36          1           0        0.893721    3.100628   -1.413571
     37          1           0        1.004933    1.423216   -1.988356
     38          1           0       -0.572284    2.095496   -1.534755
     39          1           0        0.232169    2.231397    2.172319
     40          1           0        0.249028    3.572891    1.008289
     41          1           0       -1.102318    2.414316    1.004431
 ---------------------------------------------------------------------

 SCF Done:  E(UB3LYP) =  -790.929168330     A.U. after   33 cycles
 SCF Done:  E(UB3LYP) =  -790.929168331     a.u. after    1 cycles

 The electronic state is 2-A.
 Alpha  occ. eigenvalues --  -19.05952 -19.02450 -14.20759 -10.14688 -10.14194
 Alpha  occ. eigenvalues --  -10.12238 -10.11126 -10.10447 -10.09330 -10.09244
 Alpha  occ. eigenvalues --  -10.08925 -10.08903 -10.08528 -10.07731 -10.07241
 Alpha  occ. eigenvalues --  -10.07203 -10.06370 -10.06053  -0.98177  -0.92389
 Alpha  occ. eigenvalues --   -0.82716  -0.76925  -0.72307  -0.69418  -0.67435
 Alpha  occ. eigenvalues --   -0.65426  -0.62902  -0.60856  -0.59331  -0.58047
 Alpha  occ. eigenvalues --   -0.53547  -0.52070  -0.50988  -0.48029  -0.47635
 Alpha  occ. eigenvalues --   -0.43269  -0.41081  -0.40676  -0.39713  -0.38670
 Alpha  occ. eigenvalues --   -0.36888  -0.36613  -0.35871  -0.35128  -0.34911
 Alpha  occ. eigenvalues --   -0.34389  -0.32880  -0.32003  -0.31178  -0.30285
 Alpha  occ. eigenvalues --   -0.29956  -0.29273  -0.29157  -0.28609  -0.27697
 Alpha  occ. eigenvalues --   -0.27355  -0.27282  -0.26625  -0.26016  -0.24896
 Alpha  occ. eigenvalues --   -0.24256  -0.23899  -0.22902  -0.22010  -0.17949
 Alpha  occ. eigenvalues --   -0.17321  -0.14407  -0.12608   0.04074
 Alpha virt. eigenvalues --    0.05527   0.06331   0.06761   0.07225   0.07460
 Alpha virt. eigenvalues --    0.07940   0.08251   0.09223   0.09376   0.09441
 Alpha virt. eigenvalues --    0.09588   0.10161   0.11128   0.11498   0.11606

  Beta  occ. eigenvalues --  -19.05951 -19.02415 -14.20754 -10.14688 -10.14195
  Beta  occ. eigenvalues --  -10.12236 -10.11109 -10.10439 -10.09317 -10.09228
  Beta  occ. eigenvalues --  -10.08917 -10.08897 -10.08519 -10.07722 -10.07235
  Beta  occ. eigenvalues --  -10.07196 -10.06338 -10.05996  -0.98176  -0.92310
  Beta  occ. eigenvalues --   -0.82703  -0.76906  -0.72291  -0.69394  -0.67408
  Beta  occ. eigenvalues --   -0.65402  -0.62856  -0.60844  -0.59290  -0.57973
  Beta  occ. eigenvalues --   -0.53489  -0.52048  -0.50964  -0.48012  -0.47571
  Beta  occ. eigenvalues --   -0.43238  -0.41054  -0.40632  -0.39687  -0.38648
  Beta  occ. eigenvalues --   -0.36864  -0.36562  -0.35845  -0.35108  -0.34881
  Beta  occ. eigenvalues --   -0.34356  -0.32850  -0.31980  -0.31164  -0.30252
  Beta  occ. eigenvalues --   -0.29938  -0.29244  -0.29128  -0.28586  -0.27669
  Beta  occ. eigenvalues --   -0.27323  -0.27262  -0.26574  -0.25998  -0.24865
  Beta  occ. eigenvalues --   -0.24218  -0.23867  -0.22884  -0.21979  -0.17907
  Beta  occ. eigenvalues --   -0.17275  -0.14390  -0.12590
  Beta virt. eigenvalues --    0.05930   0.06410   0.06700   0.07142   0.07553
  Beta virt. eigenvalues --    0.07875   0.08297   0.08471   0.09367   0.09534
  Beta virt. eigenvalues --    0.09849   0.10022   0.10458   0.11508   0.11755

 Mulliken charges and spin densities:
               1          2
     1  C    1.691279  -2.390796
     2  C   -2.817354   3.298292
     3  C    0.437646  -0.859659
     4  O   -0.212136   0.026601
     5  C    0.658728  -1.058655
     6  C    1.265977  -2.023693
     7  N    0.189034   0.003737
     8  C    0.659004  -0.484294
     9  C    1.026968  -0.196593
    10  C   -0.888516   0.750251
    11  C    0.159443  -0.645568
    12  C    0.347068  -0.631909
    13  C   -1.525444   0.919360
    14  C   -0.362360   0.144588
    15  O    0.055614  -0.002883
    16  C    0.019410  -0.369812
    17  C   -0.294911  -0.252512
    18  C   -0.169869  -0.365613
    19  H   -0.378744   0.541493
    20  H   -0.271713   0.426398
    21  H   -0.545866   0.695342
    22  H   -0.193830   0.339286
    23  H    0.142882  -0.007174
    24  H   -0.218001   0.380834
    25  H   -0.009409   0.261420
    26  H    0.299013  -0.083182
    27  H   -0.169074   0.346795
    28  H   -0.062456   0.195974
    29  H   -0.237787   0.386634
    30  H    0.240678   0.000854
    31  H    0.117056   0.080540
    32  H   -0.063664   0.213988
    33  H   -0.469648   0.647538
    34  H   -0.155598   0.311918
    35  H    0.044239   0.117858
    36  H    0.132074   0.025841
    37  H    0.123702   0.013949
    38  H    0.102560   0.060772
    39  H    0.064207   0.086089
    40  H    0.091034   0.052611
    41  H    0.178765   0.043381
 Sum of Mulliken charges =  -1.00000   1.00000

 Dipole moment (field-independent basis, Debye):
    X=              6.4497    Y=              4.4126    Z=             -1.0356  Tot=              7.8830
 Quadrupole moment (field-independent basis, Debye-Ang):
   XX=           -222.3935   YY=           -164.9670   ZZ=           -141.1820
   XY=              0.0595   XZ=              4.5491   YZ=             -0.3031

 Summary of Natural Population Analysis:

                                       Natural Population
                Natural  -----------------------------------------------
    Atom  No    Charge         Core      Valence    Rydberg      Total
 -----------------------------------------------------------------------
      C    1   -0.29180      0.99965     2.28526    0.00689     3.29180
      C    2   -0.12347      0.99958     2.11247    0.01142     3.12347
      C    3   -0.00611      0.99955     1.99335    0.01321     3.00611
      O    4   -0.37456      0.99990     3.36791    0.00676     4.37456
      C    5   -0.00833      0.99957     1.99610    0.01265     3.00833
      C    6   -0.29396      0.99964     2.28829    0.00602     3.29396
      N    7   -0.34513      0.99972     2.83422    0.01120     3.84513
      C    8   -0.01950      0.99949     2.00552    0.01449     3.01950
      C    9   -0.04891      0.99944     2.03949    0.00998     3.04891
      C   10   -0.09362      0.99952     2.08462    0.00949     3.09362
      C   11   -0.11604      0.99957     2.10635    0.01012     3.11604
      C   12   -0.09640      0.99959     2.08616    0.01065     3.09640
      C   13   -0.12530      0.99948     2.11815    0.00768     3.12530
      C   14    0.16233      0.99933     1.82307    0.01527     2.83767
      O   15   -0.28627      0.99986     3.27757    0.00883     4.28627
      C   16    0.14143      0.99953     1.84415    0.01490     2.85857
      C   17   -0.29836      0.99959     2.29258    0.00619     3.29836
      C   18   -0.29766      0.99959     2.29216    0.00591     3.29766
      H   19    0.09753      0.00000     0.40038    0.00209     0.40247
      H   20    0.10542      0.00000     0.39294    0.00164     0.39458
      H   21    0.10249      0.00000     0.39565    0.00186     0.39751
      H   22    0.09574      0.00000     0.40259    0.00167     0.40426
      H   23    0.09232      0.00000     0.40609    0.00159     0.40768
      H   24    0.07627      0.00000     0.42260    0.00113     0.42373
      H   25    0.23119      0.00000     0.26457    0.00424     0.26881
      H   26    0.09692      0.00000     0.40070    0.00237     0.40308
      H   27    0.09666      0.00000     0.40192    0.00142     0.40334
      H   28    0.09916      0.00000     0.39975    0.00109     0.40084
      H   29    0.10436      0.00000     0.39463    0.00100     0.39564
      H   30    0.17664      0.00000     0.32080    0.00255     0.32336
      H   31    0.10118      0.00000     0.39701    0.00181     0.39882
      H   32    0.10496      0.00000     0.39338    0.00166     0.39504
      H   33    0.10234      0.00000     0.39652    0.00114     0.39766
      H   34    0.10003      0.00000     0.39903    0.00094     0.39997
      H   35    0.10426      0.00000     0.39462    0.00112     0.39574
      H   36    0.10067      0.00000     0.39839    0.00094     0.39933
      H   37    0.10266      0.00000     0.39652    0.00082     0.39734
      H   38    0.11041      0.00000     0.38866    0.00093     0.38959
      H   39    0.10148      0.00000     0.39757    0.00095     0.39852
      H   40    0.10010      0.00000     0.39904    0.00086     0.39990
      H   41    0.11889      0.00000     0.38003    0.00108     0.38111
 =======================================================================
   * Total *    0.00001     17.99261    49.79083    0.21655    67.99999

 Normal termination of Gaussian 16 at Fri Dec 11 22:58:15 2020.
