 Gaussian 16, Revision A.03,

 -----------------------------------------------------------
 # opt freq B3LYP/6-31G(d) empiricaldispersion=gd3bj scf=xqc
 -----------------------------------------------------------

 ------------------------------
 CID_90084336_JID_3150_neutraal
 ------------------------------
 Symbolic Z-matrix:
 Charge =  0 Multiplicity = 1

 SCF Done:  E(RB3LYP) =  -951.716262581     A.U. after   15 cycles
 SCF Done:  E(RB3LYP) =  -951.724525113     A.U. after   13 cycles
 SCF Done:  E(RB3LYP) =  -951.725289388     A.U. after   12 cycles
 SCF Done:  E(RB3LYP) =  -951.725772331     A.U. after   11 cycles
 SCF Done:  E(RB3LYP) =  -951.725963935     A.U. after   11 cycles
 SCF Done:  E(RB3LYP) =  -951.726161948     A.U. after   12 cycles
 SCF Done:  E(RB3LYP) =  -951.726237345     A.U. after   11 cycles
 SCF Done:  E(RB3LYP) =  -951.726331785     A.U. after   11 cycles
 SCF Done:  E(RB3LYP) =  -951.726343146     A.U. after   10 cycles
 SCF Done:  E(RB3LYP) =  -951.726347655     A.U. after    9 cycles
 SCF Done:  E(RB3LYP) =  -951.726350850     A.U. after    8 cycles
 SCF Done:  E(RB3LYP) =  -951.726352057     A.U. after    9 cycles
 SCF Done:  E(RB3LYP) =  -951.726352650     A.U. after    8 cycles
 SCF Done:  E(RB3LYP) =  -951.726352971     A.U. after    8 cycles
 SCF Done:  E(RB3LYP) =  -951.726353073     A.U. after    7 cycles
 SCF Done:  E(RB3LYP) =  -951.726353098     A.U. after    7 cycles
 Optimization completed.
    -- Stationary point found.
 Normal termination of Gaussian 16 at Wed Dec  9 22:27:05 2020.

 --------------------------------------------------------------------
 #N Geom=AllCheck Guess=TCheck SCRF=Check GenChk RB3LYP/6-31G(d) Freq
 --------------------------------------------------------------------

 Structure from the checkpoint file:  "JID_3150.chk"
 ------------------------------
 CID_90084336_JID_3150_neutraal
 ------------------------------
 Charge =  0 Multiplicity = 1

 SCF Done:  E(RB3LYP) =  -951.726353098     A.U. after    1 cycles

  Exact polarizability: 152.077 -13.341 152.852  -1.038   0.357  60.344
 Approx polarizability: 248.245 -27.478 241.860  -1.692   0.290 105.387

                      1                      2                      3
                      A                      A                      A
 Frequencies --     52.2998                86.8912               132.0661
 Red. masses --      4.2634                 3.5287                 5.7948
 Frc consts  --      0.0069                 0.0157                 0.0595
 IR Inten    --      1.5436                 1.4694                 0.6131

                      4                      5                      6
                      A                      A                      A
 Frequencies --    146.4497               214.6563               232.2495
 Red. masses --      1.6414                 2.5973                 2.3836
 Frc consts  --      0.0207                 0.0705                 0.0758
 IR Inten    --      0.1453                 0.6172                 0.0526

                      7                      8                      9
                      A                      A                      A
 Frequencies --    238.9122               264.7354               332.7673
 Red. masses --      4.7587                 3.3353                 5.0610
 Frc consts  --      0.1600                 0.1377                 0.3302
 IR Inten    --      3.0264                17.0210                 6.4187

                     10                     11                     12
                      A                      A                      A
 Frequencies --    356.4876               397.3251               413.3321
 Red. masses --      4.5259                 4.5006                 3.7480
 Frc consts  --      0.3389                 0.4186                 0.3773
 IR Inten    --      2.4470                 6.4104                 8.2991

                     13                     14                     15
                      A                      A                      A
 Frequencies --    494.4575               506.6680               516.5855
 Red. masses --      4.3848                 6.0674                 5.1706
 Frc consts  --      0.6316                 0.9177                 0.8130
 IR Inten    --      6.8946                13.6116                20.6654

                     16                     17                     18
                      A                      A                      A
 Frequencies --    564.4973               580.2906               622.0277
 Red. masses --      9.2234                 3.7511                 3.7432
 Frc consts  --      1.7317                 0.7442                 0.8533
 IR Inten    --     65.4062                67.2957                21.2963

                     19                     20                     21
                      A                      A                      A
 Frequencies --    662.1817               718.3207               752.5659
 Red. masses --      3.3408                 5.4178                 3.0522
 Frc consts  --      0.8631                 1.6471                 1.0185
 IR Inten    --     39.0629                11.3607                 6.4156

                     22                     23                     24
                      A                      A                      A
 Frequencies --    771.7067               778.0730               821.8422
 Red. masses --      4.0820                 1.7462                 1.3632
 Frc consts  --      1.4323                 0.6229                 0.5425
 IR Inten    --      8.6068                25.3855                40.8350

                     25                     26                     27
                      A                      A                      A
 Frequencies --    843.4019               884.6117               954.5140
 Red. masses --      3.2441                 1.3356                 1.3626
 Frc consts  --      1.3596                 0.6158                 0.7314
 IR Inten    --     70.1847                 1.5771                 0.8563

                     28                     29                     30
                      A                      A                      A
 Frequencies --    996.4967              1012.4459              1059.4873
 Red. masses --      1.2864                 1.7830                 1.7290
 Frc consts  --      0.7526                 1.0768                 1.1435
 IR Inten    --      0.2363                 8.9971                 9.2373

                     31                     32                     33
                      A                      A                      A
 Frequencies --   1064.0842              1072.8489              1110.5343
 Red. masses --      1.9192                 4.4658                 3.0739
 Frc consts  --      1.2803                 3.0285                 2.2336
 IR Inten    --      1.6732                28.0284                59.1766

                     34                     35                     36
                      A                      A                      A
 Frequencies --   1135.2413              1162.1708              1176.1317
 Red. masses --      4.8515                 2.4216                 2.0694
 Frc consts  --      3.6839                 1.9270                 1.6866
 IR Inten    --    137.7308                 1.9005                61.1543

                     37                     38                     39
                      A                      A                      A
 Frequencies --   1202.5997              1248.7741              1306.2384
 Red. masses --      1.1741                 2.0748                 1.4680
 Frc consts  --      1.0005                 1.9063                 1.4758
 IR Inten    --      0.6323                30.3425                44.0857

                     40                     41                     42
                      A                      A                      A
 Frequencies --   1320.9758              1349.1653              1374.1183
 Red. masses --      6.3013                 1.7500                 4.8272
 Frc consts  --      6.4784                 1.8768                 5.3702
 IR Inten    --    180.8850                73.2325                32.3663

                     43                     44                     45
                      A                      A                      A
 Frequencies --   1429.4652              1452.1453              1498.0932
 Red. masses --      1.3940                 1.3972                 2.2988
 Frc consts  --      1.6782                 1.7360                 3.0396
 IR Inten    --      7.4899                 2.7327                 3.0785

                     46                     47                     48
                      A                      A                      A
 Frequencies --   1516.3172              1523.4307              1527.3564
 Red. masses --      2.3816                 1.0642                 1.0642
 Frc consts  --      3.2263                 1.4551                 1.4627
 IR Inten    --     33.1300                 9.8341                 4.8213

                     49                     50                     51
                      A                      A                      A
 Frequencies --   1634.8400              1657.5325              1730.6457
 Red. masses --      5.8598                 6.2800                 7.7108
 Frc consts  --      9.2275                10.1655                13.6071
 IR Inten    --      2.0798                 4.1305                24.8065

                     52                     53                     54
                      A                      A                      A
 Frequencies --   3028.5343              3092.6317              3126.6890
 Red. masses --      1.0476                 1.0888                 1.1005
 Frc consts  --      5.6615                 6.1355                 6.3388
 IR Inten    --     29.7295                18.9786                18.6704

                     55                     56                     57
                      A                      A                      A
 Frequencies --   3168.2515              3200.2819              3213.6083
 Red. masses --      1.0890                 1.0873                 1.0911
 Frc consts  --      6.4405                 6.5608                 6.6388
 IR Inten    --     16.3584                 2.6006                 7.6399

                     58                     59                     60
                      A                      A                      A
 Frequencies --   3225.3315              3256.8077              3561.3651
 Red. masses --      1.0962                 1.0915                 1.0758
 Frc consts  --      6.7187                 6.8211                 8.0390
 IR Inten    --      9.6747                 5.2808                38.0481

 - Thermochemistry -
 -------------------
 Temperature   298.150 Kelvin.  Pressure   1.00000 Atm.
 Atom     1 has atomic number  6 and mass  12.00000

 Molecular mass:   195.03540 amu.
 Principal axes and moments of inertia in atomic units:
                           1         2         3
     Eigenvalues --  1941.532312411.454193969.17554
           X            0.99355  -0.11339   0.00204
           Y            0.11339   0.99355  -0.00036
           Z           -0.00199   0.00059   1.00000
 This molecule is an asymmetric top.
 Rotational symmetry number  1.
 Warning -- assumption of classical behavior for rotation
           may cause significant error
 Rotational temperatures (Kelvin)      0.04461     0.03592     0.02182
 Rotational constants (GHZ):           0.92954     0.74840     0.45469
 Zero-point vibrational energy     441269.8 (Joules/Mol)
                                  105.46602 (Kcal/Mol)
 Warning -- explicit consideration of  17 degrees of freedom as
           vibrations may cause significant error
 Vibrational temperatures:     75.25   125.02   190.01   210.71   308.84
          (Kelvin)            334.16   343.74   380.90   478.78   512.91
                              571.66   594.69   711.41   728.98   743.25
                              812.19   834.91   894.96   952.73  1033.50
                             1082.77  1110.31  1119.47  1182.45  1213.47
                             1272.76  1373.33  1433.74  1456.68  1524.37
                             1530.98  1543.59  1597.81  1633.36  1672.10
                             1692.19  1730.27  1796.71  1879.39  1900.59
                             1941.15  1977.05  2056.68  2089.31  2155.42
                             2181.64  2191.88  2197.53  2352.17  2384.82
                             2490.01  4357.39  4449.61  4498.61  4558.41
                             4604.49  4623.67  4640.53  4685.82  5124.01

 Zero-point correction=                           0.168071 (Hartree/Particle)
 Thermal correction to Energy=                    0.179428
 Thermal correction to Enthalpy=                  0.180372
 Thermal correction to Gibbs Free Energy=         0.130550
 Sum of electronic and zero-point Energies=           -951.558282
 Sum of electronic and thermal Energies=              -951.546925
 Sum of electronic and thermal Enthalpies=            -951.545981
 Sum of electronic and thermal Free Energies=         -951.595803

                     E (Thermal)             CV                S
                      KCal/Mol        Cal/Mol-Kelvin    Cal/Mol-Kelvin
 Total                  112.593             43.930            104.859
 Electronic               0.000              0.000              0.000
 Translational            0.889              2.981             41.709
 Rotational               0.889              2.981             31.297
 Vibrational            110.815             37.968             31.852
 Vibration     1          0.596              1.977              4.728
 Vibration     2          0.601              1.958              3.729
 Vibration     3          0.612              1.921              2.916
 Vibration     4          0.617              1.907              2.718
 Vibration     5          0.645              1.819              2.004
 Vibration     6          0.653              1.792              1.861
 Vibration     7          0.657              1.781              1.811
 Vibration     8          0.671              1.738              1.630
 Vibration     9          0.715              1.610              1.247
 Vibration    10          0.732              1.562              1.137
 Vibration    11          0.764              1.476              0.973
 Vibration    12          0.777              1.441              0.915
 Vibration    13          0.850              1.262              0.672
 Vibration    14          0.862              1.235              0.642
 Vibration    15          0.872              1.213              0.618
 Vibration    16          0.920              1.108              0.515
 Vibration    17          0.937              1.074              0.485

 Optimization completed.
    -- Stationary point found.
 Normal termination of Gaussian 16 at Wed Dec  9 22:32:23 2020.

 ----------------------------------------------------------------------
 # B3LYP/6-311++G(d,p) empiricaldispersion=gd3bj scf=xqc pop=npa geom=c
 heck
 ----------------------------------------------------------------------

 --------------------------------------
 CID_90084336_JID_3150_Energie_neutraal
 --------------------------------------
 Structure from the checkpoint file:  "JID_3150.chk"
 Charge =  0 Multiplicity = 1

 SCF Done:  E(RB3LYP) =  -951.903937855     A.U. after   16 cycles
 Normal termination of Gaussian 16 at Wed Dec  9 22:34:53 2020.

 ----------------------------------------------------------------------
 # B3LYP/6-311++G(d,p) empiricaldispersion=gd3bj scf=xqc pop=npa geom=c
 heck
 ----------------------------------------------------------------------

 ------------------------------------
 CID_90084336_JID_3150_Energie_kation
 ------------------------------------
 Structure from the checkpoint file:  "JID_3150.chk"
 Charge =  1 Multiplicity = 2

 SCF Done:  E(UB3LYP) =  -951.601778525     A.U. after   24 cycles
 Normal termination of Gaussian 16 at Wed Dec  9 22:39:54 2020.
 Gaussian 16:  ES64L-G16RevA.03 25-Dec-2016

 ----------------------------------------------------------------------
 # B3LYP/6-311++G(d,p) empiricaldispersion=gd3bj scf=xqc pop=npa geom=c
 heck
 ----------------------------------------------------------------------

 -----------------------------------
 CID_90084336_JID_3150_Energie_anion
 -----------------------------------
 Structure from the checkpoint file:  "JID_3150.chk"
 Charge = -1 Multiplicity = 2

                         Standard orientation:
 ---------------------------------------------------------------------
 Center     Atomic      Atomic             Coordinates (Angstroms)
 Number     Number       Type             X           Y           Z
 ---------------------------------------------------------------------
      1          6           0        3.375229   -1.515485    0.189972
      2          6           0        1.961022   -1.950989   -0.072808
      3          6           0        0.875107   -1.164231   -0.170181
      4          6           0        0.772011    0.303506   -0.080510
      5          6           0        1.783338    1.271985   -0.125554
      6          6           0        1.442644    2.621659   -0.035815
      7          6           0        0.109465    3.031366    0.079880
      8          6           0       -0.913483    2.083490    0.099423
      9          6           0       -0.552495    0.746487    0.020609
     10         16           0       -1.685008   -0.621843    0.022553
     11          8           0       -2.181088   -0.931570    1.369131
     12          8           0       -2.647633   -0.514870   -1.071819
     13          7           0       -0.424543   -1.711429   -0.392863
     14          1           0        3.431674   -0.713354    0.933464
     15          1           0        3.879320   -1.160646   -0.720380
     16          1           0        3.961644   -2.357107    0.570126
     17          1           0        1.799963   -3.020930   -0.190248
     18          1           0        2.819322    0.987344   -0.251417
     19          1           0        2.230069    3.368593   -0.069939
     20          1           0       -0.130644    4.088100    0.140845
     21          1           0       -1.956760    2.374498    0.164319
     22          1           0       -0.589928   -2.632214    0.003844
 ---------------------------------------------------------------------

 SCF Done:  E(UB3LYP) =  -951.915827602     A.U. after   31 cycles

 The electronic state is 2-A.
 Alpha  occ. eigenvalues --  -88.92465 -18.98265 -18.98207 -14.20977 -10.06689
 Alpha  occ. eigenvalues --  -10.04914 -10.04520 -10.04484 -10.03823 -10.03491
 Alpha  occ. eigenvalues --  -10.03202 -10.02456 -10.01308  -7.98688  -5.95013
 Alpha  occ. eigenvalues --   -5.94899  -5.94749  -0.98368  -0.87242  -0.80938
 Alpha  occ. eigenvalues --   -0.72210  -0.65319  -0.63170  -0.61387  -0.56934
 Alpha  occ. eigenvalues --   -0.51645  -0.48942  -0.45621  -0.43463  -0.38307
 Alpha  occ. eigenvalues --   -0.36712  -0.36612  -0.33901  -0.33282  -0.31121
 Alpha  occ. eigenvalues --   -0.30505  -0.29234  -0.28554  -0.27014  -0.25420
 Alpha  occ. eigenvalues --   -0.24789  -0.24088  -0.22783  -0.20988  -0.20452
 Alpha  occ. eigenvalues --   -0.19171  -0.17438  -0.17140  -0.13060  -0.12596
 Alpha  occ. eigenvalues --   -0.08176   0.04766
 Alpha virt. eigenvalues --    0.08448   0.09231   0.10027   0.10688   0.11026
 Alpha virt. eigenvalues --    0.11832   0.12318   0.13516   0.14210   0.15255
 Alpha virt. eigenvalues --    0.15713   0.16150   0.16874   0.17663   0.18278

  Beta  occ. eigenvalues --  -88.92467 -18.98231 -18.98169 -14.20991 -10.06655
  Beta  occ. eigenvalues --  -10.05021 -10.04515 -10.04250 -10.03817 -10.03395
  Beta  occ. eigenvalues --  -10.02854 -10.02113 -10.00922  -7.98689  -5.95015
  Beta  occ. eigenvalues --   -5.94893  -5.94757  -0.98295  -0.87153  -0.80816
  Beta  occ. eigenvalues --   -0.71806  -0.64859  -0.62639  -0.60987  -0.56778
  Beta  occ. eigenvalues --   -0.51480  -0.48333  -0.45351  -0.43199  -0.38143
  Beta  occ. eigenvalues --   -0.36568  -0.36345  -0.33721  -0.33103  -0.30983
  Beta  occ. eigenvalues --   -0.30302  -0.28846  -0.28344  -0.26875  -0.24714
  Beta  occ. eigenvalues --   -0.24568  -0.23771  -0.22455  -0.20859  -0.20208
  Beta  occ. eigenvalues --   -0.18816  -0.17075  -0.16964  -0.12097  -0.11164
  Beta  occ. eigenvalues --   -0.06499
  Beta virt. eigenvalues --    0.08395   0.09183   0.09977   0.10671   0.10915
  Beta virt. eigenvalues --    0.11018   0.11813   0.12359   0.13497   0.14225
  Beta virt. eigenvalues --    0.15376   0.15919   0.16160   0.16867   0.18152

 Mulliken charges and spin densities:
               1          2
     1  C   -0.833975  -0.030211
     2  C   -0.487215   0.324455
     3  C   -1.120638  -0.071774
     4  C    1.857014   0.240700
     5  C   -1.277206   0.010504
     6  C   -0.385539   0.070065
     7  C   -0.247052   0.278984
     8  C   -0.262883  -0.073446
     9  C    0.320543   0.210228
    10  S    0.942965   0.039767
    11  O   -0.176662  -0.011619
    12  O   -0.198427   0.009420
    13  N   -0.278965  -0.003814
    14  H    0.120924   0.007216
    15  H    0.124905   0.022392
    16  H    0.107493   0.004480
    17  H    0.110985  -0.026471
    18  H    0.049543   0.000979
    19  H    0.127287  -0.007241
    20  H    0.102850  -0.022000
    21  H    0.147887   0.006590
    22  H    0.256166   0.020793
 Sum of Mulliken charges =  -1.00000   1.00000

 Dipole moment (field-independent basis, Debye):
    X=              2.4505    Y=             -0.0736    Z=              0.1843  Tot=              2.4585
 Quadrupole moment (field-independent basis, Debye-Ang):
   XX=           -111.9511   YY=            -97.8130   ZZ=           -101.1447
   XY=             -2.0394   XZ=             -0.1858   YZ=              0.2739

 Summary of Natural Population Analysis:

                                       Natural Population
                Natural  -----------------------------------------------
    Atom  No    Charge         Core      Valence    Rydberg      Total
 -----------------------------------------------------------------------
      C    1   -0.30164      0.99967     2.29739    0.00458     3.30164
      C    2   -0.04501      0.99950     2.03585    0.00965     3.04501
      C    3    0.07263      0.99944     1.91622    0.01170     2.92737
      C    4    0.02096      0.99944     1.97112    0.00848     2.97904
      C    5   -0.09414      0.99954     2.08625    0.00835     3.09414
      C    6   -0.08646      0.99959     2.07758    0.00930     3.08646
      C    7   -0.04927      0.99958     2.03972    0.00997     3.04927
      C    8   -0.11986      0.99952     2.10967    0.01068     3.11986
      C    9   -0.08009      0.99934     2.06864    0.01211     3.08009
      S   10    1.08966      4.99922     1.81130    0.09983     6.91034
      O   11   -0.46582      0.99991     3.46040    0.00551     4.46582
      O   12   -0.45993      0.99990     3.45430    0.00573     4.45993
      N   13   -0.41835      0.99970     2.90736    0.01129     3.91835
      H   14    0.10141      0.00000     0.39727    0.00132     0.39859
      H   15    0.09733      0.00000     0.40133    0.00135     0.40267
      H   16    0.09352      0.00000     0.40553    0.00095     0.40648
      H   17    0.08021      0.00000     0.41874    0.00105     0.41979
      H   18    0.09720      0.00000     0.40147    0.00133     0.40280
      H   19    0.08873      0.00000     0.41024    0.00103     0.41127
      H   20    0.08733      0.00000     0.41165    0.00102     0.41267
      H   21    0.10074      0.00000     0.39801    0.00124     0.39926
      H   22    0.19085      0.00000     0.30637    0.00278     0.30915
 =======================================================================
   * Total *   -0.00000     16.99435    33.78640    0.21926    51.00000

 Normal termination of Gaussian 16 at Wed Dec  9 22:47:24 2020.
