 Gaussian 16, Revision A.03,

 -----------------------------------------------------------
 # opt freq B3LYP/6-31G(d) empiricaldispersion=gd3bj scf=xqc
 -----------------------------------------------------------

 -------------------------------
 CID_123697804_JID_1968_neutraal
 -------------------------------
 Symbolic Z-matrix:
 Charge =  0 Multiplicity = 1

 SCF Done:  E(RB3LYP) =  -628.074386393     A.U. after   13 cycles
 SCF Done:  E(RB3LYP) =  -628.070112077     A.U. after   14 cycles
 SCF Done:  E(RB3LYP) =  -628.079230745     A.U. after   13 cycles
 SCF Done:  E(RB3LYP) =  -628.081439848     A.U. after   13 cycles
 SCF Done:  E(RB3LYP) =  -628.082870318     A.U. after   12 cycles
 SCF Done:  E(RB3LYP) =  -628.083425912     A.U. after   12 cycles
 SCF Done:  E(RB3LYP) =  -628.083556491     A.U. after   12 cycles
 SCF Done:  E(RB3LYP) =  -628.084730613     A.U. after   11 cycles
 SCF Done:  E(RB3LYP) =  -628.085024041     A.U. after   11 cycles
 SCF Done:  E(RB3LYP) =  -628.085260781     A.U. after   11 cycles
 SCF Done:  E(RB3LYP) =  -628.085749124     A.U. after   10 cycles
 SCF Done:  E(RB3LYP) =  -628.085767952     A.U. after   10 cycles
 SCF Done:  E(RB3LYP) =  -628.085782794     A.U. after   10 cycles
 SCF Done:  E(RB3LYP) =  -628.085788377     A.U. after   10 cycles
 SCF Done:  E(RB3LYP) =  -628.085789198     A.U. after    8 cycles
 SCF Done:  E(RB3LYP) =  -628.085789413     A.U. after    7 cycles
 Optimization completed.
    -- Stationary point found.
 Normal termination of Gaussian 16 at Tue Dec  8 20:46:58 2020.

 --------------------------------------------------------------------
 #N Geom=AllCheck Guess=TCheck SCRF=Check GenChk RB3LYP/6-31G(d) Freq
 --------------------------------------------------------------------

 Structure from the checkpoint file:  "JID_1968.chk"
 -------------------------------
 CID_123697804_JID_1968_neutraal
 -------------------------------
 Charge =  0 Multiplicity = 1

 SCF Done:  E(RB3LYP) =  -628.085789413     A.U. after    1 cycles

  Exact polarizability:  86.131  -0.289  71.150  -4.621  -3.671  64.708
 Approx polarizability: 112.024   1.384 103.123  -7.127 -12.591  92.888

                      1                      2                      3
                      A                      A                      A
 Frequencies --     59.0858                88.9426               141.4344
 Red. masses --      5.2257                 7.3228                 4.0365
 Frc consts  --      0.0107                 0.0341                 0.0476
 IR Inten    --      6.8151                 0.9713                 0.3925

                      4                      5                      6
                      A                      A                      A
 Frequencies --    211.6341               218.8562               236.6587
 Red. masses --      2.3696                 1.3261                 1.9835
 Frc consts  --      0.0625                 0.0374                 0.0655
 IR Inten    --     16.0498                 1.9383                43.4689

                      7                      8                      9
                      A                      A                      A
 Frequencies --    251.9924               267.0030               282.1666
 Red. masses --      1.3309                 2.1438                 2.5790
 Frc consts  --      0.0498                 0.0900                 0.1210
 IR Inten    --     11.1678                15.6943                27.0416

                     10                     11                     12
                      A                      A                      A
 Frequencies --    309.1347               338.4519               356.3732
 Red. masses --      1.2410                 3.1612                 2.7667
 Frc consts  --      0.0699                 0.2134                 0.2070
 IR Inten    --     70.2491                 1.9042                20.5235

                     13                     14                     15
                      A                      A                      A
 Frequencies --    367.2221               374.0070               383.7797
 Red. masses --      2.4042                 3.3696                 1.3947
 Frc consts  --      0.1910                 0.2777                 0.1210
 IR Inten    --     46.1411                29.1595               210.8149

                     16                     17                     18
                      A                      A                      A
 Frequencies --    470.9448               502.4757               528.4815
 Red. masses --      3.7262                 2.4302                 1.3075
 Frc consts  --      0.4869                 0.3615                 0.2152
 IR Inten    --     12.0827                23.7025                19.6398

                     19                     20                     21
                      A                      A                      A
 Frequencies --    578.1775               580.3171               607.9657
 Red. masses --      5.1287                 2.6557                 4.5846
 Frc consts  --      1.0101                 0.5269                 0.9984
 IR Inten    --      5.4669                12.9708                 7.0718

                     22                     23                     24
                      A                      A                      A
 Frequencies --    688.9600               728.6477               754.0276
 Red. masses --      3.8093                 1.5130                 2.6621
 Frc consts  --      1.0653                 0.4733                 0.8918
 IR Inten    --      4.9527                44.0959                41.8736

                     25                     26                     27
                      A                      A                      A
 Frequencies --    773.8905               842.5643               946.9647
 Red. masses --      7.0266                 3.1758                 2.5414
 Frc consts  --      2.4795                 1.3283                 1.3428
 IR Inten    --     71.7683                 8.4733                19.5541

                     28                     29                     30
                      A                      A                      A
 Frequencies --    961.9407              1015.3616              1033.8809
 Red. masses --      1.4453                 2.9086                 1.3731
 Frc consts  --      0.7879                 1.7668                 0.8648
 IR Inten    --      1.4258               115.6712                15.6737

                     31                     32                     33
                      A                      A                      A
 Frequencies --   1085.0655              1101.8119              1131.0640
 Red. masses --      5.5565                 2.7771                 1.8705
 Frc consts  --      3.8544                 1.9864                 1.4098
 IR Inten    --     76.0437               180.7898                 4.2794

                     34                     35                     36
                      A                      A                      A
 Frequencies --   1148.3130              1191.8534              1256.2880
 Red. masses --      3.8382                 2.2087                 3.0855
 Frc consts  --      2.9819                 1.8485                 2.8691
 IR Inten    --    219.1348                90.3909                25.3589

                     37                     38                     39
                      A                      A                      A
 Frequencies --   1268.8620              1356.8984              1402.3263
 Red. masses --      2.2483                 1.6478                 1.5208
 Frc consts  --      2.1327                 1.7875                 1.7621
 IR Inten    --      9.3301                67.8021                68.7947

                     40                     41                     42
                      A                      A                      A
 Frequencies --   1422.0911              1431.7406              1442.3758
 Red. masses --      1.8249                 2.0883                 1.2452
 Frc consts  --      2.1744                 2.5222                 1.5263
 IR Inten    --    201.0641               324.7433                15.0795

                     43                     44                     45
                      A                      A                      A
 Frequencies --   1502.1720              1510.2454              1519.8237
 Red. masses --      1.3864                 1.0603                 1.0582
 Frc consts  --      1.8433                 1.4249                 1.4401
 IR Inten    --    166.3074                 2.2268                11.8058

                     46                     47                     48
                      A                      A                      A
 Frequencies --   1529.7364              1545.6515              1640.3610
 Red. masses --      1.0722                 1.0980                 1.2885
 Frc consts  --      1.4783                 1.5455                 2.0428
 IR Inten    --     20.8490                43.1029               158.7064

                     49                     50                     51
                      A                      A                      A
 Frequencies --   1784.4510              3075.0727              3080.7082
 Red. masses --      7.5597                 1.0373                 1.0378
 Frc consts  --     14.1829                 5.7793                 5.8029
 IR Inten    --    361.1930                 8.3496                20.1893

                     52                     53                     54
                      A                      A                      A
 Frequencies --   3143.2352              3154.4181              3175.5551
 Red. masses --      1.1022                 1.1008                 1.1010
 Frc consts  --      6.4160                 6.4533                 6.5414
 IR Inten    --      9.9306                20.1915                 8.3961

                     55                     56                     57
                      A                      A                      A
 Frequencies --   3179.8210              3422.4380              3608.0031
 Red. masses --      1.1025                 1.0675                 1.0456
 Frc consts  --      6.5682                 7.3671                 8.0193
 IR Inten    --      9.5374               565.0557                53.6289

                     58                     59                     60
                      A                      A                      A
 Frequencies --   3729.3966              3731.0463              3749.2229
 Red. masses --      1.0649                 1.1046                 1.0653
 Frc consts  --      8.7266                 9.0598                 8.8226
 IR Inten    --     26.2233                49.8209                53.7953

 - Thermochemistry -
 -------------------
 Temperature   298.150 Kelvin.  Pressure   1.00000 Atm.
 Atom     1 has atomic number  6 and mass  12.00000

 Molecular mass:   165.06372 amu.
 Principal axes and moments of inertia in atomic units:
                           1         2         3
     Eigenvalues --  1070.399941998.071692229.70978
           X            0.99980  -0.01220  -0.01583
           Y            0.01273   0.99935   0.03382
           Z            0.01541  -0.03401   0.99930
 This molecule is an asymmetric top.
 Rotational symmetry number  1.
 Warning -- assumption of classical behavior for rotation
           may cause significant error
 Rotational temperatures (Kelvin)      0.08092     0.04335     0.03885
 Rotational constants (GHZ):           1.68604     0.90324     0.80941
 Zero-point vibrational energy     467867.8 (Joules/Mol)
                                  111.82309 (Kcal/Mol)
 Warning -- explicit consideration of  21 degrees of freedom as
           vibrations may cause significant error
 Vibrational temperatures:     85.01   127.97   203.49   304.49   314.89
          (Kelvin)            340.50   362.56   384.16   405.97   444.78
                              486.96   512.74   528.35   538.11   552.17
                              677.58   722.95   760.37   831.87   834.95
                              874.73   991.26  1048.36  1084.88  1113.46
                             1212.26  1362.47  1384.02  1460.88  1487.52
                             1561.17  1585.26  1627.35  1652.17  1714.81
                             1807.52  1825.61  1952.27  2017.63  2046.07
                             2059.96  2075.26  2161.29  2172.91  2186.69
                             2200.95  2223.85  2360.11  2567.43  4424.34
                             4432.45  4522.41  4538.50  4568.92  4575.05
                             4924.13  5191.11  5365.77  5368.14  5394.30

 Zero-point correction=                           0.178201 (Hartree/Particle)
 Thermal correction to Energy=                    0.190366
 Thermal correction to Enthalpy=                  0.191310
 Thermal correction to Gibbs Free Energy=         0.141320
 Sum of electronic and zero-point Energies=           -627.907588
 Sum of electronic and thermal Energies=              -627.895423
 Sum of electronic and thermal Enthalpies=            -627.894479
 Sum of electronic and thermal Free Energies=         -627.944469

                     E (Thermal)             CV                S
                      KCal/Mol        Cal/Mol-Kelvin    Cal/Mol-Kelvin
 Total                  119.457             46.465            105.213
 Electronic               0.000              0.000              0.000
 Translational            0.889              2.981             41.212
 Rotational               0.889              2.981             29.946
 Vibrational            117.679             40.503             34.056
 Vibration     1          0.596              1.974              4.487
 Vibration     2          0.602              1.957              3.683
 Vibration     3          0.615              1.912              2.784
 Vibration     4          0.643              1.823              2.030
 Vibration     5          0.647              1.812              1.969
 Vibration     6          0.656              1.785              1.828
 Vibration     7          0.664              1.759              1.717
 Vibration     8          0.672              1.734              1.616
 Vibration     9          0.681              1.707              1.521
 Vibration    10          0.698              1.656              1.367
 Vibration    11          0.719              1.599              1.219
 Vibration    12          0.732              1.562              1.138
 Vibration    13          0.740              1.540              1.091
 Vibration    14          0.745              1.525              1.063
 Vibration    15          0.753              1.505              1.024
 Vibration    16          0.828              1.315              0.735
 Vibration    17          0.858              1.245              0.652
 Vibration    18          0.883              1.187              0.591
 Vibration    19          0.935              1.078              0.489
 Vibration    20          0.937              1.074              0.485
 Vibration    21          0.967              1.015              0.436

                           ! Non-Optimized Parameters !
 Normal termination of Gaussian 16 at Tue Dec  8 20:52:21 2020.

 ----------------------------------------------------------------------
 # B3LYP/6-311++G(d,p) empiricaldispersion=gd3bj scf=xqc pop=npa geom=c
 heck
 ----------------------------------------------------------------------

 ---------------------------------------
 CID_123697804_JID_1968_Energie_neutraal
 ---------------------------------------
 Structure from the checkpoint file:  "JID_1968.chk"
 Charge =  0 Multiplicity = 1

 SCF Done:  E(RB3LYP) =  -628.308159965     A.U. after   13 cycles
 Normal termination of Gaussian 16 at Tue Dec  8 20:54:30 2020.

 ----------------------------------------------------------------------
 # B3LYP/6-311++G(d,p) empiricaldispersion=gd3bj scf=xqc pop=npa geom=c
 heck
 ----------------------------------------------------------------------

 -------------------------------------
 CID_123697804_JID_1968_Energie_kation
 -------------------------------------
 Structure from the checkpoint file:  "JID_1968.chk"
 Charge =  1 Multiplicity = 2

 SCF Done:  E(UB3LYP) =  -627.948153040     A.U. after   32 cycles
 Normal termination of Gaussian 16 at Tue Dec  8 20:59:41 2020.
 Gaussian 16:  ES64L-G16RevA.03 25-Dec-2016

 ----------------------------------------------------------------------
 # B3LYP/6-311++G(d,p) empiricaldispersion=gd3bj scf=xqc pop=npa geom=c
 heck
 ----------------------------------------------------------------------

 ------------------------------------
 CID_123697804_JID_1968_Energie_anion
 ------------------------------------
 Structure from the checkpoint file:  "JID_1968.chk"
 Charge = -1 Multiplicity = 2

                         Standard orientation:
 ---------------------------------------------------------------------
 Center     Atomic      Atomic             Coordinates (Angstroms)
 Number     Number       Type             X           Y           Z
 ---------------------------------------------------------------------
      1          6           0       -1.013482    1.960073   -0.554739
      2          6           0       -0.407078    0.766004    0.179125
      3          6           0       -0.404845    0.976355    1.690122
      4          6           0       -1.168268   -0.543807   -0.213678
      5          8           0       -0.838599   -0.798735   -1.548881
      6          8           0       -0.914223   -1.633652    0.613408
      7          8           0       -2.553702   -0.309581   -0.096877
      8          8           0        0.972849    0.760635   -0.325864
      9          6           0        1.878180   -0.163835    0.017153
     10          8           0        1.690703   -1.169926    0.698589
     11          7           0        3.104803    0.173682   -0.471985
     12          1           0       -2.046017    2.106991   -0.235539
     13          1           0       -0.999547    1.784749   -1.632572
     14          1           0       -0.432158    2.859224   -0.329623
     15          1           0       -1.437350    1.013993    2.048375
     16          1           0        0.112818    0.168668    2.208570
     17          1           0        0.081584    1.926901    1.928948
     18          1           0       -1.360428   -1.579890   -1.798020
     19          1           0        0.066374   -1.688084    0.720623
     20          1           0       -2.847918   -0.901273    0.614048
     21          1           0        3.161872    0.887635   -1.182917
     22          1           0        3.803881   -0.553358   -0.468897
 ---------------------------------------------------------------------

 SCF Done:  E(UB3LYP) =  -628.294144688     A.U. after   30 cycles

 The electronic state is 2-A.
 Alpha  occ. eigenvalues --  -19.06031 -19.03534 -19.03258 -19.02244 -19.00291
 Alpha  occ. eigenvalues --  -14.22261 -10.22750 -10.22549 -10.14996 -10.06356
 Alpha  occ. eigenvalues --  -10.05740  -1.01811  -1.00056  -0.92331  -0.91249
 Alpha  occ. eigenvalues --   -0.89999  -0.80521  -0.70524  -0.59929  -0.57076
 Alpha  occ. eigenvalues --   -0.54428  -0.47653  -0.46154  -0.43960  -0.43682
 Alpha  occ. eigenvalues --   -0.41222  -0.38103  -0.36228  -0.35599  -0.34224
 Alpha  occ. eigenvalues --   -0.31481  -0.30615  -0.29753  -0.29515  -0.27564
 Alpha  occ. eigenvalues --   -0.26959  -0.25928  -0.24734  -0.23816  -0.21903
 Alpha  occ. eigenvalues --   -0.19527  -0.18936  -0.18517  -0.17338   0.04801
 Alpha virt. eigenvalues --    0.06803   0.08008   0.08821   0.09788   0.10501
 Alpha virt. eigenvalues --    0.11209   0.11999   0.12962   0.13325   0.13542
 Alpha virt. eigenvalues --    0.15206   0.15673   0.17386   0.17612   0.18223

  Beta  occ. eigenvalues --  -19.06013 -19.03510 -19.03242 -19.02233 -19.00280
  Beta  occ. eigenvalues --  -14.22161 -10.22747 -10.22543 -10.14992 -10.06331
  Beta  occ. eigenvalues --  -10.05719  -1.01787  -1.00029  -0.92307  -0.91208
  Beta  occ. eigenvalues --   -0.89972  -0.80396  -0.70490  -0.59887  -0.57033
  Beta  occ. eigenvalues --   -0.54349  -0.47629  -0.46043  -0.43914  -0.43636
  Beta  occ. eigenvalues --   -0.41133  -0.38068  -0.36186  -0.35570  -0.34190
  Beta  occ. eigenvalues --   -0.31450  -0.30589  -0.29722  -0.29491  -0.27533
  Beta  occ. eigenvalues --   -0.26933  -0.25904  -0.24706  -0.23792  -0.21881
  Beta  occ. eigenvalues --   -0.19504  -0.18915  -0.18484  -0.17265
  Beta virt. eigenvalues --    0.07147   0.08470   0.08745   0.09495   0.10258
  Beta virt. eigenvalues --    0.11451   0.11989   0.12131   0.13042   0.13495
  Beta virt. eigenvalues --    0.14024   0.15314   0.15803   0.17557   0.17574

 Mulliken charges and spin densities:
               1          2
     1  C    0.433535  -0.819257
     2  C   -2.037642   1.491602
     3  C    0.822811  -1.119059
     4  C    1.139514  -1.406296
     5  O   -0.200715   0.008601
     6  O   -0.278986   0.055321
     7  O   -0.251932   0.026746
     8  O    0.155276  -0.066118
     9  C    1.105546  -0.845139
    10  O   -0.326905  -0.039486
    11  N   -0.477304   0.144363
    12  H    0.090167   0.086675
    13  H   -0.025758   0.223580
    14  H   -0.184173   0.334504
    15  H   -0.050836   0.205432
    16  H    0.153630   0.014346
    17  H   -0.289109   0.457493
    18  H    0.104306   0.172408
    19  H    0.293359   0.022333
    20  H   -0.072803   0.376790
    21  H   -0.482151   0.765484
    22  H   -0.619831   0.909676
 Sum of Mulliken charges =  -1.00000   1.00000

 Dipole moment (field-independent basis, Debye):
    X=             -6.0578    Y=             -1.1002    Z=              1.8715  Tot=              6.4350
 Quadrupole moment (field-independent basis, Debye-Ang):
   XX=           -132.9739   YY=            -96.1655   ZZ=            -94.2020
   XY=             -0.5147   XZ=              9.9828   YZ=              2.5298

 Summary of Natural Population Analysis:

                                       Natural Population
                Natural  -----------------------------------------------
    Atom  No    Charge         Core      Valence    Rydberg      Total
 -----------------------------------------------------------------------
      C    1   -0.29059      0.99960     2.28429    0.00670     3.29059
      C    2    0.12010      0.99946     1.86101    0.01943     2.87990
      C    3   -0.30232      0.99960     2.29614    0.00657     3.30232
      C    4    0.40701      0.99959     1.56724    0.02616     2.59299
      O    5   -0.36788      0.99987     3.36144    0.00656     4.36788
      O    6   -0.39775      0.99987     3.39187    0.00601     4.39775
      O    7   -0.37850      0.99988     3.37177    0.00686     4.37850
      O    8   -0.29224      0.99984     3.27971    0.01268     4.29224
      C    9    0.47010      0.99970     1.50457    0.02563     2.52990
      O   10   -0.35490      0.99985     3.34881    0.00624     4.35490
      N   11   -0.39516      0.99971     2.88731    0.00814     3.89516
      H   12    0.10930      0.00000     0.38945    0.00126     0.39070
      H   13    0.11188      0.00000     0.38664    0.00149     0.38812
      H   14    0.10282      0.00000     0.39578    0.00140     0.39718
      H   15    0.10792      0.00000     0.39062    0.00146     0.39208
      H   16    0.11231      0.00000     0.38644    0.00125     0.38769
      H   17    0.10401      0.00000     0.39480    0.00119     0.39599
      H   18    0.23257      0.00000     0.26434    0.00309     0.26743
      H   19    0.25440      0.00000     0.24179    0.00381     0.24560
      H   20    0.24059      0.00000     0.25528    0.00413     0.25941
      H   21    0.20433      0.00000     0.27890    0.01677     0.29567
      H   22    0.20201      0.00000     0.28652    0.01146     0.29799
 =======================================================================
   * Total *    0.00000     10.99697    32.82473    0.17830    44.00000

 Normal termination of Gaussian 16 at Tue Dec  8 21:04:48 2020.
