 Gaussian 16, Revision A.03,

 -----------------------------------------------------------
 # opt freq B3LYP/6-31G(d) empiricaldispersion=gd3bj scf=xqc
 -----------------------------------------------------------

 ------------------------------
 CID_67934568_JID_3432_neutraal
 ------------------------------
 Symbolic Z-matrix:
 Charge =  0 Multiplicity = 1

 SCF Done:  E(RB3LYP) =  -592.679301030     A.U. after   14 cycles
 SCF Done:  E(RB3LYP) =  -592.684602338     A.U. after   12 cycles
 SCF Done:  E(RB3LYP) =  -592.684774707     A.U. after   12 cycles
 SCF Done:  E(RB3LYP) =  -592.685579953     A.U. after   11 cycles
 SCF Done:  E(RB3LYP) =  -592.685597654     A.U. after   11 cycles
 SCF Done:  E(RB3LYP) =  -592.685987495     A.U. after   11 cycles
 SCF Done:  E(RB3LYP) =  -592.686112965     A.U. after   11 cycles
 SCF Done:  E(RB3LYP) =  -592.686206063     A.U. after   11 cycles
 SCF Done:  E(RB3LYP) =  -592.686277371     A.U. after   10 cycles
 SCF Done:  E(RB3LYP) =  -592.686337869     A.U. after   10 cycles
 SCF Done:  E(RB3LYP) =  -592.686344823     A.U. after    9 cycles
 SCF Done:  E(RB3LYP) =  -592.686354749     A.U. after   10 cycles
 SCF Done:  E(RB3LYP) =  -592.686357714     A.U. after   10 cycles
 SCF Done:  E(RB3LYP) =  -592.686358674     A.U. after    9 cycles
 SCF Done:  E(RB3LYP) =  -592.686359077     A.U. after    7 cycles
 Optimization completed.
    -- Stationary point found.
 Normal termination of Gaussian 16 at Wed Dec  9 23:16:32 2020.

 --------------------------------------------------------------------
 #N Geom=AllCheck Guess=TCheck SCRF=Check GenChk RB3LYP/6-31G(d) Freq
 --------------------------------------------------------------------

 Structure from the checkpoint file:  "JID_3432.chk"
 ------------------------------
 CID_67934568_JID_3432_neutraal
 ------------------------------
 Charge =  0 Multiplicity = 1

 SCF Done:  E(RB3LYP) =  -592.686359077     A.U. after    1 cycles

  Exact polarizability: 124.120  -0.746 109.332  -1.308  -6.135 100.656
 Approx polarizability: 176.247   1.128 153.616  -9.595 -11.467 149.980

                      1                      2                      3
                      A                      A                      A
 Frequencies --     43.5737                62.1811                84.1598
 Red. masses --      3.2338                 5.7136                 4.2560
 Frc consts  --      0.0036                 0.0130                 0.0178
 IR Inten    --      4.7281                 5.3381                 0.2140

                      4                      5                      6
                      A                      A                      A
 Frequencies --    122.5278               176.2969               205.5676
 Red. masses --      3.1904                 3.0930                 1.3956
 Frc consts  --      0.0282                 0.0566                 0.0347
 IR Inten    --      0.1197                 0.1224                 0.2726

                      7                      8                      9
                      A                      A                      A
 Frequencies --    215.2881               246.2940               255.1794
 Red. masses --      2.5332                 1.7115                 3.6545
 Frc consts  --      0.0692                 0.0612                 0.1402
 IR Inten    --      3.3754                 0.6269                 2.0818

                     10                     11                     12
                      A                      A                      A
 Frequencies --    296.2636               335.4434               372.2584
 Red. masses --      1.6369                 1.7128                 2.2467
 Frc consts  --      0.0847                 0.1136                 0.1834
 IR Inten    --     21.0153                30.3356                21.1535

                     13                     14                     15
                      A                      A                      A
 Frequencies --    392.4892               403.9771               429.4811
 Red. masses --      2.1893                 3.1275                 2.5223
 Frc consts  --      0.1987                 0.3007                 0.2741
 IR Inten    --      5.1845                 4.4874                 6.6258

                     16                     17                     18
                      A                      A                      A
 Frequencies --    462.8245               499.9229               523.1767
 Red. masses --      2.9728                 3.5206                 3.0923
 Frc consts  --      0.3752                 0.5184                 0.4987
 IR Inten    --      2.8625                 0.0646                 6.5475

                     19                     20                     21
                      A                      A                      A
 Frequencies --    583.1654               638.6088               662.4243
 Red. masses --      3.0663                 2.1182                 3.5093
 Frc consts  --      0.6144                 0.5090                 0.9073
 IR Inten    --      5.3828                 7.3560                 7.9397

                     22                     23                     24
                      A                      A                      A
 Frequencies --    768.7549               800.1552               821.7772
 Red. masses --      4.5403                 2.3274                 2.0609
 Frc consts  --      1.5809                 0.8780                 0.8200
 IR Inten    --     20.5920               112.4055                20.2584

                     25                     26                     27
                      A                      A                      A
 Frequencies --    851.6462               866.7300               893.5439
 Red. masses --      2.4693                 1.5642                 1.9979
 Frc consts  --      1.0552                 0.6923                 0.9398
 IR Inten    --     20.4330                26.7333                 6.9460

                     28                     29                     30
                      A                      A                      A
 Frequencies --    902.7977               915.4902               953.4553
 Red. masses --      1.3778                 1.4896                 1.6701
 Frc consts  --      0.6616                 0.7356                 0.8945
 IR Inten    --     80.2566                 3.0802                 3.6793

                     31                     32                     33
                      A                      A                      A
 Frequencies --    965.2906               991.1749              1011.1415
 Red. masses --      2.4836                 2.4882                 1.6388
 Frc consts  --      1.3635                 1.4403                 0.9872
 IR Inten    --      6.5548                19.3988                34.8870

                     34                     35                     36
                      A                      A                      A
 Frequencies --   1037.7541              1044.1832              1078.6239
 Red. masses --      1.9621                 1.9360                 1.4788
 Frc consts  --      1.2450                 1.2437                 1.0137
 IR Inten    --     24.0014                 1.6765                 1.5727

                     37                     38                     39
                      A                      A                      A
 Frequencies --   1081.8196              1111.9175              1133.9722
 Red. masses --      1.6873                 2.4820                 2.6922
 Frc consts  --      1.1635                 1.8080                 2.0397
 IR Inten    --     17.9151                 4.7973                28.0112

                     40                     41                     42
                      A                      A                      A
 Frequencies --   1144.5431              1150.4193              1162.6637
 Red. masses --      2.0734                 2.0327                 1.9908
 Frc consts  --      1.6003                 1.5851                 1.5856
 IR Inten    --      3.2209                 4.0899                13.1692

                     43                     44                     45
                      A                      A                      A
 Frequencies --   1188.7333              1204.4278              1236.5715
 Red. masses --      1.5577                 1.5628                 1.3520
 Frc consts  --      1.2969                 1.3357                 1.2180
 IR Inten    --      9.4049                 0.5103                 3.5912

                     46                     47                     48
                      A                      A                      A
 Frequencies --   1263.4259              1282.9209              1314.9745
 Red. masses --      1.7418                 1.7449                 1.2790
 Frc consts  --      1.6381                 1.6921                 1.3030
 IR Inten    --      3.3025                94.7792                 1.2875

                     49                     50                     51
                      A                      A                      A
 Frequencies --   1340.8457              1362.0418              1366.9253
 Red. masses --      1.8663                 1.3669                 1.3341
 Frc consts  --      1.9769                 1.4940                 1.4687
 IR Inten    --     30.6753                 5.0535                 3.5519

                     52                     53                     54
                      A                      A                      A
 Frequencies --   1401.1438              1405.3815              1410.6747
 Red. masses --      1.3182                 1.2978                 1.9805
 Frc consts  --      1.5247                 1.5102                 2.3220
 IR Inten    --      1.1547                 4.0685                80.3228

                     55                     56                     57
                      A                      A                      A
 Frequencies --   1426.3234              1450.0460              1461.1532
 Red. masses --      1.4691                 1.4836                 1.9673
 Frc consts  --      1.7609                 1.8379                 2.4746
 IR Inten    --      0.3331                 2.9726                75.2830

                     58                     59                     60
                      A                      A                      A
 Frequencies --   1501.9060              1506.0019              1513.2905
 Red. masses --      1.1191                 1.1236                 1.2434
 Frc consts  --      1.4873                 1.5015                 1.6777
 IR Inten    --     10.5488                 4.8345                10.0649

                     61                     62                     63
                      A                      A                      A
 Frequencies --   1514.3892              1518.8136              1527.2204
 Red. masses --      1.1774                 1.1267                 1.0592
 Frc consts  --      1.5909                 1.5314                 1.4555
 IR Inten    --      8.4630                 5.5940                 2.7638

                     64                     65                     66
                      A                      A                      A
 Frequencies --   1534.0593              1536.8391              1678.7813
 Red. masses --      1.0874                 1.1060                 1.1710
 Frc consts  --      1.5078                 1.5390                 1.9444
 IR Inten    --      4.5918                10.7309               108.6320

                     67                     68                     69
                      A                      A                      A
 Frequencies --   1753.2966              3003.1500              3047.9892
 Red. masses --      6.0491                 1.0738                 1.0363
 Frc consts  --     10.9560                 5.7060                 5.6725
 IR Inten    --    224.0856                63.4702                27.5879

                     70                     71                     72
                      A                      A                      A
 Frequencies --   3050.8347              3056.3648              3084.5672
 Red. masses --      1.0587                 1.0601                 1.0735
 Frc consts  --      5.8056                 5.8345                 6.0178
 IR Inten    --     35.9171                30.8844                17.2836

                     73                     74                     75
                      A                      A                      A
 Frequencies --   3100.4334              3104.5065              3107.2544
 Red. masses --      1.1079                 1.1031                 1.0978
 Frc consts  --      6.2745                 6.2639                 6.2451
 IR Inten    --     13.9185                20.9577                60.1816

                     76                     77                     78
                      A                      A                      A
 Frequencies --   3123.2991              3141.2665              3141.9884
 Red. masses --      1.0965                 1.0589                 1.0882
 Frc consts  --      6.3024                 6.1560                 6.3293
 IR Inten    --      3.4868                18.2483                26.3504

                     79                     80                     81
                      A                      A                      A
 Frequencies --   3170.6750              3181.5148              3222.9870
 Red. masses --      1.0990                 1.0879                 1.1172
 Frc consts  --      6.5098                 6.4877                 6.8377
 IR Inten    --      4.3427                16.5538                 8.4771

                     82                     83                     84
                      A                      A                      A
 Frequencies --   3454.6009              3468.6943              3556.8475
 Red. masses --      1.0734                 1.0494                 1.0930
 Frc consts  --      7.5477                 7.4388                 8.1471
 IR Inten    --      4.0544                 1.5078                 1.0427

 - Thermochemistry -
 -------------------
 Temperature   298.150 Kelvin.  Pressure   1.00000 Atm.
 Atom     1 has atomic number  6 and mass  12.00000

 Molecular mass:   183.13716 amu.
 Principal axes and moments of inertia in atomic units:
                           1         2         3
     Eigenvalues --  1774.637042533.974312886.80506
           X            0.99916  -0.00190   0.04087
           Y            0.00291   0.99969  -0.02465
           Z           -0.04081   0.02475   0.99886
 This molecule is an asymmetric top.
 Rotational symmetry number  1.
 Warning -- assumption of classical behavior for rotation
           may cause significant error
 Rotational temperatures (Kelvin)      0.04881     0.03418     0.03000
 Rotational constants (GHZ):           1.01696     0.71222     0.62517
 Zero-point vibrational energy     702304.4 (Joules/Mol)
                                  167.85477 (Kcal/Mol)
 Warning -- explicit consideration of  19 degrees of freedom as
           vibrations may cause significant error
 Vibrational temperatures:     62.69    89.46   121.09   176.29   253.65
          (Kelvin)            295.77   309.75   354.36   367.15   426.26
                              482.63   535.60   564.70   581.23   617.93
                              665.90   719.28   752.73   839.04   918.82
                              953.08  1106.07  1151.24  1182.35  1225.33
                             1247.03  1285.61  1298.92  1317.19  1371.81
                             1388.84  1426.08  1454.81  1493.10  1502.35
                             1551.90  1556.50  1599.80  1631.53  1646.74
                             1655.20  1672.81  1710.32  1732.90  1779.15
                             1817.79  1845.84  1891.96  1929.18  1959.67
                             1966.70  2015.93  2022.03  2029.65  2052.16
                             2086.29  2102.27  2160.91  2166.80  2177.29
                             2178.87  2185.23  2197.33  2207.17  2211.17
                             2415.39  2522.60  4320.86  4385.38  4389.47
                             4397.43  4438.00  4460.83  4466.69  4470.65
                             4493.73  4519.58  4520.62  4561.89  4577.49
                             4637.16  4970.40  4990.68  5117.51

 Zero-point correction=                           0.267494 (Hartree/Particle)
 Thermal correction to Energy=                    0.280366
 Thermal correction to Enthalpy=                  0.281310
 Thermal correction to Gibbs Free Energy=         0.228440
 Sum of electronic and zero-point Energies=           -592.418865
 Sum of electronic and thermal Energies=              -592.405993
 Sum of electronic and thermal Enthalpies=            -592.405049
 Sum of electronic and thermal Free Energies=         -592.457919

                     E (Thermal)             CV                S
                      KCal/Mol        Cal/Mol-Kelvin    Cal/Mol-Kelvin
 Total                  175.932             50.035            111.274
 Electronic               0.000              0.000              0.000
 Translational            0.889              2.981             41.522
 Rotational               0.889              2.981             30.941
 Vibrational            174.155             44.073             38.812
 Vibration     1          0.595              1.980              5.090
 Vibration     2          0.597              1.972              4.387
 Vibration     3          0.601              1.960              3.791
 Vibration     4          0.610              1.930              3.060
 Vibration     5          0.628              1.872              2.367
 Vibration     6          0.640              1.832              2.083
 Vibration     7          0.645              1.818              1.998
 Vibration     8          0.661              1.769              1.757
 Vibration     9          0.666              1.754              1.695
 Vibration    10          0.690              1.681              1.438
 Vibration    11          0.717              1.605              1.234
 Vibration    12          0.744              1.529              1.070
 Vibration    13          0.760              1.486              0.991
 Vibration    14          0.769              1.462              0.948
 Vibration    15          0.791              1.406              0.860
 Vibration    16          0.820              1.333              0.758
 Vibration    17          0.855              1.250              0.658
 Vibration    18          0.878              1.199              0.603
 Vibration    19          0.940              1.068              0.480

 Optimization completed.
    -- Stationary point found.
 Normal termination of Gaussian 16 at Wed Dec  9 23:25:19 2020.

 ----------------------------------------------------------------------
 # B3LYP/6-311++G(d,p) empiricaldispersion=gd3bj scf=xqc pop=npa geom=c
 heck
 ----------------------------------------------------------------------

 --------------------------------------
 CID_67934568_JID_3432_Energie_neutraal
 --------------------------------------
 Structure from the checkpoint file:  "JID_3432.chk"
 Charge =  0 Multiplicity = 1

 SCF Done:  E(RB3LYP) =  -592.862743514     A.U. after   14 cycles
 Normal termination of Gaussian 16 at Wed Dec  9 23:28:31 2020.

 ----------------------------------------------------------------------
 # B3LYP/6-311++G(d,p) empiricaldispersion=gd3bj scf=xqc pop=npa geom=c
 heck
 ----------------------------------------------------------------------

 ------------------------------------
 CID_67934568_JID_3432_Energie_kation
 ------------------------------------
 Structure from the checkpoint file:  "JID_3432.chk"
 Charge =  1 Multiplicity = 2

 SCF Done:  E(UB3LYP) =  -592.574545819     A.U. after   23 cycles
 Normal termination of Gaussian 16 at Wed Dec  9 23:35:19 2020.
 Gaussian 16:  ES64L-G16RevA.03 25-Dec-2016

 ----------------------------------------------------------------------
 # B3LYP/6-311++G(d,p) empiricaldispersion=gd3bj scf=xqc pop=npa geom=c
 heck
 ----------------------------------------------------------------------

 -----------------------------------
 CID_67934568_JID_3432_Energie_anion
 -----------------------------------
 Structure from the checkpoint file:  "JID_3432.chk"
 Charge = -1 Multiplicity = 2

                         Standard orientation:
 ---------------------------------------------------------------------
 Center     Atomic      Atomic             Coordinates (Angstroms)
 Number     Number       Type             X           Y           Z
 ---------------------------------------------------------------------
      1          6           0       -2.616810   -1.221560   -1.203001
      2          6           0       -2.096152   -0.997462    0.199355
      3          6           0       -0.984918   -1.873106    0.721663
      4          6           0       -0.718594   -0.414647    0.472115
      5          6           0       -0.583852    0.580901    1.619593
      6          7           0       -0.970976    1.938303    1.213200
      7          6           0       -0.282905    2.349516   -0.017358
      8          6           0       -0.393811    1.328576   -1.163457
      9          7           0        0.066424    0.016655   -0.671195
     10          6           0        1.416250   -0.233437   -0.813163
     11          8           0        2.116258    0.406654   -1.594672
     12          6           0        2.102290   -1.278103    0.063724
     13          7           0        2.833220   -0.514923    1.088487
     14          1           0       -1.790133   -1.382642   -1.901972
     15          1           0       -3.196229   -0.362356   -1.559979
     16          1           0       -3.270060   -2.101237   -1.238938
     17          1           0       -2.854183   -0.706986    0.926250
     18          1           0       -0.574728   -2.591624    0.017375
     19          1           0       -1.002674   -2.215631    1.753256
     20          1           0        0.462919    0.599501    1.947476
     21          1           0       -1.204353    0.278748    2.471120
     22          1           0       -1.976067    1.939893    1.034461
     23          1           0       -0.679257    3.321493   -0.332558
     24          1           0        0.779225    2.486094    0.219863
     25          1           0       -1.432393    1.226151   -1.492866
     26          1           0        0.227188    1.610144   -2.013325
     27          1           0        1.410400   -1.948946    0.567884
     28          1           0        2.744263   -1.872279   -0.605394
     29          1           0        3.380529   -1.152488    1.663918
     30          1           0        3.495823    0.094621    0.610534
 ---------------------------------------------------------------------

 SCF Done:  E(UB3LYP) =  -592.849695493     A.U. after   33 cycles
 SCF Done:  E(UB3LYP) =  -592.849695493     a.u. after    1 cycles

 The electronic state is 2-A.
 Alpha  occ. eigenvalues --  -18.99103 -14.24514 -14.20151 -14.20082 -10.17182
 Alpha  occ. eigenvalues --  -10.11786 -10.10013 -10.09992 -10.09808 -10.09179
 Alpha  occ. eigenvalues --  -10.08226 -10.07732 -10.06435  -0.94384  -0.85986
 Alpha  occ. eigenvalues --   -0.79775  -0.78722  -0.75985  -0.65507  -0.61703
 Alpha  occ. eigenvalues --   -0.60370  -0.56573  -0.52553  -0.51639  -0.48652
 Alpha  occ. eigenvalues --   -0.43048  -0.41919  -0.40230  -0.38305  -0.37446
 Alpha  occ. eigenvalues --   -0.36869  -0.35378  -0.34985  -0.32942  -0.31856
 Alpha  occ. eigenvalues --   -0.31723  -0.30353  -0.29830  -0.29646  -0.28276
 Alpha  occ. eigenvalues --   -0.27046  -0.26558  -0.25865  -0.25274  -0.20444
 Alpha  occ. eigenvalues --   -0.19399  -0.17379  -0.15946  -0.14913  -0.11923
 Alpha  occ. eigenvalues --    0.04367
 Alpha virt. eigenvalues --    0.05989   0.07394   0.07757   0.08689   0.09356
 Alpha virt. eigenvalues --    0.09708   0.10224   0.10484   0.11177   0.12006
 Alpha virt. eigenvalues --    0.12061   0.12315   0.13298   0.13510   0.14253

  Beta  occ. eigenvalues --  -18.99092 -14.24506 -14.20137 -14.20044 -10.17175
  Beta  occ. eigenvalues --  -10.11786 -10.10003 -10.09978 -10.09801 -10.09166
  Beta  occ. eigenvalues --  -10.08205 -10.07708 -10.06401  -0.94363  -0.85966
  Beta  occ. eigenvalues --   -0.79744  -0.78661  -0.75956  -0.65478  -0.61654
  Beta  occ. eigenvalues --   -0.60321  -0.56528  -0.52521  -0.51604  -0.48580
  Beta  occ. eigenvalues --   -0.43009  -0.41872  -0.40174  -0.38262  -0.37404
  Beta  occ. eigenvalues --   -0.36820  -0.35347  -0.34952  -0.32908  -0.31835
  Beta  occ. eigenvalues --   -0.31690  -0.30321  -0.29794  -0.29611  -0.28248
  Beta  occ. eigenvalues --   -0.27003  -0.26533  -0.25808  -0.25250  -0.20413
  Beta  occ. eigenvalues --   -0.19370  -0.17345  -0.15918  -0.14882  -0.11895
  Beta virt. eigenvalues --    0.06807   0.07132   0.07948   0.08495   0.09290
  Beta virt. eigenvalues --    0.09835   0.10135   0.10503   0.10883   0.11404
  Beta virt. eigenvalues --    0.12349   0.12509   0.12785   0.13554   0.13899

 Mulliken charges and spin densities:
               1          2
     1  C    1.221687  -1.930566
     2  C   -0.794016   1.421521
     3  C    3.104813  -3.758622
     4  C   -2.966016   2.820039
     5  C    0.623314  -1.570801
     6  N   -0.220220   0.215331
     7  C   -0.203128  -0.247940
     8  C   -0.299796   0.153034
     9  N    0.230847   0.045170
    10  C    0.209503  -0.068137
    11  O   -0.334901   0.007820
    12  C    0.226642  -0.822775
    13  N   -0.332595   0.027838
    14  H   -0.075279   0.253081
    15  H   -0.252079   0.399211
    16  H   -0.290061   0.439453
    17  H   -0.751485   0.982321
    18  H    0.098775   0.057302
    19  H   -0.402269   0.595102
    20  H    0.377287  -0.123719
    21  H   -0.194557   0.368743
    22  H    0.030037   0.200298
    23  H   -0.109571   0.298357
    24  H    0.210647  -0.027350
    25  H    0.060921   0.064693
    26  H    0.135812   0.067202
    27  H   -0.112081   0.287507
    28  H   -0.114106   0.293279
    29  H   -0.247267   0.495204
    30  H    0.169144   0.057405
 Sum of Mulliken charges =  -1.00000   1.00000

 Dipole moment (field-independent basis, Debye):
    X=              2.0626    Y=              2.4493    Z=             -2.4338  Tot=              4.0220
 Quadrupole moment (field-independent basis, Debye-Ang):
   XX=           -147.2252   YY=           -120.4571   ZZ=           -122.7449
   XY=              0.4912   XZ=              0.8642   YZ=              3.3627

 Summary of Natural Population Analysis:

                                       Natural Population
                Natural  -----------------------------------------------
    Atom  No    Charge         Core      Valence    Rydberg      Total
 -----------------------------------------------------------------------
      C    1   -0.28848      0.99964     2.28199    0.00685     3.28848
      C    2   -0.10887      0.99954     2.09678    0.01254     3.10887
      C    3   -0.19533      0.99955     2.18508    0.01070     3.19533
      C    4    0.05177      0.99949     1.93209    0.01665     2.94823
      C    5   -0.09552      0.99955     2.08362    0.01235     3.09552
      N    6   -0.33242      0.99976     2.82100    0.01166     3.83242
      C    7   -0.09558      0.99962     2.08525    0.01071     3.09558
      C    8   -0.09905      0.99960     2.08929    0.01015     3.09905
      N    9   -0.25775      0.99961     2.74582    0.01232     3.75775
      C   10    0.35132      0.99964     1.62585    0.02318     2.64868
      O   11   -0.33178      0.99988     3.32636    0.00554     4.33178
      C   12   -0.12773      0.99960     2.11706    0.01108     3.12773
      N   13   -0.41847      0.99977     2.90865    0.01004     3.91847
      H   14    0.10200      0.00000     0.39665    0.00135     0.39800
      H   15    0.10102      0.00000     0.39732    0.00167     0.39898
      H   16    0.10282      0.00000     0.39602    0.00116     0.39718
      H   17    0.10574      0.00000     0.39072    0.00355     0.39426
      H   18    0.10528      0.00000     0.39312    0.00160     0.39472
      H   19    0.11043      0.00000     0.38769    0.00188     0.38957
      H   20    0.10602      0.00000     0.39197    0.00201     0.39398
      H   21    0.09898      0.00000     0.39979    0.00123     0.40102
      H   22    0.16955      0.00000     0.32723    0.00322     0.33045
      H   23    0.09506      0.00000     0.40416    0.00079     0.40494
      H   24    0.09500      0.00000     0.40387    0.00114     0.40500
      H   25    0.09675      0.00000     0.40177    0.00148     0.40325
      H   26    0.11399      0.00000     0.38498    0.00104     0.38601
      H   27    0.10070      0.00000     0.39731    0.00199     0.39930
      H   28    0.08883      0.00000     0.40963    0.00154     0.41117
      H   29    0.17878      0.00000     0.31790    0.00332     0.32122
      H   30    0.17695      0.00000     0.32121    0.00184     0.32305
 =======================================================================
   * Total *   -0.00000     12.99527    36.82017    0.18456    50.00000

 Normal termination of Gaussian 16 at Wed Dec  9 23:45:05 2020.
