 Gaussian 16, Revision A.03,

 -----------------------------------------------------------
 # opt freq B3LYP/6-31G(d) empiricaldispersion=gd3bj scf=xqc
 -----------------------------------------------------------

 -------------------------------
 CID_60646348_JID_10947_neutraal
 -------------------------------
 Symbolic Z-matrix:
 Charge =  0 Multiplicity = 1

 SCF Done:  E(RB3LYP) =  -879.351716785     A.U. after   15 cycles
 SCF Done:  E(RB3LYP) =  -879.356585046     A.U. after   12 cycles
 SCF Done:  E(RB3LYP) =  -879.357474021     A.U. after   12 cycles
 SCF Done:  E(RB3LYP) =  -879.358316928     A.U. after   12 cycles
 SCF Done:  E(RB3LYP) =  -879.358676729     A.U. after   12 cycles
 SCF Done:  E(RB3LYP) =  -879.358852512     A.U. after   12 cycles
 SCF Done:  E(RB3LYP) =  -879.358951956     A.U. after   11 cycles
 SCF Done:  E(RB3LYP) =  -879.358983597     A.U. after   12 cycles
 SCF Done:  E(RB3LYP) =  -879.358830815     A.U. after   12 cycles
 SCF Done:  E(RB3LYP) =  -879.359723425     A.U. after   14 cycles
 SCF Done:  E(RB3LYP) =  -879.361375937     A.U. after    8 cycles
 SCF Done:  E(RB3LYP) =  -879.361376313     A.U. after    9 cycles
 SCF Done:  E(RB3LYP) =  -879.361376379     A.U. after    7 cycles
 SCF Done:  E(RB3LYP) =  -879.361376468     A.U. after    6 cycles
 SCF Done:  E(RB3LYP) =  -879.361376499     A.U. after    7 cycles
 Optimization completed.
    -- Stationary point found.
 Normal termination of Gaussian 16 at Sat Dec 12 16:50:03 2020.

 --------------------------------------------------------------------
 #N Geom=AllCheck Guess=TCheck SCRF=Check GenChk RB3LYP/6-31G(d) Freq
 --------------------------------------------------------------------

 Structure from the checkpoint file:  "JID_10947.chk"
 -------------------------------
 CID_60646348_JID_10947_neutraal
 -------------------------------
 Charge =  0 Multiplicity = 1

 SCF Done:  E(RB3LYP) =  -879.361376499     A.U. after    1 cycles

  Exact polarizability: 347.426 -10.216 194.427   0.997   6.108  83.240
 Approx polarizability: 474.470  -8.201 332.404   6.068  18.558 129.073

                      1                      2                      3
                      A                      A                      A
 Frequencies --     19.6629                40.2760                69.0564
 Red. masses --      3.9711                 4.4004                 3.8339
 Frc consts  --      0.0009                 0.0042                 0.0108
 IR Inten    --      2.2510                 1.1436                 0.2110

                      4                      5                      6
                      A                      A                      A
 Frequencies --     78.4120                80.9209                89.7490
 Red. masses --      1.3408                 2.0049                 2.6026
 Frc consts  --      0.0049                 0.0077                 0.0124
 IR Inten    --      1.9370                 2.7226                 0.7326

                      7                      8                      9
                      A                      A                      A
 Frequencies --    132.9466               149.2500               176.8863
 Red. masses --      3.3029                 1.5119                 3.1095
 Frc consts  --      0.0344                 0.0198                 0.0573
 IR Inten    --      3.5792                 0.7129                 0.5345

                     10                     11                     12
                      A                      A                      A
 Frequencies --    180.4005               201.0650               215.2927
 Red. masses --      3.5735                 3.6054                 3.7477
 Frc consts  --      0.0685                 0.0859                 0.1023
 IR Inten    --      9.0375                 3.6916                 1.5564

                     13                     14                     15
                      A                      A                      A
 Frequencies --    242.0875               268.1591               277.7165
 Red. masses --      1.7891                 2.3463                 4.1383
 Frc consts  --      0.0618                 0.0994                 0.1881
 IR Inten    --      0.5710                 0.5237                 0.2178

                     16                     17                     18
                      A                      A                      A
 Frequencies --    296.0348               335.1698               343.2396
 Red. masses --      3.4671                 4.4970                 4.1072
 Frc consts  --      0.1790                 0.2976                 0.2851
 IR Inten    --      2.0507                 0.5838                 6.9388

                     19                     20                     21
                      A                      A                      A
 Frequencies --    391.1700               399.8920               429.9472
 Red. masses --      4.2405                 4.0140                 1.3734
 Frc consts  --      0.3823                 0.3782                 0.1496
 IR Inten    --      6.5644                 4.6428                70.7878

                     22                     23                     24
                      A                      A                      A
 Frequencies --    479.8007               507.9906               519.7505
 Red. masses --      3.6522                 4.3615                 4.8985
 Frc consts  --      0.4954                 0.6631                 0.7797
 IR Inten    --     17.4790                 9.8647                 2.7909

                     25                     26                     27
                      A                      A                      A
 Frequencies --    528.7003               557.4095               589.7951
 Red. masses --      3.8477                 4.9812                 3.8031
 Frc consts  --      0.6337                 0.9119                 0.7795
 IR Inten    --      0.1574                 1.5640                 1.5251

                     28                     29                     30
                      A                      A                      A
 Frequencies --    602.7557               619.2388               640.4369
 Red. masses --      5.1113                 4.9821                 6.1488
 Frc consts  --      1.0941                 1.1256                 1.4859
 IR Inten    --      2.2405                 4.3393                11.4833

                     31                     32                     33
                      A                      A                      A
 Frequencies --    646.2992               723.4707               734.9533
 Red. masses --      5.0923                 5.6336                 4.4922
 Frc consts  --      1.2532                 1.7373                 1.4296
 IR Inten    --      2.4466                 0.0514                 0.4494

                     34                     35                     36
                      A                      A                      A
 Frequencies --    737.5912               763.7873               774.5397
 Red. masses --      4.0937                 1.4861                 5.0042
 Frc consts  --      1.3122                 0.5108                 1.7688
 IR Inten    --      2.4493                44.8833                25.5025

                     37                     38                     39
                      A                      A                      A
 Frequencies --    787.1395               835.9058               863.5565
 Red. masses --      4.3311                 1.4955                 5.0706
 Frc consts  --      1.5811                 0.6157                 2.2279
 IR Inten    --      3.9122                22.2501                 4.9720

                     40                     41                     42
                      A                      A                      A
 Frequencies --    873.6553               880.3171               905.9425
 Red. masses --      1.3162                 1.5336                 5.6984
 Frc consts  --      0.5919                 0.7002                 2.7555
 IR Inten    --      0.0344                12.7246                 9.7259

                     43                     44                     45
                      A                      A                      A
 Frequencies --    945.6215               960.2723               986.7079
 Red. masses --      1.2507                 1.2984                 2.9446
 Frc consts  --      0.6589                 0.7054                 1.6891
 IR Inten    --      0.6218                 0.6511                 7.1461

                     46                     47                     48
                      A                      A                      A
 Frequencies --    996.0932              1060.2574              1075.3058
 Red. masses --      2.8712                 4.6752                 6.4562
 Frc consts  --      1.6785                 3.0965                 4.3984
 IR Inten    --      3.7418                66.7296                72.2445

                     49                     50                     51
                      A                      A                      A
 Frequencies --   1076.1199              1083.1909              1111.0827
 Red. masses --      1.5089                 2.5721                 2.1881
 Frc consts  --      1.0295                 1.7781                 1.5915
 IR Inten    --      3.0433                13.1626                 3.6857

                     52                     53                     54
                      A                      A                      A
 Frequencies --   1115.2004              1165.9446              1185.4516
 Red. masses --      1.9392                 1.6443                 1.2628
 Frc consts  --      1.4209                 1.3170                 1.0456
 IR Inten    --     12.7367                75.9922                 3.4627

                     55                     56                     57
                      A                      A                      A
 Frequencies --   1186.3689              1193.7782              1210.2127
 Red. masses --      1.2607                 1.2975                 1.5407
 Frc consts  --      1.0455                 1.0895                 1.3295
 IR Inten    --      3.6704                 3.8985                32.2624

                     58                     59                     60
                      A                      A                      A
 Frequencies --   1222.0883              1246.1470              1271.0802
 Red. masses --      1.3372                 1.6934                 2.4998
 Frc consts  --      1.1767                 1.5494                 2.3795
 IR Inten    --      4.4147                33.8607                60.4250

                     61                     62                     63
                      A                      A                      A
 Frequencies --   1285.2382              1299.2809              1309.0815
 Red. masses --      3.1383                 1.6806                 2.1030
 Frc consts  --      3.0543                 1.6715                 2.1233
 IR Inten    --     86.5123                 1.0661                51.0820

                     64                     65                     66
                      A                      A                      A
 Frequencies --   1322.9765              1346.3257              1359.8995
 Red. masses --      3.3967                 5.5433                 6.4741
 Frc consts  --      3.5028                 5.9200                 7.0542
 IR Inten    --    343.0205                18.4428                 2.6855

                     67                     68                     69
                      A                      A                      A
 Frequencies --   1406.4025              1431.8172              1442.3656
 Red. masses --      6.2301                 3.9622                 1.3675
 Frc consts  --      7.2604                 4.7859                 1.6762
 IR Inten    --     53.7273                11.0700                 8.9553

                     70                     71                     72
                      A                      A                      A
 Frequencies --   1445.5912              1470.1263              1493.1472
 Red. masses --      2.6267                 2.2495                 1.2385
 Frc consts  --      3.2341                 2.8645                 1.6269
 IR Inten    --     63.1872                42.1466                58.5859

                     73                     74                     75
                      A                      A                      A
 Frequencies --   1505.3754              1506.7177              1514.9272
 Red. masses --      1.2926                 1.0445                 1.0671
 Frc consts  --      1.7258                 1.3970                 1.4429
 IR Inten    --      3.3178                 5.0800                13.2046

                     76                     77                     78
                      A                      A                      A
 Frequencies --   1521.2342              1523.3288              1534.0066
 Red. masses --      1.0478                 1.1641                 1.0995
 Frc consts  --      1.4287                 1.5916                 1.5244
 IR Inten    --      6.2141                31.0457                99.3517

                     79                     80                     81
                      A                      A                      A
 Frequencies --   1542.1197              1551.1710              1560.4747
 Red. masses --      1.0503                 2.9929                 2.9955
 Frc consts  --      1.4716                 4.2429                 4.2977
 IR Inten    --      6.4208               158.1575               110.4047

                     82                     83                     84
                      A                      A                      A
 Frequencies --   1596.2613              1629.3235              1649.2407
 Red. masses --      4.5982                 7.3995                 7.5666
 Frc consts  --      6.9031                11.5735                12.1260
 IR Inten    --      0.8985                11.5992                10.7519

                     85                     86                     87
                      A                      A                      A
 Frequencies --   1669.1659              1676.9275              3031.5308
 Red. masses --      6.1620                 6.3051                 1.0344
 Frc consts  --     10.1151                10.4465                 5.6009
 IR Inten    --     14.5493                21.1376                68.6724

                     88                     89                     90
                      A                      A                      A
 Frequencies --   3037.2875              3049.3149              3093.0534
 Red. masses --      1.0395                 1.0358                 1.1068
 Frc consts  --      5.6500                 5.6745                 6.2388
 IR Inten    --     68.2751                29.1591                37.8730

                     91                     92                     93
                      A                      A                      A
 Frequencies --   3102.8136              3119.0361              3129.2681
 Red. masses --      1.1002                 1.0950                 1.1030
 Frc consts  --      6.2409                 6.2766                 6.3635
 IR Inten    --     16.3254                40.0764                23.9922

                     94                     95                     96
                      A                      A                      A
 Frequencies --   3157.8138              3163.9537              3179.8712
 Red. masses --      1.1059                 1.1004                 1.0867
 Frc consts  --      6.4973                 6.4905                 6.4742
 IR Inten    --     25.2913                26.6477                11.6001

                     97                     98                     99
                      A                      A                      A
 Frequencies --   3193.2507              3201.5866              3208.2523
 Red. masses --      1.0897                 1.0898                 1.0962
 Frc consts  --      6.5467                 6.5815                 6.6476
 IR Inten    --     17.0939                 9.8563                37.1435

                    100                    101                    102
                      A                      A                      A
 Frequencies --   3223.1143              3237.3554              3666.3636
 Red. masses --      1.0874                 1.0938                 1.0796
 Frc consts  --      6.6556                 6.7542                 8.5505
 IR Inten    --      8.4494                 5.5107                33.6739

 - Thermochemistry -
 -------------------
 Temperature   298.150 Kelvin.  Pressure   1.00000 Atm.
 Atom     1 has atomic number  6 and mass  12.00000

 Molecular mass:   268.12118 amu.
 Principal axes and moments of inertia in atomic units:
                           1         2         3
     Eigenvalues --  1962.49151********************
           X            1.00000   0.00103  -0.00230
           Y           -0.00104   0.99999  -0.00537
           Z            0.00229   0.00537   0.99998
 This molecule is an asymmetric top.
 Rotational symmetry number  1.
 Warning -- assumption of classical behavior for rotation
           may cause significant error
 Rotational temperatures (Kelvin)      0.04413     0.00703     0.00616
 Rotational constants (GHZ):           0.91962     0.14648     0.12828
 Zero-point vibrational energy     768407.4 (Joules/Mol)
                                  183.65378 (Kcal/Mol)
 Warning -- explicit consideration of  29 degrees of freedom as
           vibrations may cause significant error
 Vibrational temperatures:     28.29    57.95    99.36   112.82   116.43
          (Kelvin)            129.13   191.28   214.74   254.50   259.56
                              289.29   309.76   348.31   385.82   399.57
                              425.93   482.23   493.85   562.81   575.36
                              618.60   690.33   730.89   747.81   760.68
                              801.99   848.58   867.23   890.95   921.45
                              929.88  1040.91  1057.43  1061.23  1098.92
                             1114.39  1132.52  1202.68  1242.47  1257.00
                             1266.58  1303.45  1360.54  1381.62  1419.65
                             1433.16  1525.47  1547.13  1548.30  1558.47
                             1598.60  1604.52  1677.53  1705.60  1706.92
                             1717.58  1741.23  1758.31  1792.93  1828.80
                             1849.17  1869.38  1883.48  1903.47  1937.06
                             1956.59  2023.50  2060.07  2075.24  2079.88
                             2115.18  2148.31  2165.90  2167.83  2179.64
                             2188.72  2191.73  2207.09  2218.77  2231.79
                             2245.18  2296.66  2344.23  2372.89  2401.56
                             2412.72  4361.70  4369.98  4387.28  4450.21
                             4464.26  4487.60  4502.32  4543.39  4552.22
                             4575.13  4594.38  4606.37  4615.96  4637.34
                             4657.83  5275.08

 Zero-point correction=                           0.292671 (Hartree/Particle)
 Thermal correction to Energy=                    0.310720
 Thermal correction to Enthalpy=                  0.311665
 Thermal correction to Gibbs Free Energy=         0.245441
 Sum of electronic and zero-point Energies=           -879.068706
 Sum of electronic and thermal Energies=              -879.050656
 Sum of electronic and thermal Enthalpies=            -879.049712
 Sum of electronic and thermal Free Energies=         -879.115935

                     E (Thermal)             CV                S
                      KCal/Mol        Cal/Mol-Kelvin    Cal/Mol-Kelvin
 Total                  194.980             68.736            139.378
 Electronic               0.000              0.000              0.000
 Translational            0.889              2.981             42.658
 Rotational               0.889              2.981             34.186
 Vibrational            193.203             62.774             62.535
 Vibration     1          0.593              1.986              6.668
 Vibration     2          0.594              1.981              5.245
 Vibration     3          0.598              1.969              4.180
 Vibration     4          0.600              1.964              3.930
 Vibration     5          0.600              1.962              3.868
 Vibration     6          0.602              1.956              3.666
 Vibration     7          0.613              1.920              2.903
 Vibration     8          0.618              1.903              2.682
 Vibration     9          0.628              1.871              2.361
 Vibration    10          0.629              1.866              2.324
 Vibration    11          0.638              1.838              2.123
 Vibration    12          0.645              1.818              1.998
 Vibration    13          0.658              1.776              1.787
 Vibration    14          0.673              1.732              1.608
 Vibration    15          0.679              1.715              1.548
 Vibration    16          0.690              1.681              1.439
 Vibration    17          0.716              1.605              1.235
 Vibration    18          0.722              1.589              1.197
 Vibration    19          0.759              1.489              0.996
 Vibration    20          0.766              1.470              0.963
 Vibration    21          0.791              1.405              0.859
 Vibration    22          0.836              1.295              0.711
 Vibration    23          0.863              1.232              0.638
 Vibration    24          0.875              1.206              0.611
 Vibration    25          0.884              1.186              0.590
 Vibration    26          0.913              1.123              0.529
 Vibration    27          0.947              1.054              0.468
 Vibration    28          0.961              1.026              0.445
 Vibration    29          0.979              0.991              0.418

                           ! Non-Optimized Parameters !
 Normal termination of Gaussian 16 at Sat Dec 12 17:04:38 2020.

 ----------------------------------------------------------------------
 # B3LYP/6-311++G(d,p) empiricaldispersion=gd3bj scf=xqc pop=npa geom=c
 heck
 ----------------------------------------------------------------------

 ---------------------------------------
 CID_60646348_JID_10947_Energie_neutraal
 ---------------------------------------
 Structure from the checkpoint file:  "JID_10947.chk"
 Charge =  0 Multiplicity = 1

 SCF Done:  E(RB3LYP) =  -879.593360243     A.U. after   15 cycles
 Normal termination of Gaussian 16 at Sat Dec 12 17:11:18 2020.

 ----------------------------------------------------------------------
 # B3LYP/6-311++G(d,p) empiricaldispersion=gd3bj scf=xqc pop=npa geom=c
 heck
 ----------------------------------------------------------------------

 -------------------------------------
 CID_60646348_JID_10947_Energie_kation
 -------------------------------------
 Structure from the checkpoint file:  "JID_10947.chk"
 Charge =  1 Multiplicity = 2

 SCF Done:  E(UB3LYP) =  -879.332421630     A.U. after   24 cycles
 Normal termination of Gaussian 16 at Sat Dec 12 17:26:08 2020.
 Gaussian 16:  ES64L-G16RevA.03 25-Dec-2016

 ----------------------------------------------------------------------
 # B3LYP/6-311++G(d,p) empiricaldispersion=gd3bj scf=xqc pop=npa geom=c
 heck
 ----------------------------------------------------------------------

 ------------------------------------
 CID_60646348_JID_10947_Energie_anion
 ------------------------------------
 Structure from the checkpoint file:  "JID_10947.chk"
 Charge = -1 Multiplicity = 2

                         Standard orientation:
 ---------------------------------------------------------------------
 Center     Atomic      Atomic             Coordinates (Angstroms)
 Number     Number       Type             X           Y           Z
 ---------------------------------------------------------------------
      1          6           0        4.384362    2.413420    0.462558
      2          6           0        4.251950    0.939036    0.198830
      3          6           0        2.982955    0.348407    0.061086
      4          6           0        2.855053   -1.040248   -0.184387
      5          6           0        3.956872   -1.887339   -0.306638
      6          6           0        5.208033   -1.292633   -0.171831
      7          6           0        5.348544    0.087478    0.075942
      8          7           0        1.489388   -1.254061   -0.250561
      9          6           0        0.864013   -0.032139   -0.062817
     10          7           0        1.733583    0.941839    0.130760
     11          6           0       -0.587237    0.131475   -0.083185
     12          6           0       -1.466376   -0.964027   -0.093471
     13          6           0       -2.842095   -0.785462   -0.126110
     14          6           0       -3.379365    0.520738   -0.146060
     15          6           0       -2.508262    1.614825   -0.112798
     16          6           0       -1.129791    1.421460   -0.082991
     17          8           0       -4.737715    0.610249   -0.204695
     18          6           0       -5.316579    1.905413   -0.250159
     19          8           0       -3.647023   -1.895018   -0.191522
     20          6           0       -4.469313   -2.122980    0.955763
     21          1           0        3.918333    2.998826   -0.338694
     22          1           0        3.872284    2.693475    1.390543
     23          1           0        5.434887    2.708951    0.542482
     24          1           0        3.850441   -2.951253   -0.496262
     25          1           0        6.099838   -1.906640   -0.258642
     26          1           0        6.347957    0.503531    0.174646
     27          1           0        1.036265   -2.123114   -0.486431
     28          1           0       -1.109957   -1.989136   -0.065344
     29          1           0       -2.899206    2.625278   -0.122789
     30          1           0       -0.453590    2.268421   -0.064589
     31          1           0       -5.078581    2.483856    0.651751
     32          1           0       -4.981536    2.461064   -1.134979
     33          1           0       -6.394562    1.747636   -0.306960
     34          1           0       -3.853609   -2.220421    1.859702
     35          1           0       -5.196617   -1.317654    1.092054
     36          1           0       -4.991829   -3.063652    0.769452
 ---------------------------------------------------------------------

 SCF Done:  E(UB3LYP) =  -879.592916384     A.U. after   33 cycles
 SCF Done:  E(UB3LYP) =  -879.592916384     a.u. after    1 cycles

 The electronic state is 2-A.
 Alpha  occ. eigenvalues --  -19.04592 -19.03289 -14.23578 -14.15727 -10.12681
 Alpha  occ. eigenvalues --  -10.11497 -10.10821 -10.10565 -10.09997 -10.08856
 Alpha  occ. eigenvalues --  -10.06682 -10.05622 -10.05619 -10.05497 -10.05399
 Alpha  occ. eigenvalues --  -10.05286 -10.05186 -10.05078 -10.05005 -10.04535
 Alpha  occ. eigenvalues --   -0.96757  -0.94275  -0.88842  -0.75205  -0.73944
 Alpha  occ. eigenvalues --   -0.72455  -0.65810  -0.65265  -0.63957  -0.62051
 Alpha  occ. eigenvalues --   -0.59586  -0.57671  -0.56699  -0.51188  -0.50372
 Alpha  occ. eigenvalues --   -0.49308  -0.47448  -0.45933  -0.43007  -0.41167
 Alpha  occ. eigenvalues --   -0.39662  -0.39040  -0.37396  -0.37003  -0.35503
 Alpha  occ. eigenvalues --   -0.35455  -0.33998  -0.33723  -0.32715  -0.32604
 Alpha  occ. eigenvalues --   -0.31257  -0.31055  -0.30577  -0.30082  -0.27832
 Alpha  occ. eigenvalues --   -0.27486  -0.26757  -0.25451  -0.24942  -0.24255
 Alpha  occ. eigenvalues --   -0.23840  -0.23198  -0.22144  -0.20785  -0.18223
 Alpha  occ. eigenvalues --   -0.17688  -0.14769  -0.14062  -0.12668  -0.11169
 Alpha  occ. eigenvalues --   -0.08630   0.04230
 Alpha virt. eigenvalues --    0.05845   0.07298   0.07528   0.08369   0.08657
 Alpha virt. eigenvalues --    0.09225   0.09712   0.10395   0.10630   0.10977
 Alpha virt. eigenvalues --    0.11337   0.11491   0.11704   0.12140   0.12393

  Beta  occ. eigenvalues --  -19.04521 -19.03295 -14.23497 -14.15614 -10.12661
  Beta  occ. eigenvalues --  -10.11485 -10.10900 -10.10275 -10.09763 -10.08885
  Beta  occ. eigenvalues --  -10.06707 -10.05682 -10.05634 -10.05407 -10.05238
  Beta  occ. eigenvalues --  -10.05152 -10.05101 -10.05032 -10.04981 -10.04394
  Beta  occ. eigenvalues --   -0.96606  -0.94257  -0.88641  -0.74985  -0.73699
  Beta  occ. eigenvalues --   -0.72268  -0.65507  -0.65059  -0.63813  -0.61895
  Beta  occ. eigenvalues --   -0.59497  -0.57542  -0.56586  -0.50767  -0.50298
  Beta  occ. eigenvalues --   -0.49195  -0.47333  -0.45765  -0.42916  -0.41034
  Beta  occ. eigenvalues --   -0.39540  -0.38953  -0.37177  -0.36885  -0.35495
  Beta  occ. eigenvalues --   -0.35349  -0.33951  -0.33675  -0.32587  -0.32177
  Beta  occ. eigenvalues --   -0.31155  -0.30974  -0.30496  -0.29799  -0.27797
  Beta  occ. eigenvalues --   -0.27201  -0.26507  -0.25317  -0.24767  -0.24181
  Beta  occ. eigenvalues --   -0.23759  -0.22540  -0.22045  -0.20276  -0.17738
  Beta  occ. eigenvalues --   -0.17529  -0.14612  -0.13401  -0.12043  -0.10522
  Beta  occ. eigenvalues --   -0.07777
  Beta virt. eigenvalues --    0.06328   0.07321   0.07519   0.08317   0.08519
  Beta virt. eigenvalues --    0.08741   0.09377   0.09815   0.10448   0.10702
  Beta virt. eigenvalues --    0.11016   0.11442   0.11769   0.11939   0.12284

 Mulliken charges and spin densities:
               1          2
     1  C   -0.628291  -0.020062
     2  C    0.463005   0.094438
     3  C    0.034401  -0.015416
     4  C    0.295252   0.012339
     5  C   -0.225332   0.049681
     6  C   -0.300637   0.079923
     7  C   -0.496050  -0.023875
     8  N   -0.144072   0.034177
     9  C   -0.175057   0.092070
    10  N   -0.008694   0.057601
    11  C    1.204091  -0.093848
    12  C   -0.637857   0.171400
    13  C   -0.824205   0.091714
    14  C   -0.346864   0.473255
    15  C    0.080669  -0.272083
    16  C   -0.278890  -0.034017
    17  O   -0.219366   0.042240
    18  C    0.251434  -0.573184
    19  O   -0.181943   0.014940
    20  C   -0.040145  -0.264369
    21  H    0.147064   0.009806
    22  H    0.140304   0.017260
    23  H    0.120909   0.000056
    24  H    0.100352  -0.004725
    25  H    0.123373  -0.005734
    26  H    0.079585   0.001877
    27  H    0.272323  -0.004274
    28  H    0.076828   0.009380
    29  H    0.159998   0.000026
    30  H    0.142268   0.017313
    31  H    0.050159   0.097637
    32  H   -0.005072   0.146837
    33  H   -0.344164   0.508208
    34  H    0.031138   0.084713
    35  H    0.017797   0.145303
    36  H    0.065686   0.059392
 Sum of Mulliken charges =  -1.00000   1.00000

 Dipole moment (field-independent basis, Debye):
    X=              1.2705    Y=             -1.6876    Z=              0.2009  Tot=              2.1219
 Quadrupole moment (field-independent basis, Debye-Ang):
   XX=           -211.8159   YY=           -131.4887   ZZ=           -133.7751
   XY=              0.5256   XZ=             -3.6071   YZ=             -0.0893

 Summary of Natural Population Analysis:

                                       Natural Population
                Natural  -----------------------------------------------
    Atom  No    Charge         Core      Valence    Rydberg      Total
 -----------------------------------------------------------------------
      C    1   -0.28712      0.99960     2.28282    0.00471     3.28712
      C    2    0.00237      0.99950     1.98963    0.00850     2.99763
      C    3    0.05460      0.99943     1.93428    0.01169     2.94540
      C    4    0.06146      0.99947     1.92889    0.01018     2.93854
      C    5   -0.11711      0.99954     2.10919    0.00839     3.11711
      C    6   -0.09943      0.99962     2.08946    0.01035     3.09943
      C    7   -0.12166      0.99943     2.11196    0.01027     3.12166
      N    8   -0.27308      0.99963     2.76597    0.00749     3.77308
      C    9    0.24510      0.99959     1.73986    0.01546     2.75490
      N   10   -0.25256      0.99968     2.74430    0.00858     3.75256
      C   11   -0.04687      0.99948     2.03861    0.00878     3.04687
      C   12   -0.07769      0.99950     2.07093    0.00726     3.07769
      C   13    0.11222      0.99934     1.87334    0.01509     2.88778
      C   14    0.18549      0.99935     1.80241    0.01276     2.81451
      C   15   -0.16018      0.99954     2.15312    0.00751     3.16018
      C   16   -0.04873      0.99955     2.04053    0.00864     3.04873
      O   17   -0.27041      0.99986     3.26021    0.01034     4.27041
      C   18   -0.10096      0.99960     2.09175    0.00960     3.10096
      O   19   -0.29052      0.99986     3.28032    0.01034     4.29052
      C   20   -0.09720      0.99959     2.08947    0.00814     3.09720
      H   21    0.10457      0.00000     0.39420    0.00123     0.39543
      H   22    0.10497      0.00000     0.39380    0.00123     0.39503
      H   23    0.09121      0.00000     0.40751    0.00127     0.40879
      H   24    0.09337      0.00000     0.40512    0.00151     0.40663
      H   25    0.09020      0.00000     0.40863    0.00117     0.40980
      H   26    0.09181      0.00000     0.40747    0.00072     0.40819
      H   27    0.19730      0.00000     0.30132    0.00138     0.30270
      H   28    0.09296      0.00000     0.40523    0.00181     0.40704
      H   29    0.09963      0.00000     0.39926    0.00111     0.40037
      H   30    0.10757      0.00000     0.39111    0.00133     0.39243
      H   31    0.08143      0.00000     0.41722    0.00135     0.41857
      H   32    0.08402      0.00000     0.41454    0.00144     0.41598
      H   33    0.09164      0.00000     0.40729    0.00107     0.40836
      H   34    0.07843      0.00000     0.41976    0.00182     0.42157
      H   35    0.08980      0.00000     0.40795    0.00225     0.41020
      H   36    0.08338      0.00000     0.41535    0.00127     0.41662
 =======================================================================
   * Total *    0.00002     19.99117    50.79278    0.21603    70.99998

 Normal termination of Gaussian 16 at Sat Dec 12 17:46:33 2020.
