 Gaussian 16, Revision A.03,

 ----------------------------------------------------------------------
 # opt=(cartesian,calcfc) freq B3LYP/6-31G(d) empiricaldispersion=gd3bj
  scf=xqc
 ----------------------------------------------------------------------

 ------------------------------
 CID_15373831_JID_1827_neutraal
 ------------------------------
 Symbolic Z-matrix:
 Charge =  0 Multiplicity = 1

 SCF Done:  E(RB3LYP) =  -834.620562677     A.U. after   16 cycles
 SCF Done:  E(RB3LYP) =  -834.620668045     A.U. after   11 cycles
 SCF Done:  E(RB3LYP) =  -834.620708602     A.U. after   11 cycles
 SCF Done:  E(RB3LYP) =  -834.620395256     A.U. after   12 cycles
 SCF Done:  E(RB3LYP) =  -834.620690411     A.U. after   11 cycles
 SCF Done:  E(RB3LYP) =  -834.620718894     A.U. after    8 cycles
 SCF Done:  E(RB3LYP) =  -834.620725065     A.U. after   10 cycles
 SCF Done:  E(RB3LYP) =  -834.620745630     A.U. after   10 cycles
 SCF Done:  E(RB3LYP) =  -834.620758420     A.U. after   11 cycles
 SCF Done:  E(RB3LYP) =  -834.620783079     A.U. after   10 cycles
 SCF Done:  E(RB3LYP) =  -834.620807073     A.U. after    7 cycles
 SCF Done:  E(RB3LYP) =  -834.620800434     A.U. after   11 cycles
 SCF Done:  E(RB3LYP) =  -834.620807155     A.U. after    8 cycles
 SCF Done:  E(RB3LYP) =  -834.620807204     A.U. after    7 cycles
 SCF Done:  E(RB3LYP) =  -834.620807226     A.U. after    7 cycles
 Optimization completed.
    -- Stationary point found.
 Normal termination of Gaussian 16 at Mon Jan  4 08:59:05 2021.

 --------------------------------------------------------------------
 #N Geom=AllCheck Guess=TCheck SCRF=Check GenChk RB3LYP/6-31G(d) Freq
 --------------------------------------------------------------------

 Structure from the checkpoint file:  "JID_1827.chk"
 ------------------------------
 CID_15373831_JID_1827_neutraal
 ------------------------------
 Charge =  0 Multiplicity = 1

 SCF Done:  E(RB3LYP) =  -834.620807226     A.U. after    1 cycles

  Exact polarizability: 144.015  -6.684 117.260   0.002  -0.000  58.674
 Approx polarizability: 202.958 -21.068 206.932   0.004  -0.005  89.432

                      1                      2                      3
                      A                      A                      A
 Frequencies --     40.7800                73.9790                91.0168
 Red. masses --      4.0651                 1.7487                 1.0278
 Frc consts  --      0.0040                 0.0056                 0.0050
 IR Inten    --      2.3196                 2.1296                 0.3494

                      4                      5                      6
                      A                      A                      A
 Frequencies --    103.8366               112.3378               125.6537
 Red. masses --      1.7684                 8.1366                 1.0545
 Frc consts  --      0.0112                 0.0605                 0.0098
 IR Inten    --      1.4701                 7.5668                 0.2693

                      7                      8                      9
                      A                      A                      A
 Frequencies --    170.1536               218.9149               221.3740
 Red. masses --      3.7606                 3.6720                 3.7618
 Frc consts  --      0.0641                 0.1037                 0.1086
 IR Inten    --      0.3394                 2.3310                 2.3592

                     10                     11                     12
                      A                      A                      A
 Frequencies --    291.8440               335.0487               338.8716
 Red. masses --      2.6918                 5.1450                 3.2069
 Frc consts  --      0.1351                 0.3403                 0.2170
 IR Inten    --      0.8889                 1.9345                 5.7590

                     13                     14                     15
                      A                      A                      A
 Frequencies --    403.6303               471.3729               483.6787
 Red. masses --      7.0486                 6.9385                11.9233
 Frc consts  --      0.6766                 0.9083                 1.6435
 IR Inten    --      2.2535                 1.0996                 7.3228

                     16                     17                     18
                      A                      A                      A
 Frequencies --    548.5062               567.9019               633.8689
 Red. masses --      6.2390                 7.1257                 6.4809
 Frc consts  --      1.1059                 1.3540                 1.5342
 IR Inten    --      3.3297                 0.3939                 9.9076

                     19                     20                     21
                      A                      A                      A
 Frequencies --    636.8766               665.6540               731.1572
 Red. masses --      5.8232                 4.3646                10.7696
 Frc consts  --      1.3916                 1.1394                 3.3921
 IR Inten    --      3.6519                 5.6899                 8.4273

                     22                     23                     24
                      A                      A                      A
 Frequencies --    868.9795               955.5574              1025.4097
 Red. masses --      3.2983                 3.0567                 1.7655
 Frc consts  --      1.4674                 1.6444                 1.0937
 IR Inten    --      0.5907                 3.6291                 1.2198

                     25                     26                     27
                      A                      A                      A
 Frequencies --   1069.5218              1079.8152              1117.6585
 Red. masses --      1.3810                 1.4879                 1.8168
 Frc consts  --      0.9307                 1.0222                 1.3371
 IR Inten    --      1.3615                 0.4491                34.3469

                     28                     29                     30
                      A                      A                      A
 Frequencies --   1139.3932              1157.9942              1199.8596
 Red. masses --      2.0780                 1.2625                 4.5353
 Frc consts  --      1.5894                 0.9975                 3.8469
 IR Inten    --      2.4239                 0.1171                 2.7384

                     31                     32                     33
                      A                      A                      A
 Frequencies --   1310.3612              1332.3420              1371.4465
 Red. masses --      7.9998                 5.4642                 5.2317
 Frc consts  --      8.0931                 5.7149                 5.7976
 IR Inten    --    127.4333               124.7289                 6.8785

                     34                     35                     36
                      A                      A                      A
 Frequencies --   1438.8442              1454.1324              1475.4822
 Red. masses --      1.3462                 1.2344                 1.1999
 Frc consts  --      1.6421                 1.5379                 1.5391
 IR Inten    --      8.7754                 0.1765                 4.2100

                     37                     38                     39
                      A                      A                      A
 Frequencies --   1501.1875              1505.2167              1509.8780
 Red. masses --      1.0424                 1.0433                 1.0416
 Frc consts  --      1.3840                 1.3927                 1.3990
 IR Inten    --      9.1353                 0.8210                11.6019

                     40                     41                     42
                      A                      A                      A
 Frequencies --   1517.0817              1521.9225              1533.7438
 Red. masses --      1.0725                 1.1077                 1.0976
 Frc consts  --      1.4544                 1.5116                 1.5212
 IR Inten    --      3.9421                 8.7437                 4.6875

                     43                     44                     45
                      A                      A                      A
 Frequencies --   1598.8998              1637.0316              2347.7070
 Red. masses --      6.7550                 5.4378                12.5758
 Frc consts  --     10.1747                 8.5860                40.8389
 IR Inten    --    311.7258                17.7192               189.7364

                     46                     47                     48
                      A                      A                      A
 Frequencies --   3046.5707              3055.8086              3084.3812
 Red. masses --      1.0383                 1.0384                 1.0310
 Frc consts  --      5.6779                 5.7130                 5.7791
 IR Inten    --     36.9493                25.1698                25.0742

                     49                     50                     51
                      A                      A                      A
 Frequencies --   3095.1138              3107.6710              3140.1489
 Red. masses --      1.1021                 1.1013                 1.0990
 Frc consts  --      6.2203                 6.2666                 6.3850
 IR Inten    --     15.3406                15.6662                11.7942

                     52                     53                     54
                      A                      A                      A
 Frequencies --   3152.7900              3157.7362              3191.2387
 Red. masses --      1.0980                 1.1071                 1.1066
 Frc consts  --      6.4304                 6.5040                 6.6401
 IR Inten    --     21.1746                10.0280                 4.6817

 - Thermochemistry -
 -------------------
 Temperature   298.150 Kelvin.  Pressure   1.00000 Atm.
 Atom     1 has atomic number  6 and mass  12.00000

 Molecular mass:   167.05172 amu.
 Principal axes and moments of inertia in atomic units:
                           1         2         3
     Eigenvalues --   981.959522649.538073597.65989
           X            0.99958   0.02910  -0.00001
           Y           -0.02910   0.99958   0.00000
           Z            0.00001  -0.00000   1.00000
 This molecule is an asymmetric top.
 Rotational symmetry number  1.
 Warning -- assumption of classical behavior for rotation
           may cause significant error
 Rotational temperatures (Kelvin)      0.08821     0.03269     0.02408
 Rotational constants (GHZ):           1.83790     0.68115     0.50164
 Zero-point vibrational energy     406535.2 (Joules/Mol)
                                   97.16425 (Kcal/Mol)
 Warning -- explicit consideration of  17 degrees of freedom as
           vibrations may cause significant error
 Vibrational temperatures:     58.67   106.44   130.95   149.40   161.63
          (Kelvin)            180.79   244.81   314.97   318.51   419.90
                              482.06   487.56   580.73   678.20   695.91
                              789.18   817.08   912.00   916.32   957.73
                             1051.97  1250.27  1374.83  1475.34  1538.80
                             1553.61  1608.06  1639.33  1666.10  1726.33
                             1885.32  1916.94  1973.21  2070.18  2092.17
                             2122.89  2159.87  2165.67  2172.38  2182.74
                             2189.71  2206.72  2300.46  2355.32  3377.83
                             4383.34  4396.63  4437.74  4453.18  4471.25
                             4517.97  4536.16  4543.28  4591.48

 Zero-point correction=                           0.154841 (Hartree/Particle)
 Thermal correction to Energy=                    0.167065
 Thermal correction to Enthalpy=                  0.168009
 Thermal correction to Gibbs Free Energy=         0.115561
 Sum of electronic and zero-point Energies=           -834.465966
 Sum of electronic and thermal Energies=              -834.453742
 Sum of electronic and thermal Enthalpies=            -834.452798
 Sum of electronic and thermal Free Energies=         -834.505246

                     E (Thermal)             CV                S
                      KCal/Mol        Cal/Mol-Kelvin    Cal/Mol-Kelvin
 Total                  104.835             42.022            110.386
 Electronic               0.000              0.000              0.000
 Translational            0.889              2.981             41.248
 Rotational               0.889              2.981             30.616
 Vibrational            103.057             36.060             38.523
 Vibration     1          0.594              1.981              5.221
 Vibration     2          0.599              1.966              4.045
 Vibration     3          0.602              1.956              3.638
 Vibration     4          0.605              1.946              3.381
 Vibration     5          0.607              1.939              3.228
 Vibration     6          0.611              1.927              3.012
 Vibration     7          0.625              1.879              2.434
 Vibration     8          0.647              1.812              1.968
 Vibration     9          0.648              1.809              1.948
 Vibration    10          0.687              1.689              1.463
 Vibration    11          0.716              1.606              1.236
 Vibration    12          0.719              1.598              1.217
 Vibration    13          0.769              1.462              0.949
 Vibration    14          0.828              1.314              0.734
 Vibration    15          0.840              1.286              0.700
 Vibration    16          0.904              1.143              0.547
 Vibration    17          0.924              1.101              0.508

 Optimization completed.
    -- Stationary point found.
 Normal termination of Gaussian 16 at Mon Jan  4 09:02:23 2021.

 ----------------------------------------------------------------------
 # B3LYP/6-311++G(d,p) empiricaldispersion=gd3bj scf=xqc pop=npa geom=c
 heck
 ----------------------------------------------------------------------

 --------------------------------------
 CID_15373831_JID_1827_Energie_neutraal
 --------------------------------------
 Structure from the checkpoint file:  "JID_1827.chk"
 Charge =  0 Multiplicity = 1

 SCF Done:  E(RB3LYP) =  -834.765062627     A.U. after   15 cycles
 Normal termination of Gaussian 16 at Mon Jan  4 09:03:38 2021.

 ----------------------------------------------------------------------
 # B3LYP/6-311++G(d,p) empiricaldispersion=gd3bj scf=xqc pop=npa geom=c
 heck
 ----------------------------------------------------------------------

 ------------------------------------
 CID_15373831_JID_1827_Energie_kation
 ------------------------------------
 Structure from the checkpoint file:  "JID_1827.chk"
 Charge =  1 Multiplicity = 2

 SCF Done:  E(UB3LYP) =  -834.471720384     A.U. after   21 cycles
 Normal termination of Gaussian 16 at Mon Jan  4 09:05:52 2021.
 Gaussian 16:  ES64L-G16RevA.03 25-Dec-2016

 ----------------------------------------------------------------------
 # B3LYP/6-311++G(d,p) empiricaldispersion=gd3bj scf=xqc pop=npa geom=c
 heck
 ----------------------------------------------------------------------

 -----------------------------------
 CID_15373831_JID_1827_Energie_anion
 -----------------------------------
 Structure from the checkpoint file:  "JID_1827.chk"
 Charge = -1 Multiplicity = 2

                         Standard orientation:
 ---------------------------------------------------------------------
 Center     Atomic      Atomic             Coordinates (Angstroms)
 Number     Number       Type             X           Y           Z
 ---------------------------------------------------------------------
      1          6           0       -2.740456    1.776796    0.000266
      2          6           0       -1.638337    0.760634    0.000021
      3          6           0       -1.774268   -0.599619   -0.000016
      4         16           0       -0.179211   -1.356883   -0.000200
      5          6           0        0.514333    0.255438   -0.000198
      6          7           0       -0.330781    1.236801   -0.000087
      7          7           0        1.892485    0.468912   -0.000297
      8          6           0        2.387835    1.854853   -0.000057
      9          6           0        2.747528   -0.557042    0.000135
     10          7           0        3.500562   -1.449241    0.000483
     11          6           0       -3.002783   -1.454690    0.000063
     12          1           0       -2.664689    2.422707    0.882562
     13          1           0       -2.664692    2.423152   -0.881699
     14          1           0       -3.728391    1.311116    0.000154
     15          1           0        3.477162    1.824376   -0.000406
     16          1           0        2.022216    2.374332   -0.888755
     17          1           0        2.022730    2.373910    0.889098
     18          1           0       -3.047933   -2.102198    0.884115
     19          1           0       -3.899286   -0.829558    0.000807
     20          1           0       -3.048727   -2.101233   -0.884658
 ---------------------------------------------------------------------

 SCF Done:  E(UB3LYP) =  -834.754161390     A.U. after   33 cycles
 SCF Done:  E(UB3LYP) =  -834.754161390     a.u. after    1 cycles

 The electronic state is 2-A.
 Alpha  occ. eigenvalues --  -88.78374 -14.30527 -14.22215 -14.21270 -10.18088
 Alpha  occ. eigenvalues --  -10.15295 -10.12679 -10.10917 -10.10546 -10.07731
 Alpha  occ. eigenvalues --  -10.06618  -7.86989  -5.83296  -5.82931  -5.82536
 Alpha  occ. eigenvalues --   -0.92786  -0.85846  -0.80852  -0.71597  -0.68445
 Alpha  occ. eigenvalues --   -0.64289  -0.61856  -0.59059  -0.52698  -0.45582
 Alpha  occ. eigenvalues --   -0.44113  -0.39926  -0.39482  -0.34658  -0.34245
 Alpha  occ. eigenvalues --   -0.33818  -0.31412  -0.30881  -0.30586  -0.30393
 Alpha  occ. eigenvalues --   -0.28520  -0.28176  -0.27684  -0.26170  -0.24530
 Alpha  occ. eigenvalues --   -0.19744  -0.18855  -0.17864  -0.11980   0.04237
 Alpha virt. eigenvalues --    0.06043   0.07136   0.07880   0.08154   0.09417
 Alpha virt. eigenvalues --    0.09803   0.10332   0.10409   0.10716   0.11617
 Alpha virt. eigenvalues --    0.12063   0.12911   0.13097   0.14437   0.14494

  Beta  occ. eigenvalues --  -88.78367 -14.30525 -14.22170 -14.21261 -10.18058
  Beta  occ. eigenvalues --  -10.15294 -10.12628 -10.10918 -10.10535 -10.07669
  Beta  occ. eigenvalues --  -10.06568  -7.86980  -5.83278  -5.82925  -5.82532
  Beta  occ. eigenvalues --   -0.92756  -0.85816  -0.80793  -0.71551  -0.68390
  Beta  occ. eigenvalues --   -0.64215  -0.61770  -0.59004  -0.52640  -0.45508
  Beta  occ. eigenvalues --   -0.44064  -0.39851  -0.39444  -0.34578  -0.34201
  Beta  occ. eigenvalues --   -0.33755  -0.31358  -0.30825  -0.30510  -0.30345
  Beta  occ. eigenvalues --   -0.28453  -0.28112  -0.27647  -0.26050  -0.24416
  Beta  occ. eigenvalues --   -0.19712  -0.18828  -0.17849  -0.11947
  Beta virt. eigenvalues --    0.06633   0.07134   0.07212   0.08507   0.08687
  Beta virt. eigenvalues --    0.10119   0.10167   0.10913   0.11096   0.11100
  Beta virt. eigenvalues --    0.12007   0.12579   0.13084   0.13477   0.14612

 Mulliken charges and spin densities:
               1          2
     1  C    1.723075  -2.523618
     2  C   -3.087342   1.513376
     3  C    0.444241   1.173471
     4  S    0.347406  -0.558995
     5  C   -1.281690   1.054748
     6  N   -0.112604   0.154330
     7  N   -0.062503   0.219045
     8  C    0.982642  -1.314779
     9  C    0.156796   0.016744
    10  N   -0.295950   0.009784
    11  C    3.184295  -3.230707
    12  H   -0.276110   0.440067
    13  H   -0.275841   0.439777
    14  H   -0.362763   0.473118
    15  H   -0.142846   0.295892
    16  H   -0.411316   0.617270
    17  H   -0.411260   0.617256
    18  H   -0.404841   0.558063
    19  H   -0.308279   0.486780
    20  H   -0.405109   0.558379
 Sum of Mulliken charges =  -1.00000   1.00000

 Dipole moment (field-independent basis, Debye):
    X=              2.7156    Y=             -1.3159    Z=             -0.0012  Tot=              3.0176
 Quadrupole moment (field-independent basis, Debye-Ang):
   XX=           -146.2638   YY=           -124.4178   ZZ=            -97.8421
   XY=              0.6421   XZ=             -0.0033   YZ=             -0.0010

 Summary of Natural Population Analysis:

                                       Natural Population
                Natural  -----------------------------------------------
    Atom  No    Charge         Core      Valence    Rydberg      Total
 -----------------------------------------------------------------------
      C    1   -0.29037      0.99962     2.28528    0.00546     3.29037
      C    2    0.06353      0.99941     1.92201    0.01506     2.93647
      C    3   -0.10559      0.99943     2.09308    0.01308     3.10559
      S    4    0.18801      4.99941     2.79401    0.01857     7.81199
      C    5    0.13920      0.99956     1.84157    0.01967     2.86080
      N    6   -0.26271      0.99962     2.75074    0.01235     3.76271
      N    7   -0.26186      0.99956     2.75178    0.01052     3.76186
      C    8   -0.16671      0.99963     2.15889    0.00818     3.16671
      C    9    0.22572      0.99962     1.75760    0.01706     2.77428
      N   10   -0.19392      0.99979     2.68529    0.00884     3.69392
      C   11   -0.29864      0.99961     2.29198    0.00705     3.29864
      H   12    0.10768      0.00000     0.39043    0.00189     0.39232
      H   13    0.10768      0.00000     0.39043    0.00189     0.39232
      H   14    0.10443      0.00000     0.39393    0.00164     0.39557
      H   15    0.10201      0.00000     0.39682    0.00117     0.39799
      H   16    0.10760      0.00000     0.39030    0.00210     0.39240
      H   17    0.10758      0.00000     0.39032    0.00210     0.39242
      H   18    0.10702      0.00000     0.39126    0.00172     0.39298
      H   19    0.11232      0.00000     0.38574    0.00194     0.38768
      H   20    0.10702      0.00000     0.39126    0.00172     0.39298
 =======================================================================
   * Total *    0.00000     14.99525    28.85272    0.15202    44.00000

 Normal termination of Gaussian 16 at Mon Jan  4 09:09:21 2021.
