 Gaussian 16, Revision A.03,

 -----------------------------------------------------------
 # opt freq B3LYP/6-31G(d) empiricaldispersion=gd3bj scf=xqc
 -----------------------------------------------------------

 -------------------------------
 CID_104887209_JID_4957_neutraal
 -------------------------------
 Symbolic Z-matrix:
 Charge =  0 Multiplicity = 1

 SCF Done:  E(RB3LYP) =  -648.013523397     A.U. after   14 cycles
 SCF Done:  E(RB3LYP) =  -648.021920891     A.U. after   12 cycles
 SCF Done:  E(RB3LYP) =  -648.024325486     A.U. after   12 cycles
 SCF Done:  E(RB3LYP) =  -648.026069446     A.U. after   12 cycles
 SCF Done:  E(RB3LYP) =  -648.026538998     A.U. after   12 cycles
 SCF Done:  E(RB3LYP) =  -648.026615249     A.U. after   11 cycles
 SCF Done:  E(RB3LYP) =  -648.026648309     A.U. after   10 cycles
 SCF Done:  E(RB3LYP) =  -648.026656467     A.U. after    9 cycles
 SCF Done:  E(RB3LYP) =  -648.026659152     A.U. after    9 cycles
 SCF Done:  E(RB3LYP) =  -648.026659758     A.U. after    7 cycles
 Optimization completed.
    -- Stationary point found.
 Normal termination of Gaussian 16 at Thu Dec 10 10:59:35 2020.

 --------------------------------------------------------------------
 #N Geom=AllCheck Guess=TCheck SCRF=Check GenChk RB3LYP/6-31G(d) Freq
 --------------------------------------------------------------------

 Structure from the checkpoint file:  "JID_4957.chk"
 -------------------------------
 CID_104887209_JID_4957_neutraal
 -------------------------------
 Charge =  0 Multiplicity = 1

 SCF Done:  E(RB3LYP) =  -648.026659758     A.U. after    1 cycles

  Exact polarizability: 135.786  -8.672 124.398  -0.487  -4.713 102.748
 Approx polarizability: 179.973 -16.518 183.483  -2.567 -14.827 153.705

                      1                      2                      3
                      A                      A                      A
 Frequencies --     54.7671                61.5332                96.3997
 Red. masses --      3.5457                 3.0164                 3.6498
 Frc consts  --      0.0063                 0.0067                 0.0200
 IR Inten    --      0.2852                 0.0513                 1.1165

                      4                      5                      6
                      A                      A                      A
 Frequencies --    125.7479               139.8642               151.4358
 Red. masses --      2.6773                 2.6786                 2.4247
 Frc consts  --      0.0249                 0.0309                 0.0328
 IR Inten    --      5.1664                 1.6104                 0.7391

                      7                      8                      9
                      A                      A                      A
 Frequencies --    201.7274               235.9657               243.0996
 Red. masses --      2.5384                 1.2455                 2.5122
 Frc consts  --      0.0609                 0.0409                 0.0875
 IR Inten    --      0.0895                 4.3076                10.5424

                     10                     11                     12
                      A                      A                      A
 Frequencies --    268.7587               294.6758               346.6128
 Red. masses --      1.7003                 3.3372                 2.1556
 Frc consts  --      0.0724                 0.1707                 0.1526
 IR Inten    --     12.1912                 6.8455                 2.6753

                     13                     14                     15
                      A                      A                      A
 Frequencies --    362.1748               393.3069               436.8865
 Red. masses --      3.1230                 2.3004                 2.5110
 Frc consts  --      0.2414                 0.2097                 0.2824
 IR Inten    --      3.6792                 3.7848                 8.7243

                     16                     17                     18
                      A                      A                      A
 Frequencies --    461.3738               498.9876               551.4245
 Red. masses --      3.3953                 3.4922                 3.4266
 Frc consts  --      0.4258                 0.5123                 0.6139
 IR Inten    --      7.0433                 2.8965                34.1350

                     19                     20                     21
                      A                      A                      A
 Frequencies --    573.9057               621.4566               703.8797
 Red. masses --      3.3694                 3.1219                 4.1150
 Frc consts  --      0.6539                 0.7104                 1.2012
 IR Inten    --     22.3441                26.8855                21.8158

                     22                     23                     24
                      A                      A                      A
 Frequencies --    744.3704               765.0549               792.2967
 Red. masses --      2.2818                 3.5038                 4.1671
 Frc consts  --      0.7449                 1.2083                 1.5412
 IR Inten    --     59.2238                 3.4471                 2.0460

                     25                     26                     27
                      A                      A                      A
 Frequencies --    805.8824               824.1856               831.8868
 Red. masses --      2.0059                 1.2569                 2.0869
 Frc consts  --      0.7675                 0.5030                 0.8509
 IR Inten    --     11.5792                 2.0582                 2.0625

                     28                     29                     30
                      A                      A                      A
 Frequencies --    838.3242               890.1693               906.9848
 Red. masses --      2.7030                 2.8362                 2.4294
 Frc consts  --      1.1192                 1.3241                 1.1775
 IR Inten    --      3.8437                 1.9246                23.1805

                     31                     32                     33
                      A                      A                      A
 Frequencies --    929.9661               942.1558               963.5714
 Red. masses --      2.3138                 1.9486                 2.2516
 Frc consts  --      1.1790                 1.0191                 1.2317
 IR Inten    --      2.7059                 2.0872                60.8149

                     34                     35                     36
                      A                      A                      A
 Frequencies --    991.3790              1021.0444              1023.3193
 Red. masses --      2.4872                 2.1806                 2.0083
 Frc consts  --      1.4403                 1.3394                 1.2391
 IR Inten    --     95.1744                27.7432                18.5690

                     37                     38                     39
                      A                      A                      A
 Frequencies --   1042.5150              1070.9776              1080.2406
 Red. masses --      3.4080                 2.8068                 2.1723
 Frc consts  --      2.1823                 1.8968                 1.4935
 IR Inten    --     32.6254                 5.4990                 4.2248

                     40                     41                     42
                      A                      A                      A
 Frequencies --   1108.4861              1120.2843              1154.2341
 Red. masses --      2.2999                 1.9739                 2.0992
 Frc consts  --      1.6650                 1.4596                 1.6478
 IR Inten    --     25.2186                12.2859                 2.8367

                     43                     44                     45
                      A                      A                      A
 Frequencies --   1179.7551              1198.5091              1210.0861
 Red. masses --      1.6408                 1.2293                 2.8681
 Frc consts  --      1.3455                 1.0404                 2.4744
 IR Inten    --     11.3496                 2.6978                44.1622

                     46                     47                     48
                      A                      A                      A
 Frequencies --   1231.1341              1258.6156              1270.0993
 Red. masses --      1.9404                 1.2803                 1.3684
 Frc consts  --      1.7328                 1.1949                 1.3006
 IR Inten    --     19.9334                 8.7758                11.3504

                     49                     50                     51
                      A                      A                      A
 Frequencies --   1282.5246              1308.5997              1317.4061
 Red. masses --      1.3397                 1.7931                 1.1550
 Frc consts  --      1.2983                 1.8092                 1.1811
 IR Inten    --     13.7690               124.4113                 4.5797

                     52                     53                     54
                      A                      A                      A
 Frequencies --   1322.4940              1341.8659              1351.4580
 Red. masses --      1.2816                 1.4256                 1.3189
 Frc consts  --      1.3206                 1.5124                 1.4193
 IR Inten    --     15.4405                 0.4299                20.4898

                     55                     56                     57
                      A                      A                      A
 Frequencies --   1358.2540              1366.5539              1387.6636
 Red. masses --      1.3272                 1.6288                 1.3446
 Frc consts  --      1.4426                 1.7922                 1.5254
 IR Inten    --     18.3614                58.1286                64.9735

                     58                     59                     60
                      A                      A                      A
 Frequencies --   1392.0129              1397.4400              1425.6940
 Red. masses --      1.3397                 1.5186                 1.3635
 Frc consts  --      1.5295                 1.7472                 1.6329
 IR Inten    --      0.5789                 0.9354                 3.7727

                     61                     62                     63
                      A                      A                      A
 Frequencies --   1433.9985              1453.2368              1489.3440
 Red. masses --      1.2416                 2.1205                 1.2411
 Frc consts  --      1.5043                 2.6385                 1.6220
 IR Inten    --      7.5580               123.5303                 5.8443

                     64                     65                     66
                      A                      A                      A
 Frequencies --   1492.5551              1511.7041              1515.2456
 Red. masses --      1.1362                 1.1449                 1.0967
 Frc consts  --      1.4913                 1.5416                 1.4836
 IR Inten    --     11.0340                13.5984                 0.6831

                     67                     68                     69
                      A                      A                      A
 Frequencies --   1519.7731              1533.3105              1537.7081
 Red. masses --      1.0497                 1.0629                 1.1017
 Frc consts  --      1.4285                 1.4723                 1.5348
 IR Inten    --      2.7168                 1.7454                 9.2937

                     70                     71                     72
                      A                      A                      A
 Frequencies --   1558.3250              1709.0120              1736.2613
 Red. masses --      1.0893                 5.8801                 1.0633
 Frc consts  --      1.5585                10.1188                 1.8886
 IR Inten    --      6.8365               416.0854                18.2647

                     73                     74                     75
                      A                      A                      A
 Frequencies --   2948.8910              3036.8835              3040.5457
 Red. masses --      1.0734                 1.0696                 1.0702
 Frc consts  --      5.4998                 5.8123                 5.8293
 IR Inten    --     88.9536                20.7817                90.2284

                     76                     77                     78
                      A                      A                      A
 Frequencies --   3045.6215              3058.9607              3079.0612
 Red. masses --      1.0372                 1.0866                 1.0624
 Frc consts  --      5.6684                 5.9903                 5.9342
 IR Inten    --     18.8753                37.5684                12.0464

                     79                     80                     81
                      A                      A                      A
 Frequencies --   3087.0963              3097.8290              3107.1038
 Red. masses --      1.0667                 1.0860                 1.0872
 Frc consts  --      5.9894                 6.1405                 6.1840
 IR Inten    --     32.2003                63.8704                48.8279

                     82                     83                     84
                      A                      A                      A
 Frequencies --   3112.1935              3123.6640              3126.8706
 Red. masses --      1.1022                 1.1050                 1.1023
 Frc consts  --      6.2896                 6.3525                 6.3500
 IR Inten    --     63.2171                31.3691                28.0718

                     85                     86                     87
                      A                      A                      A
 Frequencies --   3139.7252              3151.2732              3161.9667
 Red. masses --      1.0954                 1.1045                 1.0936
 Frc consts  --      6.3625                 6.4621                 6.4422
 IR Inten    --     12.9030                10.6624                 3.6748

                     88                     89                     90
                      A                      A                      A
 Frequencies --   3447.3039              3532.9232              3604.0631
 Red. masses --      1.0480                 1.0945                 1.0757
 Frc consts  --      7.3382                 8.0488                 8.2324
 IR Inten    --      4.4031                 0.2578                12.6112

 - Thermochemistry -
 -------------------
 Temperature   298.150 Kelvin.  Pressure   1.00000 Atm.
 Atom     1 has atomic number  6 and mass  12.00000

 Molecular mass:   198.14806 amu.
 Principal axes and moments of inertia in atomic units:
                           1         2         3
     Eigenvalues --  1702.440643323.071564033.49087
           X            0.99980  -0.02004  -0.00260
           Y            0.02008   0.99972   0.01282
           Z            0.00235  -0.01287   0.99991
 This molecule is an asymmetric top.
 Rotational symmetry number  1.
 Warning -- assumption of classical behavior for rotation
           may cause significant error
 Rotational temperatures (Kelvin)      0.05088     0.02606     0.02147
 Rotational constants (GHZ):           1.06009     0.54309     0.44744
 Zero-point vibrational energy     751637.2 (Joules/Mol)
                                  179.64561 (Kcal/Mol)
 Warning -- explicit consideration of  19 degrees of freedom as
           vibrations may cause significant error
 Vibrational temperatures:     78.80    88.53   138.70   180.92   201.23
          (Kelvin)            217.88   290.24   339.50   349.77   386.68
                              423.97   498.70   521.09   565.88   628.58
                              663.81   717.93   793.38   825.72   894.14
                             1012.73  1070.98  1100.74  1139.94  1159.48
                             1185.82  1196.90  1206.16  1280.76  1304.95
                             1338.01  1355.55  1386.36  1426.37  1469.06
                             1472.33  1499.95  1540.90  1554.23  1594.86
                             1611.84  1660.69  1697.40  1724.39  1741.04
                             1771.33  1810.87  1827.39  1845.27  1882.78
                             1895.45  1902.77  1930.65  1944.45  1954.22
                             1966.17  1996.54  2002.80  2010.60  2051.26
                             2063.20  2090.88  2142.83  2147.45  2175.01
                             2180.10  2186.61  2206.09  2212.42  2242.08
                             2458.89  2498.09  4242.80  4369.40  4374.67
                             4381.97  4401.16  4430.08  4441.64  4457.09
                             4470.43  4477.75  4494.26  4498.87  4517.36
                             4533.98  4549.36  4959.90  5083.09  5185.44

 Zero-point correction=                           0.286283 (Hartree/Particle)
 Thermal correction to Energy=                    0.299647
 Thermal correction to Enthalpy=                  0.300591
 Thermal correction to Gibbs Free Energy=         0.246551
 Sum of electronic and zero-point Energies=           -647.740376
 Sum of electronic and thermal Energies=              -647.727013
 Sum of electronic and thermal Enthalpies=            -647.726069
 Sum of electronic and thermal Free Energies=         -647.780109

                     E (Thermal)             CV                S
                      KCal/Mol        Cal/Mol-Kelvin    Cal/Mol-Kelvin
 Total                  188.031             52.184            113.736
 Electronic               0.000              0.000              0.000
 Translational            0.889              2.981             41.756
 Rotational               0.889              2.981             31.501
 Vibrational            186.254             46.222             40.478
 Vibration     1          0.596              1.976              4.637
 Vibration     2          0.597              1.973              4.407
 Vibration     3          0.603              1.952              3.526
 Vibration     4          0.611              1.927              3.010
 Vibration     5          0.615              1.913              2.806
 Vibration     6          0.619              1.901              2.654
 Vibration     7          0.639              1.837              2.117
 Vibration     8          0.655              1.786              1.833
 Vibration     9          0.659              1.774              1.780
 Vibration    10          0.673              1.731              1.604
 Vibration    11          0.689              1.684              1.447
 Vibration    12          0.725              1.582              1.182
 Vibration    13          0.736              1.550              1.113
 Vibration    14          0.761              1.484              0.988
 Vibration    15          0.797              1.390              0.836
 Vibration    16          0.819              1.336              0.762
 Vibration    17          0.854              1.252              0.661
 Vibration    18          0.907              1.137              0.541
 Vibration    19          0.930              1.088              0.497

                           ! Non-Optimized Parameters !
 Normal termination of Gaussian 16 at Thu Dec 10 11:10:36 2020.

 ----------------------------------------------------------------------
 # B3LYP/6-311++G(d,p) empiricaldispersion=gd3bj scf=xqc pop=npa geom=c
 heck
 ----------------------------------------------------------------------

 ---------------------------------------
 CID_104887209_JID_4957_Energie_neutraal
 ---------------------------------------
 Structure from the checkpoint file:  "JID_4957.chk"
 Charge =  0 Multiplicity = 1

 SCF Done:  E(RB3LYP) =  -648.214749058     A.U. after   14 cycles
 Normal termination of Gaussian 16 at Thu Dec 10 11:14:43 2020.

 ----------------------------------------------------------------------
 # B3LYP/6-311++G(d,p) empiricaldispersion=gd3bj scf=xqc pop=npa geom=c
 heck
 ----------------------------------------------------------------------

 -------------------------------------
 CID_104887209_JID_4957_Energie_kation
 -------------------------------------
 Structure from the checkpoint file:  "JID_4957.chk"
 Charge =  1 Multiplicity = 2

 SCF Done:  E(UB3LYP) =  -647.932201712     A.U. after   23 cycles
 Normal termination of Gaussian 16 at Thu Dec 10 11:23:03 2020.
 Gaussian 16:  ES64L-G16RevA.03 25-Dec-2016

 ----------------------------------------------------------------------
 # B3LYP/6-311++G(d,p) empiricaldispersion=gd3bj scf=xqc pop=npa geom=c
 heck
 ----------------------------------------------------------------------

 ------------------------------------
 CID_104887209_JID_4957_Energie_anion
 ------------------------------------
 Structure from the checkpoint file:  "JID_4957.chk"
 Charge = -1 Multiplicity = 2

                         Standard orientation:
 ---------------------------------------------------------------------
 Center     Atomic      Atomic             Coordinates (Angstroms)
 Number     Number       Type             X           Y           Z
 ---------------------------------------------------------------------
      1          6           0        3.201950   -1.757942   -0.772198
      2          6           0        2.890930   -1.062525    0.559529
      3          7           0        1.479946   -0.751120    0.691751
      4          6           0        1.021166    0.376985    0.278392
      5          7           0        1.733126    1.326162   -0.478357
      6          7           0        1.704485    2.702797   -0.097966
      7          7           0       -0.280707    0.772050    0.570390
      8          6           0       -1.110607    1.402879   -0.464032
      9          6           0       -2.189238    0.424676   -0.953521
     10          6           0       -1.579610   -0.903497   -1.455994
     11          6           0       -1.556173   -1.783950   -0.178701
     12          6           0       -2.129130   -0.839054    0.897652
     13          6           0       -1.047380    0.015655    1.565732
     14          8           0       -2.999931    0.042393    0.163793
     15          1           0        2.571138   -2.645456   -0.886557
     16          1           0        4.252278   -2.067768   -0.820979
     17          1           0        2.998880   -1.096744   -1.623271
     18          1           0        3.159392   -1.738319    1.380625
     19          1           0        3.540756   -0.175234    0.673610
     20          1           0        2.691728    1.049913   -0.642865
     21          1           0        0.947234    3.153744   -0.607794
     22          1           0        1.460451    2.768246    0.891007
     23          1           0       -1.601187    2.294985   -0.052296
     24          1           0       -0.474530    1.698105   -1.300487
     25          1           0       -2.841733    0.917870   -1.680186
     26          1           0       -0.581800   -0.761410   -1.881413
     27          1           0       -2.216500   -1.340882   -2.229653
     28          1           0       -0.548122   -2.114965    0.078140
     29          1           0       -2.202390   -2.658411   -0.294679
     30          1           0       -2.738487   -1.341367    1.654051
     31          1           0       -0.346804   -0.599235    2.130806
     32          1           0       -1.540254    0.729208    2.239723
 ---------------------------------------------------------------------

 SCF Done:  E(UB3LYP) =  -648.202284492     A.U. after   31 cycles

 The electronic state is 2-A.
 Alpha  occ. eigenvalues --  -19.02010 -14.24553 -14.22859 -14.22707 -14.17189
 Alpha  occ. eigenvalues --  -10.16005 -10.11880 -10.11806 -10.09780 -10.09400
 Alpha  occ. eigenvalues --  -10.09348 -10.06645 -10.06332 -10.06221  -0.94611
 Alpha  occ. eigenvalues --   -0.90313  -0.83615  -0.78912  -0.68703  -0.67978
 Alpha  occ. eigenvalues --   -0.67470  -0.64478  -0.59467  -0.56897  -0.52605
 Alpha  occ. eigenvalues --   -0.49341  -0.48255  -0.44646  -0.43035  -0.40920
 Alpha  occ. eigenvalues --   -0.40136  -0.39288  -0.37429  -0.36381  -0.35113
 Alpha  occ. eigenvalues --   -0.34311  -0.33435  -0.32217  -0.31260  -0.30512
 Alpha  occ. eigenvalues --   -0.30435  -0.27981  -0.26867  -0.26250  -0.25421
 Alpha  occ. eigenvalues --   -0.24279  -0.23269  -0.22232  -0.22009  -0.19546
 Alpha  occ. eigenvalues --   -0.16928  -0.14352  -0.14086  -0.11370   0.04352
 Alpha virt. eigenvalues --    0.06630   0.06979   0.07488   0.09014   0.09101
 Alpha virt. eigenvalues --    0.09423   0.09737   0.09962   0.11274   0.11583
 Alpha virt. eigenvalues --    0.12183   0.12622   0.12845   0.12935   0.13527

  Beta  occ. eigenvalues --  -19.02008 -14.24541 -14.22801 -14.22705 -14.17174
  Beta  occ. eigenvalues --  -10.15981 -10.11875 -10.11795 -10.09750 -10.09386
  Beta  occ. eigenvalues --  -10.09338 -10.06630 -10.06308 -10.06212  -0.94598
  Beta  occ. eigenvalues --   -0.90265  -0.83576  -0.78877  -0.68627  -0.67943
  Beta  occ. eigenvalues --   -0.67433  -0.64433  -0.59430  -0.56859  -0.52556
  Beta  occ. eigenvalues --   -0.49312  -0.48218  -0.44606  -0.42969  -0.40863
  Beta  occ. eigenvalues --   -0.40090  -0.39228  -0.37392  -0.36342  -0.35091
  Beta  occ. eigenvalues --   -0.34281  -0.33398  -0.32197  -0.31216  -0.30474
  Beta  occ. eigenvalues --   -0.30403  -0.27945  -0.26841  -0.26215  -0.25396
  Beta  occ. eigenvalues --   -0.24247  -0.23216  -0.22204  -0.21987  -0.19507
  Beta  occ. eigenvalues --   -0.16898  -0.14314  -0.14036  -0.11336
  Beta virt. eigenvalues --    0.06457   0.07315   0.07828   0.08036   0.09344
  Beta virt. eigenvalues --    0.09586   0.09737   0.10281   0.10333   0.11674
  Beta virt. eigenvalues --    0.12090   0.12276   0.13023   0.13110   0.13157

 Mulliken charges and spin densities:
               1          2
     1  C    0.345977  -0.748161
     2  C   -0.307774  -0.000843
     3  N   -0.142294   0.068412
     4  C    0.018549  -0.643083
     5  N   -0.406208   0.144912
     6  N   -0.231154  -0.004050
     7  N    0.070215   0.130399
     8  C    0.349133  -0.636337
     9  C    0.468515  -0.628436
    10  C    0.193893  -0.408825
    11  C    0.299760  -0.865301
    12  C   -0.706338   0.824479
    13  C    0.785071  -1.137639
    14  O   -0.122105  -0.015213
    15  H    0.071024   0.070209
    16  H   -0.171343   0.303915
    17  H   -0.211727   0.347486
    18  H   -0.124082   0.272807
    19  H   -0.113425   0.228993
    20  H    0.254634   0.025235
    21  H   -0.178058   0.416286
    22  H   -0.046596   0.314635
    23  H   -0.328871   0.537364
    24  H   -0.112485   0.265140
    25  H   -0.605023   0.843006
    26  H    0.019814   0.127497
    27  H   -0.177110   0.372403
    28  H    0.259751  -0.102398
    29  H   -0.099248   0.266851
    30  H   -0.122758   0.344196
    31  H    0.191823  -0.013942
    32  H   -0.121558   0.300002
 Sum of Mulliken charges =  -1.00000   1.00000

 Dipole moment (field-independent basis, Debye):
    X=              0.0841    Y=             -3.3850    Z=              1.7425  Tot=              3.8081
 Quadrupole moment (field-independent basis, Debye-Ang):
   XX=           -149.4303   YY=           -136.3892   ZZ=           -120.5062
   XY=              1.7203   XZ=             -2.8722   YZ=              0.6090

 Summary of Natural Population Analysis:

                                       Natural Population
                Natural  -----------------------------------------------
    Atom  No    Charge         Core      Valence    Rydberg      Total
 -----------------------------------------------------------------------
      C    1   -0.28800      0.99966     2.28404    0.00429     3.28800
      C    2   -0.09697      0.99962     2.08648    0.01087     3.09697
      N    3   -0.30548      0.99964     2.79480    0.01104     3.80548
      C    4    0.31738      0.99952     1.66536    0.01774     2.68262
      N    5   -0.25522      0.99967     2.74124    0.01430     3.75522
      N    6   -0.31717      0.99978     2.80641    0.01097     3.81717
      N    7   -0.27463      0.99966     2.75955    0.01542     3.77463
      C    8   -0.09550      0.99957     2.08236    0.01357     3.09550
      C    9    0.05488      0.99956     1.92915    0.01641     2.94512
      C   10   -0.20429      0.99962     2.19661    0.00806     3.20429
      C   11   -0.21145      0.99962     2.20356    0.00828     3.21145
      C   12    0.05638      0.99956     1.92973    0.01434     2.94362
      C   13   -0.09493      0.99958     2.08402    0.01134     3.09493
      O   14   -0.30617      0.99990     3.29779    0.00847     4.30617
      H   15    0.09912      0.00000     0.39955    0.00133     0.40088
      H   16    0.09587      0.00000     0.40268    0.00145     0.40413
      H   17    0.09488      0.00000     0.40362    0.00149     0.40512
      H   18    0.09037      0.00000     0.40811    0.00152     0.40963
      H   19    0.07691      0.00000     0.42077    0.00232     0.42309
      H   20    0.18560      0.00000     0.31151    0.00289     0.31440
      H   21    0.17508      0.00000     0.32160    0.00332     0.32492
      H   22    0.17205      0.00000     0.32434    0.00361     0.32795
      H   23    0.09957      0.00000     0.39808    0.00235     0.40043
      H   24    0.10780      0.00000     0.39004    0.00216     0.39220
      H   25    0.09763      0.00000     0.40039    0.00197     0.40237
      H   26    0.10389      0.00000     0.39481    0.00130     0.39611
      H   27    0.10192      0.00000     0.39685    0.00124     0.39808
      H   28    0.11662      0.00000     0.38169    0.00169     0.38338
      H   29    0.09847      0.00000     0.40048    0.00105     0.40153
      H   30    0.09344      0.00000     0.40543    0.00114     0.40656
      H   31    0.11589      0.00000     0.38264    0.00147     0.38411
      H   32    0.09605      0.00000     0.40274    0.00121     0.40395
 =======================================================================
   * Total *    0.00000     13.99497    39.80643    0.19860    54.00000

 Normal termination of Gaussian 16 at Thu Dec 10 11:34:32 2020.
