 Gaussian 16, Revision A.03,

 -----------------------------------------------------------
 # opt freq B3LYP/6-31G(d) empiricaldispersion=gd3bj scf=xqc
 -----------------------------------------------------------

 ------------------------------
 CID_55196207_JID_9281_neutraal
 ------------------------------
 Symbolic Z-matrix:
 Charge =  0 Multiplicity = 1

 SCF Done:  E(RB3LYP) =  -1169.24354683     A.U. after   16 cycles
 SCF Done:  E(RB3LYP) =  -1169.24917521     A.U. after   14 cycles
 SCF Done:  E(RB3LYP) =  -1169.24879491     A.U. after   13 cycles
 SCF Done:  E(RB3LYP) =  -1169.25014168     A.U. after   12 cycles
 SCF Done:  E(RB3LYP) =  -1169.25059887     A.U. after   13 cycles
 SCF Done:  E(RB3LYP) =  -1169.25087991     A.U. after   11 cycles
 SCF Done:  E(RB3LYP) =  -1169.25115315     A.U. after   12 cycles
 SCF Done:  E(RB3LYP) =  -1169.25120945     A.U. after   11 cycles
 SCF Done:  E(RB3LYP) =  -1169.25128361     A.U. after   12 cycles
 SCF Done:  E(RB3LYP) =  -1169.25131602     A.U. after   11 cycles
 SCF Done:  E(RB3LYP) =  -1169.25138110     A.U. after   12 cycles
 SCF Done:  E(RB3LYP) =  -1169.25140083     A.U. after   11 cycles
 SCF Done:  E(RB3LYP) =  -1169.25140323     A.U. after   10 cycles
 SCF Done:  E(RB3LYP) =  -1169.25140375     A.U. after    9 cycles
 SCF Done:  E(RB3LYP) =  -1169.25140382     A.U. after    9 cycles
 Optimization completed.
    -- Stationary point found.
 Normal termination of Gaussian 16 at Sat Dec 12 10:20:07 2020.

 --------------------------------------------------------------------
 #N Geom=AllCheck Guess=TCheck SCRF=Check GenChk RB3LYP/6-31G(d) Freq
 --------------------------------------------------------------------

 Structure from the checkpoint file:  "JID_9281.chk"
 ------------------------------
 CID_55196207_JID_9281_neutraal
 ------------------------------
 Charge =  0 Multiplicity = 1

 SCF Done:  E(RB3LYP) =  -1169.25140382     A.U. after    1 cycles

  Exact polarizability: 250.744 -12.234 180.549 -16.121 -19.405 149.408
 Approx polarizability: 355.599 -16.077 283.914 -28.653 -57.369 259.565

                      1                      2                      3
                      A                      A                      A
 Frequencies --     18.6712                25.1671                36.0074
 Red. masses --      3.6869                 3.1599                 2.6980
 Frc consts  --      0.0008                 0.0012                 0.0021
 IR Inten    --      0.0766                 0.2944                 1.8677

                      4                      5                      6
                      A                      A                      A
 Frequencies --     37.5687                46.3990                67.5372
 Red. masses --      1.1531                 4.6510                 3.7560
 Frc consts  --      0.0010                 0.0059                 0.0101
 IR Inten    --      0.5869                 0.5237                 0.1521

                      7                      8                      9
                      A                      A                      A
 Frequencies --     87.9179               102.8121               124.2820
 Red. masses --      3.8118                 4.4157                 4.4282
 Frc consts  --      0.0174                 0.0275                 0.0403
 IR Inten    --      1.2524                 0.1034                 1.9299

                     10                     11                     12
                      A                      A                      A
 Frequencies --    152.3984               164.5446               193.8858
 Red. masses --      4.1116                 3.4957                 2.7133
 Frc consts  --      0.0563                 0.0558                 0.0601
 IR Inten    --      0.5044                 0.8279                 0.9828

                     13                     14                     15
                      A                      A                      A
 Frequencies --    203.8104               218.0042               239.6972
 Red. masses --      1.5828                 1.7048                 1.8824
 Frc consts  --      0.0387                 0.0477                 0.0637
 IR Inten    --      1.3196                 0.2558                 0.4940

                     16                     17                     18
                      A                      A                      A
 Frequencies --    276.0332               321.3360               326.1472
 Red. masses --      2.9141                 3.4815                 2.7613
 Frc consts  --      0.1308                 0.2118                 0.1731
 IR Inten    --      1.5507                 0.7300                 1.0857

                     19                     20                     21
                      A                      A                      A
 Frequencies --    354.1153               362.4156               381.3084
 Red. masses --      4.2647                 4.9069                 3.9913
 Frc consts  --      0.3151                 0.3797                 0.3419
 IR Inten    --      5.9041                 0.5960                 2.2432

                     22                     23                     24
                      A                      A                      A
 Frequencies --    398.3054               427.9265               465.4790
 Red. masses --      3.7788                 4.3978                 4.4796
 Frc consts  --      0.3532                 0.4745                 0.5719
 IR Inten    --      1.9184                 1.6492                 5.1332

                     25                     26                     27
                      A                      A                      A
 Frequencies --    504.3147               521.0601               552.7877
 Red. masses --      3.9795                 4.6633                 3.7994
 Frc consts  --      0.5963                 0.7460                 0.6840
 IR Inten    --      2.7911                 3.5687                21.6871

                     28                     29                     30
                      A                      A                      A
 Frequencies --    574.6487               611.1710               623.8612
 Red. masses --      3.7822                 4.2193                 3.9340
 Frc consts  --      0.7359                 0.9286                 0.9021
 IR Inten    --      1.0840                 3.6587                 1.7336

                     31                     32                     33
                      A                      A                      A
 Frequencies --    670.4427               695.8686               714.7832
 Red. masses --      5.3621                 6.6511                 4.7187
 Frc consts  --      1.4201                 1.8976                 1.4204
 IR Inten    --      7.4545                 5.8931                 4.8019

                     34                     35                     36
                      A                      A                      A
 Frequencies --    736.4857               755.6830               783.4369
 Red. masses --      4.1334                 5.1451                 3.9137
 Frc consts  --      1.3210                 1.7311                 1.4153
 IR Inten    --     18.4615                 5.1207                17.5430

                     37                     38                     39
                      A                      A                      A
 Frequencies --    801.9732               821.6974               827.1863
 Red. masses --      1.2671                 1.3625                 1.2433
 Frc consts  --      0.4801                 0.5420                 0.5012
 IR Inten    --      1.4451                29.1235                 1.5194

                     40                     41                     42
                      A                      A                      A
 Frequencies --    833.4595               849.9003               916.3796
 Red. masses --      1.3723                 4.6318                 1.3618
 Frc consts  --      0.5617                 1.9712                 0.6738
 IR Inten    --     16.9231                29.3784                 1.2607

                     43                     44                     45
                      A                      A                      A
 Frequencies --    923.2058               923.5827               948.0562
 Red. masses --      1.8562                 1.7703                 1.3276
 Frc consts  --      0.9321                 0.8897                 0.7031
 IR Inten    --      4.8754                 4.2019                 0.6899

                     46                     47                     48
                      A                      A                      A
 Frequencies --    960.1526               981.3995              1033.3047
 Red. masses --      2.1854                 3.0939                 1.5385
 Frc consts  --      1.1870                 1.7557                 0.9679
 IR Inten    --      0.8781                18.8406                10.3689

                     49                     50                     51
                      A                      A                      A
 Frequencies --   1049.0787              1072.5669              1078.4847
 Red. masses --      1.9405                 3.2832                 1.6386
 Frc consts  --      1.2583                 2.2254                 1.1229
 IR Inten    --     29.0380                52.3105                 5.6771

                     52                     53                     54
                      A                      A                      A
 Frequencies --   1086.4798              1099.2071              1126.6711
 Red. masses --      1.5954                 1.5449                 2.0823
 Frc consts  --      1.1096                 1.0998                 1.5574
 IR Inten    --     12.0957                 8.1889                 8.6583

                     55                     56                     57
                      A                      A                      A
 Frequencies --   1147.4952              1189.7737              1195.0550
 Red. masses --      2.7902                 1.5280                 2.8363
 Frc consts  --      2.1646                 1.2744                 2.3866
 IR Inten    --     29.5587                22.2540                13.5137

                     58                     59                     60
                      A                      A                      A
 Frequencies --   1204.3023              1221.9384              1249.9405
 Red. masses --      1.6640                 2.3700                 1.7598
 Frc consts  --      1.4219                 2.0850                 1.6199
 IR Inten    --      7.1505                32.9876                34.1495

                     61                     62                     63
                      A                      A                      A
 Frequencies --   1276.6554              1290.9175              1308.8253
 Red. masses --      1.9532                 2.8952                 1.4112
 Frc consts  --      1.8757                 2.8426                 1.4243
 IR Inten    --     82.3921               147.2025                16.2671

                     64                     65                     66
                      A                      A                      A
 Frequencies --   1331.4022              1336.6397              1357.4302
 Red. masses --      1.6767                 1.7076                 2.1938
 Frc consts  --      1.7511                 1.7975                 2.3817
 IR Inten    --    118.2083                40.6469                34.1770

                     67                     68                     69
                      A                      A                      A
 Frequencies --   1362.9782              1398.6550              1420.0114
 Red. masses --      1.9089                 2.5163                 1.2844
 Frc consts  --      2.0894                 2.9003                 1.5260
 IR Inten    --     91.9144                20.2837                 5.2231

                     70                     71                     72
                      A                      A                      A
 Frequencies --   1436.6435              1443.3642              1444.6608
 Red. masses --      1.2288                 1.2857                 1.2791
 Frc consts  --      1.4943                 1.5782                 1.5728
 IR Inten    --      4.7049                21.3204                 9.6609

                     73                     74                     75
                      A                      A                      A
 Frequencies --   1458.7323              1507.6542              1512.4266
 Red. masses --      3.1376                 3.6414                 1.1760
 Frc consts  --      3.9337                 4.8767                 1.5849
 IR Inten    --     50.5518               148.9271                14.2823

                     76                     77                     78
                      A                      A                      A
 Frequencies --   1516.0826              1517.6904              1525.8746
 Red. masses --      1.0445                 1.0488                 1.0430
 Frc consts  --      1.4145                 1.4234                 1.4307
 IR Inten    --      3.3950                 7.1981                 7.2603

                     79                     80                     81
                      A                      A                      A
 Frequencies --   1526.5995              1530.8396              1535.8765
 Red. masses --      1.1113                 1.0618                 1.1115
 Frc consts  --      1.5260                 1.4661                 1.5448
 IR Inten    --     10.0043                 6.1660                20.2293

                     82                     83                     84
                      A                      A                      A
 Frequencies --   1540.9798              1551.2291              1595.1415
 Red. masses --      1.5798                 1.5848                 5.5572
 Frc consts  --      2.2102                 2.2469                 8.3311
 IR Inten    --     62.7370                83.8207                33.4944

                     85                     86                     87
                      A                      A                      A
 Frequencies --   1635.1675              1669.8383              1728.5787
 Red. masses --      6.1842                 6.0170                12.6372
 Frc consts  --      9.7423                 9.8850                22.2473
 IR Inten    --     30.9744                42.5043               198.7547

                     88                     89                     90
                      A                      A                      A
 Frequencies --   3040.9989              3043.5952              3053.8336
 Red. masses --      1.0406                 1.0627                 1.0517
 Frc consts  --      5.6698                 5.7998                 5.7786
 IR Inten    --     42.9388                29.4827                 8.9549

                     91                     92                     93
                      A                      A                      A
 Frequencies --   3054.0465              3061.1131              3084.4429
 Red. masses --      1.0470                 1.0367                 1.1006
 Frc consts  --      5.7538                 5.7233                 6.1690
 IR Inten    --     46.2590                17.7380                 8.1802

                     94                     95                     96
                      A                      A                      A
 Frequencies --   3097.9584              3110.3171              3124.8078
 Red. masses --      1.0957                 1.1013                 1.1027
 Frc consts  --      6.1958                 6.2770                 6.3436
 IR Inten    --     22.2580                10.9334                16.2519

                     97                     98                     99
                      A                      A                      A
 Frequencies --   3125.0020              3130.1526              3130.8917
 Red. masses --      1.1028                 1.1037                 1.1006
 Frc consts  --      6.3452                 6.3715                 6.3563
 IR Inten    --     47.5566                27.5499                29.1150

                    100                    101                    102
                      A                      A                      A
 Frequencies --   3145.3304              3181.4964              3198.1222
 Red. masses --      1.1039                 1.0893                 1.0901
 Frc consts  --      6.4347                 6.4964                 6.5693
 IR Inten    --     32.4827                19.2029                 5.8976

                    103                    104                    105
                      A                      A                      A
 Frequencies --   3213.6777              3229.7318              3246.6313
 Red. masses --      1.0914                 1.0910                 1.0948
 Frc consts  --      6.6412                 6.7054                 6.7990
 IR Inten    --     12.7616                12.9365                 1.4245

 - Thermochemistry -
 -------------------
 Temperature   298.150 Kelvin.  Pressure   1.00000 Atm.
 Atom     1 has atomic number  6 and mass  12.00000

 Molecular mass:   274.10275 amu.
 Principal axes and moments of inertia in atomic units:
                           1         2         3
     Eigenvalues --  3634.336927904.743719330.46405
           X            0.99992  -0.01236  -0.00148
           Y            0.01240   0.99949   0.02937
           Z            0.00111  -0.02939   0.99957
 This molecule is an asymmetric top.
 Rotational symmetry number  1.
 Warning -- assumption of classical behavior for rotation
           may cause significant error
 Rotational temperatures (Kelvin)      0.02383     0.01096     0.00928
 Rotational constants (GHZ):           0.49658     0.22831     0.19342
 Zero-point vibrational energy     797614.0 (Joules/Mol)
                                  190.63432 (Kcal/Mol)
 Warning -- explicit consideration of  29 degrees of freedom as
           vibrations may cause significant error
 Vibrational temperatures:     26.86    36.21    51.81    54.05    66.76
          (Kelvin)             97.17   126.49   147.92   178.81   219.27
                              236.74   278.96   293.24   313.66   344.87
                              397.15   462.33   469.25   509.49   521.44
                              548.62   573.07   615.69   669.72   725.60
                              749.69   795.34   826.79   879.34   897.60
                              964.62  1001.20  1028.41  1059.64  1087.26
                             1127.19  1153.86  1182.24  1190.14  1199.16
                             1222.82  1318.47  1328.29  1328.83  1364.04
                             1381.45  1412.01  1486.69  1509.39  1543.18
                             1551.70  1563.20  1581.51  1621.03  1650.99
                             1711.82  1719.42  1732.72  1758.10  1798.39
                             1836.82  1857.34  1883.11  1915.59  1923.13
                             1953.04  1961.02  2012.35  2043.08  2067.01
                             2076.68  2078.54  2098.79  2169.18  2176.04
                             2181.30  2183.62  2195.39  2196.44  2202.54
                             2209.78  2217.13  2231.87  2295.05  2352.64
                             2402.52  2487.04  4375.32  4379.05  4393.79
                             4394.09  4404.26  4437.83  4457.27  4475.05
                             4495.90  4496.18  4503.59  4504.65  4525.43
                             4577.46  4601.38  4623.77  4646.86  4671.18

 Zero-point correction=                           0.303795 (Hartree/Particle)
 Thermal correction to Energy=                    0.323294
 Thermal correction to Enthalpy=                  0.324238
 Thermal correction to Gibbs Free Energy=         0.252679
 Sum of electronic and zero-point Energies=          -1168.947609
 Sum of electronic and thermal Energies=             -1168.928110
 Sum of electronic and thermal Enthalpies=           -1168.927166
 Sum of electronic and thermal Free Energies=        -1168.998724

                     E (Thermal)             CV                S
                      KCal/Mol        Cal/Mol-Kelvin    Cal/Mol-Kelvin
 Total                  202.870             71.329            150.607
 Electronic               0.000              0.000              0.000
 Translational            0.889              2.981             42.724
 Rotational               0.889              2.981             33.949
 Vibrational            201.092             65.367             73.934
 Vibration     1          0.593              1.986              6.771
 Vibration     2          0.593              1.985              6.178
 Vibration     3          0.594              1.982              5.467
 Vibration     4          0.594              1.982              5.383
 Vibration     5          0.595              1.979              4.965
 Vibration     6          0.598              1.970              4.224
 Vibration     7          0.601              1.958              3.706
 Vibration     8          0.605              1.947              3.400
 Vibration     9          0.610              1.929              3.033
 Vibration    10          0.619              1.900              2.642
 Vibration    11          0.623              1.886              2.497
 Vibration    12          0.635              1.848              2.190
 Vibration    13          0.639              1.834              2.098
 Vibration    14          0.646              1.814              1.976
 Vibration    15          0.657              1.780              1.805
 Vibration    16          0.678              1.718              1.558
 Vibration    17          0.707              1.633              1.303
 Vibration    18          0.710              1.623              1.279
 Vibration    19          0.730              1.567              1.148
 Vibration    20          0.736              1.550              1.112
 Vibration    21          0.751              1.510              1.034
 Vibration    22          0.765              1.474              0.969
 Vibration    23          0.789              1.409              0.865
 Vibration    24          0.823              1.327              0.750
 Vibration    25          0.860              1.240              0.647
 Vibration    26          0.876              1.203              0.608
 Vibration    27          0.908              1.134              0.538
 Vibration    28          0.931              1.086              0.495
 Vibration    29          0.970              1.008              0.431

 Optimization completed.
    -- Stationary point found.
 Normal termination of Gaussian 16 at Sat Dec 12 10:37:39 2020.

 ----------------------------------------------------------------------
 # B3LYP/6-311++G(d,p) empiricaldispersion=gd3bj scf=xqc pop=npa geom=c
 heck
 ----------------------------------------------------------------------

 --------------------------------------
 CID_55196207_JID_9281_Energie_neutraal
 --------------------------------------
 Structure from the checkpoint file:  "JID_9281.chk"
 Charge =  0 Multiplicity = 1

 SCF Done:  E(RB3LYP) =  -1169.48348954     A.U. after   17 cycles
 Normal termination of Gaussian 16 at Sat Dec 12 10:47:02 2020.

 ----------------------------------------------------------------------
 # B3LYP/6-311++G(d,p) empiricaldispersion=gd3bj scf=xqc pop=npa geom=c
 heck
 ----------------------------------------------------------------------

 ------------------------------------
 CID_55196207_JID_9281_Energie_kation
 ------------------------------------
 Structure from the checkpoint file:  "JID_9281.chk"
 Charge =  1 Multiplicity = 2

 SCF Done:  E(UB3LYP) =  -1169.20159322     A.U. after   33 cycles
 SCF Done:  E(UB3LYP) =  -1169.20159322     a.u. after    1 cycles
 Normal termination of Gaussian 16 at Sat Dec 12 11:14:24 2020.
 Gaussian 16:  ES64L-G16RevA.03 25-Dec-2016

 ----------------------------------------------------------------------
 # B3LYP/6-311++G(d,p) empiricaldispersion=gd3bj scf=xqc pop=npa geom=c
 heck
 ----------------------------------------------------------------------

 -----------------------------------
 CID_55196207_JID_9281_Energie_anion
 -----------------------------------
 Structure from the checkpoint file:  "JID_9281.chk"
 Charge = -1 Multiplicity = 2

                         Standard orientation:
 ---------------------------------------------------------------------
 Center     Atomic      Atomic             Coordinates (Angstroms)
 Number     Number       Type             X           Y           Z
 ---------------------------------------------------------------------
      1          6           0       -4.456867    1.322499   -1.380229
      2          6           0       -4.306719   -0.207737   -1.354856
      3          6           0       -3.224942   -0.682435   -0.428835
      4          6           0       -3.365451   -1.374948    0.752270
      5          6           0       -2.131843   -1.646875    1.395841
      6          6           0       -1.042238   -1.145694    0.719335
      7         16           0       -1.548670   -0.340547   -0.750511
      8          6           0        0.362817   -1.342891    1.116929
      9          8           0        0.642042   -2.147735    1.999965
     10          6           0        1.452812   -0.629262    0.371382
     11          6           0        1.467229    0.767266    0.185489
     12          6           0        2.515175    1.350115   -0.533932
     13          6           0        3.537909    0.551379   -1.045917
     14          6           0        3.564154   -0.831323   -0.844003
     15          6           0        2.514303   -1.395312   -0.114477
     16          6           0        4.670704   -1.689453   -1.406977
     17          8           0        0.451581    1.458769    0.775113
     18          6           0        0.263422    2.842968    0.477112
     19          6           0        1.082145    3.739562    1.397180
     20          1           0       -4.671735    1.706215   -0.377466
     21          1           0       -5.272276    1.621284   -2.047857
     22          1           0       -3.536550    1.800997   -1.731897
     23          1           0       -5.248871   -0.666179   -1.032418
     24          1           0       -4.116370   -0.571169   -2.373172
     25          1           0       -4.332718   -1.681057    1.137252
     26          1           0       -2.017586   -2.193802    2.323965
     27          1           0        2.557293    2.422524   -0.680628
     28          1           0        4.343535    1.025510   -1.601526
     29          1           0        2.497662   -2.464040    0.080361
     30          1           0        5.576734   -1.102448   -1.589752
     31          1           0        4.929153   -2.505238   -0.723442
     32          1           0        4.378331   -2.146533   -2.361593
     33          1           0        0.482174    3.031510   -0.581142
     34          1           0       -0.806371    3.011935    0.629179
     35          1           0        2.156409    3.578910    1.267202
     36          1           0        0.862831    4.793357    1.190566
     37          1           0        0.832426    3.531537    2.442052
 ---------------------------------------------------------------------

 SCF Done:  E(UB3LYP) =  -1169.49793284     A.U. after   30 cycles

 The electronic state is 2-A.
 Alpha  occ. eigenvalues --  -88.71962 -19.03201 -18.91741 -10.12698 -10.10981
 Alpha  occ. eigenvalues --  -10.07733 -10.07062 -10.06791 -10.06665 -10.06027
 Alpha  occ. eigenvalues --  -10.05764 -10.05458 -10.05316 -10.05196 -10.04259
 Alpha  occ. eigenvalues --  -10.04045 -10.03786 -10.03286 -10.01563  -7.80650
 Alpha  occ. eigenvalues --   -5.76937  -5.76587  -5.76258  -0.95082  -0.85902
 Alpha  occ. eigenvalues --   -0.73717  -0.73475  -0.67960  -0.66587  -0.64794
 Alpha  occ. eigenvalues --   -0.63140  -0.59021  -0.58131  -0.57758  -0.53473
 Alpha  occ. eigenvalues --   -0.52310  -0.50137  -0.46860  -0.44392  -0.42088
 Alpha  occ. eigenvalues --   -0.40053  -0.38771  -0.37822  -0.35879  -0.34758
 Alpha  occ. eigenvalues --   -0.34444  -0.34140  -0.32857  -0.31778  -0.31713
 Alpha  occ. eigenvalues --   -0.31308  -0.30324  -0.29053  -0.28569  -0.27675
 Alpha  occ. eigenvalues --   -0.27145  -0.26745  -0.25904  -0.25543  -0.24814
 Alpha  occ. eigenvalues --   -0.24156  -0.23144  -0.22926  -0.22400  -0.21074
 Alpha  occ. eigenvalues --   -0.20189  -0.19728  -0.19333  -0.13329  -0.11314
 Alpha  occ. eigenvalues --   -0.10097  -0.08914  -0.08410   0.03852
 Alpha virt. eigenvalues --    0.06788   0.07258   0.07680   0.09139   0.09179
 Alpha virt. eigenvalues --    0.09730   0.09895   0.10286   0.10728   0.10978
 Alpha virt. eigenvalues --    0.11204   0.12021   0.12525   0.12695   0.12763

  Beta  occ. eigenvalues --  -88.71917 -19.03193 -18.91170 -10.12697 -10.10919
  Beta  occ. eigenvalues --  -10.07732 -10.06812 -10.06741 -10.06662 -10.05996
  Beta  occ. eigenvalues --  -10.05795 -10.05473 -10.05072 -10.05027 -10.04172
  Beta  occ. eigenvalues --  -10.04034 -10.03760 -10.03383 -10.01347  -7.80610
  Beta  occ. eigenvalues --   -5.76917  -5.76566  -5.76110  -0.95051  -0.84880
  Beta  occ. eigenvalues --   -0.73558  -0.73238  -0.67915  -0.66450  -0.64766
  Beta  occ. eigenvalues --   -0.62891  -0.58826  -0.57842  -0.57576  -0.53429
  Beta  occ. eigenvalues --   -0.51949  -0.49937  -0.46727  -0.44005  -0.41961
  Beta  occ. eigenvalues --   -0.39834  -0.38684  -0.37612  -0.35778  -0.34672
  Beta  occ. eigenvalues --   -0.34368  -0.34035  -0.32708  -0.31702  -0.31690
  Beta  occ. eigenvalues --   -0.31178  -0.30307  -0.29014  -0.28329  -0.27556
  Beta  occ. eigenvalues --   -0.26921  -0.26389  -0.25748  -0.25147  -0.24526
  Beta  occ. eigenvalues --   -0.23833  -0.22943  -0.22523  -0.22208  -0.20911
  Beta  occ. eigenvalues --   -0.19510  -0.19180  -0.18178  -0.12751  -0.10653
  Beta  occ. eigenvalues --   -0.09700  -0.08109  -0.07154
  Beta virt. eigenvalues --    0.06739   0.07171   0.07648   0.09106   0.09132
  Beta virt. eigenvalues --    0.09366   0.09786   0.09920   0.10720   0.10960
  Beta virt. eigenvalues --    0.11160   0.11234   0.11976   0.12494   0.12720

 Mulliken charges and spin densities:
               1          2
     1  C   -0.316519  -0.169155
     2  C   -0.694224   0.113013
     3  C    0.307258   0.080027
     4  C    0.052806  -0.088743
     5  C    0.212409   0.190146
     6  C    0.019732  -0.054216
     7  S   -0.504828   0.136816
     8  C   -0.859909   0.218010
     9  O   -0.379160   0.207920
    10  C    1.507948  -0.068171
    11  C   -0.836609   0.070884
    12  C    0.075535  -0.023930
    13  C   -0.967559   0.109486
    14  C    0.431609  -0.011245
    15  C   -0.066339   0.063746
    16  C   -0.545174   0.011126
    17  O    0.013728   0.012161
    18  C   -0.126566   0.000560
    19  C   -0.543198   0.000591
    20  H    0.114165   0.011870
    21  H   -0.000477   0.099411
    22  H    0.128307   0.005489
    23  H    0.117084   0.012507
    24  H    0.063439   0.086744
    25  H    0.108333   0.007687
    26  H    0.151012  -0.015404
    27  H    0.139384   0.002292
    28  H    0.107461  -0.007617
    29  H    0.194764  -0.000786
    30  H    0.121997  -0.000470
    31  H    0.131664   0.001054
    32  H    0.150389  -0.000870
    33  H    0.121128  -0.000430
    34  H    0.163801  -0.000184
    35  H    0.131720  -0.000247
    36  H    0.107897   0.000159
    37  H    0.166993  -0.000231
 Sum of Mulliken charges =  -1.00000   1.00000

 Dipole moment (field-independent basis, Debye):
    X=              0.9268    Y=              6.0638    Z=             -3.0442  Tot=              6.8481
 Quadrupole moment (field-independent basis, Debye-Ang):
   XX=           -155.4669   YY=           -138.3672   ZZ=           -144.2790
   XY=              1.8046   XZ=             -6.3503   YZ=              9.7530

 Summary of Natural Population Analysis:

                                       Natural Population
                Natural  -----------------------------------------------
    Atom  No    Charge         Core      Valence    Rydberg      Total
 -----------------------------------------------------------------------
      C    1   -0.27876      0.99967     2.27392    0.00517     3.27876
      C    2   -0.20365      0.99959     2.19521    0.00884     3.20365
      C    3   -0.05225      0.99951     2.03967    0.01307     3.05225
      C    4   -0.16053      0.99947     2.15168    0.00938     3.16053
      C    5   -0.06783      0.99949     2.05827    0.01007     3.06783
      C    6   -0.12794      0.99944     2.11565    0.01285     3.12794
      S    7    0.20905      4.99937     2.77154    0.02004     7.79095
      C    8    0.28741      0.99952     1.69150    0.02157     2.71259
      O    9   -0.24132      0.99988     3.23571    0.00572     4.24132
      C   10   -0.05680      0.99945     2.04675    0.01060     3.05680
      C   11    0.17540      0.99934     1.81297    0.01229     2.82460
      C   12   -0.15278      0.99953     2.14542    0.00783     3.15278
      C   13   -0.07622      0.99953     2.06809    0.00860     3.07622
      C   14   -0.04674      0.99951     2.03936    0.00786     3.04674
      C   15   -0.06048      0.99949     2.05277    0.00822     3.06048
      C   16   -0.28772      0.99964     2.28351    0.00457     3.28772
      O   17   -0.27299      0.99985     3.26207    0.01107     4.27299
      C   18   -0.01053      0.99959     2.00061    0.01033     3.01053
      C   19   -0.29921      0.99967     2.29573    0.00381     3.29921
      H   20    0.09613      0.00000     0.40245    0.00142     0.40387
      H   21    0.08841      0.00000     0.40961    0.00197     0.41159
      H   22    0.09765      0.00000     0.40088    0.00147     0.40235
      H   23    0.09680      0.00000     0.40153    0.00167     0.40320
      H   24    0.09791      0.00000     0.40009    0.00200     0.40209
      H   25    0.09494      0.00000     0.40394    0.00112     0.40506
      H   26    0.10648      0.00000     0.39231    0.00120     0.39352
      H   27    0.09481      0.00000     0.40362    0.00157     0.40519
      H   28    0.08840      0.00000     0.41019    0.00142     0.41160
      H   29    0.10215      0.00000     0.39636    0.00150     0.39785
      H   30    0.09488      0.00000     0.40420    0.00092     0.40512
      H   31    0.09932      0.00000     0.39975    0.00093     0.40068
      H   32    0.09744      0.00000     0.40149    0.00107     0.40256
      H   33    0.08164      0.00000     0.41690    0.00147     0.41836
      H   34    0.09131      0.00000     0.40757    0.00112     0.40869
      H   35    0.10002      0.00000     0.39888    0.00110     0.39998
      H   36    0.09363      0.00000     0.40546    0.00091     0.40637
      H   37    0.10198      0.00000     0.39705    0.00097     0.39802
 =======================================================================
   * Total *   -0.00000     22.99155    49.79270    0.21575    73.00000

 Normal termination of Gaussian 16 at Sat Dec 12 11:36:05 2020.
