 Gaussian 16, Revision A.03,

 -----------------------------------------------------------
 # opt freq B3LYP/6-31G(d) empiricaldispersion=gd3bj scf=xqc
 -----------------------------------------------------------

 -------------------------------
 CID_152197916_JID_1804_neutraal
 -------------------------------
 Symbolic Z-matrix:
 Charge =  0 Multiplicity = 1

 SCF Done:  E(RB3LYP) =  -584.627441180     A.U. after   16 cycles
 SCF Done:  E(RB3LYP) =  -584.629140530     A.U. after   14 cycles
 SCF Done:  E(RB3LYP) =  -584.630772485     A.U. after   14 cycles
 SCF Done:  E(RB3LYP) =  -584.630747306     A.U. after   14 cycles
 SCF Done:  E(RB3LYP) =  -584.630995388     A.U. after   12 cycles
 SCF Done:  E(RB3LYP) =  -584.630972743     A.U. after   13 cycles
 SCF Done:  E(RB3LYP) =  -584.631011388     A.U. after   13 cycles
 SCF Done:  E(RB3LYP) =  -584.631000050     A.U. after   12 cycles
 SCF Done:  E(RB3LYP) =  -584.631013219     A.U. after   10 cycles
 SCF Done:  E(RB3LYP) =  -584.631014915     A.U. after    9 cycles
 SCF Done:  E(RB3LYP) =  -584.631015257     A.U. after    9 cycles
 SCF Done:  E(RB3LYP) =  -584.631015287     A.U. after    8 cycles
 Optimization completed.
    -- Stationary point found.
 Normal termination of Gaussian 16 at Tue Dec  8 20:19:41 2020.

 --------------------------------------------------------------------
 #N Geom=AllCheck Guess=TCheck SCRF=Check GenChk RB3LYP/6-31G(d) Freq
 --------------------------------------------------------------------

 Structure from the checkpoint file:  "JID_1804.chk"
 -------------------------------
 CID_152197916_JID_1804_neutraal
 -------------------------------
 Charge =  0 Multiplicity = 1

 SCF Done:  E(RB3LYP) =  -584.631015287     A.U. after    1 cycles

  Exact polarizability:  74.707  -5.085  88.599   2.135   9.231  63.438
 Approx polarizability:  95.580 -13.978 178.698   3.758  34.546 106.666

                      1                      2                      3
                      A                      A                      A
 Frequencies --     28.0370                39.8032                69.4478
 Red. masses --      9.2602                 9.0324                 9.1304
 Frc consts  --      0.0043                 0.0084                 0.0259
 IR Inten    --      1.6503                 1.8606                 1.3250

                      4                      5                      6
                      A                      A                      A
 Frequencies --     83.8980               143.9216               181.6683
 Red. masses --      5.9287                 5.4296                 6.0372
 Frc consts  --      0.0246                 0.0663                 0.1174
 IR Inten    --      0.5182                 1.7779                 1.7304

                      7                      8                      9
                      A                      A                      A
 Frequencies --    233.6076               271.3586               330.5684
 Red. masses --      5.1151                 1.0686                 5.3096
 Frc consts  --      0.1645                 0.0464                 0.3418
 IR Inten    --      6.3671                 0.3788                 3.0567

                     10                     11                     12
                      A                      A                      A
 Frequencies --    367.5063               423.8599               430.4809
 Red. masses --      3.8371                 2.8187                 3.3083
 Frc consts  --      0.3053                 0.2984                 0.3612
 IR Inten    --      1.5047                 2.4904                 5.0808

                     13                     14                     15
                      A                      A                      A
 Frequencies --    500.8222               534.1165               568.3945
 Red. masses --      5.1008                 4.9268                13.5887
 Frc consts  --      0.7538                 0.8281                 2.5866
 IR Inten    --      7.7000                16.5267                10.9630

                     16                     17                     18
                      A                      A                      A
 Frequencies --    601.9034               675.5599               701.2936
 Red. masses --      3.0322                 1.9105                 2.7863
 Frc consts  --      0.6472                 0.5137                 0.8074
 IR Inten    --     55.1591                55.4256                76.1372

                     19                     20                     21
                      A                      A                      A
 Frequencies --    730.1694               798.4142               840.4473
 Red. masses --      3.7207                 3.8420                 4.7873
 Frc consts  --      1.1687                 1.4430                 1.9924
 IR Inten    --     37.3249                 3.8862                 5.9980

                     22                     23                     24
                      A                      A                      A
 Frequencies --    914.1488               931.9721              1042.5973
 Red. masses --      3.4355                 1.9781                 2.3170
 Frc consts  --      1.6915                 1.0123                 1.4839
 IR Inten    --      9.0332                 2.1536                38.7814

                     25                     26                     27
                      A                      A                      A
 Frequencies --   1064.4491              1139.7822              1153.1154
 Red. masses --      1.7239                 2.1602                 2.4904
 Frc consts  --      1.1508                 1.6535                 1.9510
 IR Inten    --     30.0894               139.6546                24.7953

                     28                     29                     30
                      A                      A                      A
 Frequencies --   1214.7936              1271.1350              1287.3681
 Red. masses --      1.8515                 1.3840                 1.5864
 Frc consts  --      1.6099                 1.3175                 1.5491
 IR Inten    --    117.4274                22.6608                54.3060

                     31                     32                     33
                      A                      A                      A
 Frequencies --   1338.6577              1390.4623              1405.0665
 Red. masses --      2.7058                 1.4299                 1.8033
 Frc consts  --      2.8569                 1.6288                 2.0975
 IR Inten    --    111.0084                 9.6910                 7.7975

                     34                     35                     36
                      A                      A                      A
 Frequencies --   1419.4445              1446.7564              1493.8550
 Red. masses --      1.9940                 1.2478                 1.1316
 Frc consts  --      2.3671                 1.5388                 1.4878
 IR Inten    --      9.7313                12.3853                 6.6828

                     37                     38                     39
                      A                      A                      A
 Frequencies --   1520.2667              1533.4881              1822.2898
 Red. masses --      1.0449                 1.0472                11.8618
 Frc consts  --      1.4228                 1.4510                23.2080
 IR Inten    --     13.6695                 2.2087               268.5944

                     40                     41                     42
                      A                      A                      A
 Frequencies --   1823.9647              2261.3792              3061.1614
 Red. masses --     10.9297                13.8452                 1.0387
 Frc consts  --     21.4235                41.7154                 5.7345
 IR Inten    --     17.5921               414.7699                 6.9094

                     43                     44                     45
                      A                      A                      A
 Frequencies --   3091.8777              3100.9659              3130.5059
 Red. masses --      1.0664                 1.0781                 1.0989
 Frc consts  --      6.0066                 6.1078                 6.3453
 IR Inten    --      1.8841                13.9369                27.1130

                     46                     47                     48
                      A                      A                      A
 Frequencies --   3151.8457              3154.5101              3683.1733
 Red. masses --      1.1054                 1.1045                 1.0643
 Frc consts  --      6.4702                 6.4755                 8.5063
 IR Inten    --      4.5954                 9.5817                65.1297

 - Thermochemistry -
 -------------------
 Temperature   298.150 Kelvin.  Pressure   1.00000 Atm.
 Atom     1 has atomic number  6 and mass  12.00000

 Molecular mass:   157.04874 amu.
 Principal axes and moments of inertia in atomic units:
                           1         2         3
     Eigenvalues --  1021.949082247.233412618.38563
           X            0.99966   0.02593   0.00222
           Y           -0.02591   0.99964  -0.00655
           Z           -0.00239   0.00649   0.99998
 This molecule is an asymmetric top.
 Rotational symmetry number  1.
 Warning -- assumption of classical behavior for rotation
           may cause significant error
 Rotational temperatures (Kelvin)      0.08475     0.03854     0.03308
 Rotational constants (GHZ):           1.76598     0.80309     0.68926
 Zero-point vibrational energy     349335.4 (Joules/Mol)
                                   83.49315 (Kcal/Mol)
 Warning -- explicit consideration of  16 degrees of freedom as
           vibrations may cause significant error
 Vibrational temperatures:     40.34    57.27    99.92   120.71   207.07
          (Kelvin)            261.38   336.11   390.42   475.61   528.76
                              609.84   619.37   720.57   768.47   817.79
                              866.00   971.98  1009.01  1050.55  1148.74
                             1209.22  1315.26  1340.90  1500.06  1531.50
                             1639.89  1659.08  1747.82  1828.88  1852.24
                             1926.03  2000.57  2021.58  2042.26  2081.56
                             2149.32  2187.32  2206.35  2621.87  2624.28
                             3253.62  4404.33  4448.52  4461.60  4504.10
                             4534.80  4538.64  5299.26

 Zero-point correction=                           0.133055 (Hartree/Particle)
 Thermal correction to Energy=                    0.144229
 Thermal correction to Enthalpy=                  0.145173
 Thermal correction to Gibbs Free Energy=         0.094216
 Sum of electronic and zero-point Energies=           -584.497960
 Sum of electronic and thermal Energies=              -584.486787
 Sum of electronic and thermal Enthalpies=            -584.485843
 Sum of electronic and thermal Free Energies=         -584.536799

                     E (Thermal)             CV                S
                      KCal/Mol        Cal/Mol-Kelvin    Cal/Mol-Kelvin
 Total                   90.505             38.765            107.247
 Electronic               0.000              0.000              0.000
 Translational            0.889              2.981             41.063
 Rotational               0.889              2.981             30.176
 Vibrational             88.727             32.804             36.008
 Vibration     1          0.593              1.984              5.964
 Vibration     2          0.594              1.981              5.269
 Vibration     3          0.598              1.969              4.169
 Vibration     4          0.601              1.960              3.798
 Vibration     5          0.616              1.909              2.751
 Vibration     6          0.630              1.865              2.311
 Vibration     7          0.654              1.789              1.851
 Vibration     8          0.675              1.726              1.588
 Vibration     9          0.713              1.614              1.257
 Vibration    10          0.740              1.539              1.090
 Vibration    11          0.786              1.418              0.879
 Vibration    12          0.792              1.404              0.857
 Vibration    13          0.856              1.248              0.656
 Vibration    14          0.889              1.175              0.578
 Vibration    15          0.924              1.100              0.507
 Vibration    16          0.960              1.028              0.446

 Optimization completed.
    -- Stationary point found.
 Normal termination of Gaussian 16 at Tue Dec  8 20:23:27 2020.

 ----------------------------------------------------------------------
 # B3LYP/6-311++G(d,p) empiricaldispersion=gd3bj scf=xqc pop=npa geom=c
 heck
 ----------------------------------------------------------------------

 ---------------------------------------
 CID_152197916_JID_1804_Energie_neutraal
 ---------------------------------------
 Structure from the checkpoint file:  "JID_1804.chk"
 Charge =  0 Multiplicity = 1

 SCF Done:  E(RB3LYP) =  -584.810112669     A.U. after   16 cycles
 Normal termination of Gaussian 16 at Tue Dec  8 20:25:10 2020.

 ----------------------------------------------------------------------
 # B3LYP/6-311++G(d,p) empiricaldispersion=gd3bj scf=xqc pop=npa geom=c
 heck
 ----------------------------------------------------------------------

 -------------------------------------
 CID_152197916_JID_1804_Energie_kation
 -------------------------------------
 Structure from the checkpoint file:  "JID_1804.chk"
 Charge =  1 Multiplicity = 2

 SCF Done:  E(UB3LYP) =  -584.469011735     A.U. after   24 cycles
 Normal termination of Gaussian 16 at Tue Dec  8 20:30:43 2020.
 Gaussian 16:  ES64L-G16RevA.03 25-Dec-2016

 ----------------------------------------------------------------------
 # B3LYP/6-311++G(d,p) empiricaldispersion=gd3bj scf=xqc pop=npa geom=c
 heck
 ----------------------------------------------------------------------

 ------------------------------------
 CID_152197916_JID_1804_Energie_anion
 ------------------------------------
 Structure from the checkpoint file:  "JID_1804.chk"
 Charge = -1 Multiplicity = 2

                         Standard orientation:
 ---------------------------------------------------------------------
 Center     Atomic      Atomic             Coordinates (Angstroms)
 Number     Number       Type             X           Y           Z
 ---------------------------------------------------------------------
      1          6           0        0.825540    1.489816   -1.129566
      2          6           0        1.193350    1.232484    0.332274
      3          6           0       -0.021740    0.857715    1.223661
      4          6           0       -0.775571   -0.346742    0.709108
      5          8           0       -0.427487   -1.492532    0.887608
      6          6           0       -2.039974   -0.036554   -0.123141
      7          8           0       -2.399490    1.090169   -0.392010
      8          8           0       -2.673370   -1.149478   -0.515192
      9          7           0        2.290337    0.246987    0.496907
     10          7           0        2.282825   -0.732116   -0.257905
     11          7           0        2.411311   -1.665453   -0.902234
     12          1           0        0.484741    0.574429   -1.626980
     13          1           0        1.694004    1.866110   -1.678097
     14          1           0        0.017567    2.223255   -1.194436
     15          1           0        1.610852    2.147191    0.761216
     16          1           0        0.352026    0.617452    2.222491
     17          1           0       -0.689501    1.720815    1.275818
     18          1           0       -3.447852   -0.860776   -1.034642
 ---------------------------------------------------------------------

 SCF Done:  E(UB3LYP) =  -584.843238236     A.U. after   25 cycles

 The electronic state is 2-A.
 Alpha  occ. eigenvalues --  -19.00715 -18.93450 -18.90752 -14.34753 -14.24494
 Alpha  occ. eigenvalues --  -14.22446 -10.10866 -10.09397 -10.04847 -10.04245
 Alpha  occ. eigenvalues --  -10.02325  -1.00536  -0.94532  -0.85426  -0.85202
 Alpha  occ. eigenvalues --   -0.84582  -0.67201  -0.57611  -0.53187  -0.49591
 Alpha  occ. eigenvalues --   -0.41000  -0.38705  -0.37520  -0.37003  -0.32908
 Alpha  occ. eigenvalues --   -0.32568  -0.31736  -0.30299  -0.28937  -0.28102
 Alpha  occ. eigenvalues --   -0.26678  -0.25702  -0.23899  -0.23009  -0.21826
 Alpha  occ. eigenvalues --   -0.19340  -0.16960  -0.16805  -0.13947  -0.12077
 Alpha  occ. eigenvalues --   -0.06275   0.04068
 Alpha virt. eigenvalues --    0.08636   0.09468   0.10433   0.10947   0.12829
 Alpha virt. eigenvalues --    0.12962   0.14015   0.14661   0.15698   0.16806
 Alpha virt. eigenvalues --    0.17719   0.18596   0.19225   0.19584   0.20693

  Beta  occ. eigenvalues --  -19.00638 -18.93039 -18.89951 -14.34709 -14.24441
  Beta  occ. eigenvalues --  -14.22462 -10.10619 -10.09319 -10.04485 -10.04239
  Beta  occ. eigenvalues --  -10.02367  -1.00454  -0.94178  -0.84752  -0.84595
  Beta  occ. eigenvalues --   -0.83819  -0.67068  -0.57354  -0.52755  -0.49005
  Beta  occ. eigenvalues --   -0.40614  -0.38359  -0.37461  -0.36745  -0.32639
  Beta  occ. eigenvalues --   -0.32250  -0.31424  -0.29828  -0.28244  -0.27311
  Beta  occ. eigenvalues --   -0.26398  -0.25395  -0.23462  -0.22673  -0.21261
  Beta  occ. eigenvalues --   -0.16992  -0.16124  -0.15004  -0.13513  -0.11915
  Beta  occ. eigenvalues --   -0.05560
  Beta virt. eigenvalues --    0.08522   0.09580   0.10491   0.10932   0.12610
  Beta virt. eigenvalues --    0.12854   0.13025   0.14188   0.14630   0.15669
  Beta virt. eigenvalues --    0.16762   0.17692   0.18653   0.19370   0.19563

 Mulliken charges and spin densities:
               1          2
     1  C   -0.811128   0.115107
     2  C    0.367931  -0.262330
     3  C   -0.382060  -0.040363
     4  C    0.055401   0.315055
     5  O   -0.385957   0.281662
     6  C   -0.186363   0.156203
     7  O   -0.421309   0.137005
     8  O   -0.161063   0.012960
     9  N   -0.393651   0.090985
    10  N    0.611998  -0.040632
    11  N   -0.274797   0.005212
    12  H    0.189181  -0.004496
    13  H    0.079621   0.040410
    14  H    0.170088  -0.019343
    15  H    0.068612   0.138274
    16  H    0.116719   0.057542
    17  H    0.130477   0.019868
    18  H    0.226300  -0.003121
 Sum of Mulliken charges =  -1.00000   1.00000

 Dipole moment (field-independent basis, Debye):
    X=              1.2494    Y=              3.0937    Z=             -1.5739  Tot=              3.6891
 Quadrupole moment (field-independent basis, Debye-Ang):
   XX=            -86.2663   YY=            -84.7884   ZZ=            -71.9982
   XY=              5.5675   XZ=              1.1038   YZ=              1.9863

 Summary of Natural Population Analysis:

                                       Natural Population
                Natural  -----------------------------------------------
    Atom  No    Charge         Core      Valence    Rydberg      Total
 -----------------------------------------------------------------------
      C    1   -0.30053      0.99964     2.29467    0.00622     3.30053
      C    2   -0.00482      0.99957     1.99137    0.01388     3.00482
      C    3   -0.24006      0.99958     2.22839    0.01210     3.24006
      C    4    0.26271      0.99965     1.71351    0.02413     2.73729
      O    5   -0.19598      0.99987     3.18905    0.00706     4.19598
      C    6    0.39482      0.99971     1.57828    0.02719     2.60518
      O    7   -0.29866      0.99987     3.29172    0.00708     4.29866
      O    8   -0.33779      0.99987     3.32959    0.00832     4.33779
      N    9   -0.18803      0.99969     2.67352    0.01482     3.68803
      N   10    0.12218      0.99970     2.36084    0.01728     3.37782
      N   11   -0.05155      0.99982     2.53905    0.01268     3.55155
      H   12    0.10651      0.00000     0.39272    0.00077     0.39349
      H   13    0.09269      0.00000     0.40641    0.00090     0.40731
      H   14    0.11254      0.00000     0.38656    0.00090     0.38746
      H   15    0.09127      0.00000     0.40702    0.00171     0.40873
      H   16    0.10516      0.00000     0.39264    0.00219     0.39484
      H   17    0.10886      0.00000     0.38968    0.00146     0.39114
      H   18    0.22067      0.00000     0.27307    0.00626     0.27933
 =======================================================================
   * Total *    0.00000     10.99698    29.83808    0.16494    41.00000

 Normal termination of Gaussian 16 at Tue Dec  8 20:34:38 2020.
