 Gaussian 16, Revision A.03,

 -----------------------------------------------------------
 # opt freq B3LYP/6-31G(d) empiricaldispersion=gd3bj scf=xqc
 -----------------------------------------------------------

 -------------------------------
 CID_115277648_JID_1550_neutraal
 -------------------------------
 Symbolic Z-matrix:
 Charge =  0 Multiplicity = 1

 SCF Done:  E(RB3LYP) =  -484.398718867     A.U. after   13 cycles
 SCF Done:  E(RB3LYP) =  -484.401291423     A.U. after   11 cycles
 SCF Done:  E(RB3LYP) =  -484.401543504     A.U. after   10 cycles
 SCF Done:  E(RB3LYP) =  -484.401922231     A.U. after   10 cycles
 SCF Done:  E(RB3LYP) =  -484.401965029     A.U. after   10 cycles
 SCF Done:  E(RB3LYP) =  -484.402040454     A.U. after   10 cycles
 SCF Done:  E(RB3LYP) =  -484.402057681     A.U. after    8 cycles
 SCF Done:  E(RB3LYP) =  -484.402077718     A.U. after    9 cycles
 SCF Done:  E(RB3LYP) =  -484.402096406     A.U. after    9 cycles
 SCF Done:  E(RB3LYP) =  -484.402101640     A.U. after    9 cycles
 SCF Done:  E(RB3LYP) =  -484.402115290     A.U. after    8 cycles
 SCF Done:  E(RB3LYP) =  -484.402125729     A.U. after    9 cycles
 SCF Done:  E(RB3LYP) =  -484.402127218     A.U. after    8 cycles
 SCF Done:  E(RB3LYP) =  -484.402127567     A.U. after    7 cycles
 SCF Done:  E(RB3LYP) =  -484.402127708     A.U. after    7 cycles
 Optimization completed.
    -- Stationary point found.
 Normal termination of Gaussian 16 at Tue Dec  8 20:21:47 2020.

 --------------------------------------------------------------------
 #N Geom=AllCheck Guess=TCheck SCRF=Check GenChk RB3LYP/6-31G(d) Freq
 --------------------------------------------------------------------

 Structure from the checkpoint file:  "JID_1550.chk"
 -------------------------------
 CID_115277648_JID_1550_neutraal
 -------------------------------
 Charge =  0 Multiplicity = 1

 SCF Done:  E(RB3LYP) =  -484.402127708     A.U. after    1 cycles

  Exact polarizability: 116.850   1.885  95.776  -0.322   2.292  96.154
 Approx polarizability: 143.629  -0.201 138.524  -1.169   4.627 141.001

                      1                      2                      3
                      A                      A                      A
 Frequencies --     46.3442                54.4574               107.7799
 Red. masses --      3.1147                 2.9983                 4.2630
 Frc consts  --      0.0039                 0.0052                 0.0292
 IR Inten    --      0.9135                 0.3575                 3.9637

                      4                      5                      6
                      A                      A                      A
 Frequencies --    141.5857               168.5921               205.9691
 Red. masses --      2.3711                 3.3958                 2.3003
 Frc consts  --      0.0280                 0.0569                 0.0575
 IR Inten    --      1.9960                 0.7570                 7.6125

                      7                      8                      9
                      A                      A                      A
 Frequencies --    227.9155               240.9759               248.6720
 Red. masses --      1.0391                 1.3868                 1.9881
 Frc consts  --      0.0318                 0.0474                 0.0724
 IR Inten    --      0.6572                 8.1515                 7.4733

                     10                     11                     12
                      A                      A                      A
 Frequencies --    293.4378               303.5975               337.8027
 Red. masses --      1.4924                 1.3426                 2.0910
 Frc consts  --      0.0757                 0.0729                 0.1406
 IR Inten    --     21.1420                53.6283                 1.1556

                     13                     14                     15
                      A                      A                      A
 Frequencies --    346.4948               414.5007               422.8086
 Red. masses --      2.0229                 2.1107                 2.1327
 Frc consts  --      0.1431                 0.2137                 0.2246
 IR Inten    --      4.5086                 9.5248                 4.4806

                     16                     17                     18
                      A                      A                      A
 Frequencies --    426.2871               498.8896               576.9340
 Red. masses --      2.1433                 2.7543                 3.2359
 Frc consts  --      0.2295                 0.4039                 0.6346
 IR Inten    --      0.0161                 1.3438                 1.6931

                     19                     20                     21
                      A                      A                      A
 Frequencies --    635.2428               770.1790               789.4255
 Red. masses --      2.8386                 2.0603                 1.7065
 Frc consts  --      0.6749                 0.7201                 0.6266
 IR Inten    --      0.3823                 1.0722                 5.9116

                     22                     23                     24
                      A                      A                      A
 Frequencies --    828.7467               856.3552               874.9083
 Red. masses --      3.1939                 1.8368                 2.5102
 Frc consts  --      1.2925                 0.7936                 1.1321
 IR Inten    --      2.2862                 6.2918                 2.2739

                     25                     26                     27
                      A                      A                      A
 Frequencies --    926.8046               952.4504               968.6233
 Red. masses --      2.0301                 1.8734                 1.4628
 Frc consts  --      1.0274                 1.0013                 0.8086
 IR Inten    --      1.5759                 0.8875                 1.8722

                     28                     29                     30
                      A                      A                      A
 Frequencies --    971.5544               993.7547              1010.6157
 Red. masses --      1.9860                 1.4785                 1.7923
 Frc consts  --      1.1045                 0.8603                 1.0785
 IR Inten    --     27.8103                 2.3788                 1.4422

                     31                     32                     33
                      A                      A                      A
 Frequencies --   1023.7492              1052.5643              1076.2654
 Red. masses --      1.7822                 1.5497                 1.5241
 Frc consts  --      1.1005                 1.0116                 1.0402
 IR Inten    --      5.4781                 0.6013                 1.4712

                     34                     35                     36
                      A                      A                      A
 Frequencies --   1091.2979              1101.4221              1160.9148
 Red. masses --      2.7219                 2.5223                 1.8436
 Frc consts  --      1.9099                 1.8029                 1.4639
 IR Inten    --     17.7626                57.8048                31.7419

                     37                     38                     39
                      A                      A                      A
 Frequencies --   1182.0002              1196.9347              1211.5894
 Red. masses --      1.6108                 1.3864                 1.2781
 Frc consts  --      1.3259                 1.1703                 1.1054
 IR Inten    --     36.5124                13.3971                 4.4167

                     40                     41                     42
                      A                      A                      A
 Frequencies --   1223.2333              1247.0397              1272.8853
 Red. masses --      1.4840                 1.5269                 2.6268
 Frc consts  --      1.3083                 1.3990                 2.5076
 IR Inten    --      5.0383                 1.9468                18.8234

                     43                     44                     45
                      A                      A                      A
 Frequencies --   1278.4145              1297.5312              1324.5832
 Red. masses --      1.6492                 1.5926                 1.7238
 Frc consts  --      1.5881                 1.5797                 1.7820
 IR Inten    --     23.0715                 3.9608                 6.0096

                     46                     47                     48
                      A                      A                      A
 Frequencies --   1333.1079              1354.9543              1388.5763
 Red. masses --      1.4369                 1.5166                 1.4039
 Frc consts  --      1.5045                 1.6405                 1.5949
 IR Inten    --     15.4393                 7.9206                19.5284

                     49                     50                     51
                      A                      A                      A
 Frequencies --   1396.1049              1412.1507              1415.2294
 Red. masses --      1.4273                 1.2798                 1.3478
 Frc consts  --      1.6390                 1.5037                 1.5905
 IR Inten    --      3.8483                55.7421                13.0039

                     52                     53                     54
                      A                      A                      A
 Frequencies --   1422.7361              1429.6265              1446.6024
 Red. masses --      1.4456                 1.3246                 1.3092
 Frc consts  --      1.7241                 1.5951                 1.6142
 IR Inten    --      4.0375                 7.5908                30.3645

                     55                     56                     57
                      A                      A                      A
 Frequencies --   1450.3159              1503.0067              1513.6302
 Red. masses --      1.2535                 1.0913                 1.0621
 Frc consts  --      1.5535                 1.4525                 1.4337
 IR Inten    --      5.7181                 7.0451                 1.3992

                     58                     59                     60
                      A                      A                      A
 Frequencies --   1518.9324              1519.0622              1527.6806
 Red. masses --      1.0644                 1.0695                 1.0840
 Frc consts  --      1.4468                 1.4540                 1.4906
 IR Inten    --      1.0392                 2.4346                 6.4489

                     61                     62                     63
                      A                      A                      A
 Frequencies --   1533.8462              1537.1919              1541.6553
 Red. masses --      1.0554                 1.0868                 1.0570
 Frc consts  --      1.4629                 1.5130                 1.4801
 IR Inten    --      1.9384                 2.9531                 6.2441

                     64                     65                     66
                      A                      A                      A
 Frequencies --   1553.2168              1572.8526              2922.0250
 Red. masses --      1.0834                 1.0915                 1.0730
 Frc consts  --      1.5399                 1.5910                 5.3977
 IR Inten    --      3.6077                 2.9142                76.9109

                     67                     68                     69
                      A                      A                      A
 Frequencies --   2978.8033              3005.7432              3015.3808
 Red. masses --      1.0714                 1.0709                 1.0873
 Frc consts  --      5.6010                 5.7001                 5.8248
 IR Inten    --    101.0223                54.3962                37.3330

                     70                     71                     72
                      A                      A                      A
 Frequencies --   3018.0067              3038.5561              3040.7888
 Red. masses --      1.0684                 1.0353                 1.0623
 Frc consts  --      5.7334                 5.6318                 5.7870
 IR Inten    --     57.5420                25.5796                19.8020

                     73                     74                     75
                      A                      A                      A
 Frequencies --   3043.5657              3047.7590              3060.1974
 Red. masses --      1.0563                 1.0665                 1.0705
 Frc consts  --      5.7653                 5.8369                 5.9065
 IR Inten    --     13.8406                63.1255                15.7214

                     76                     77                     78
                      A                      A                      A
 Frequencies --   3060.4922              3083.3934              3101.3949
 Red. masses --      1.0891                 1.1019                 1.0997
 Frc consts  --      6.0102                 6.1721                 6.2322
 IR Inten    --     47.0926                62.4068                24.9911

                     79                     80                     81
                      A                      A                      A
 Frequencies --   3101.7388              3105.7535              3107.6615
 Red. masses --      1.0970                 1.1026                 1.1020
 Frc consts  --      6.2181                 6.2664                 6.2702
 IR Inten    --     34.5409                 1.0350                54.7634

                     82                     83                     84
                      A                      A                      A
 Frequencies --   3110.5402              3130.9187              3752.7546
 Red. masses --      1.1018                 1.1008                 1.0655
 Frc consts  --      6.2811                 6.3577                 8.8407
 IR Inten    --     76.5367                24.0016                 9.2882

 - Thermochemistry -
 -------------------
 Temperature   298.150 Kelvin.  Pressure   1.00000 Atm.
 Atom     1 has atomic number  6 and mass  12.00000

 Molecular mass:   157.14666 amu.
 Principal axes and moments of inertia in atomic units:
                           1         2         3
     Eigenvalues --   872.771193024.515063092.44051
           X            0.99995   0.01012  -0.00021
           Y           -0.01011   0.99990   0.01034
           Z            0.00032  -0.01034   0.99995
 This molecule is an asymmetric top.
 Rotational symmetry number  1.
 Warning -- assumption of classical behavior for rotation
           may cause significant error
 Rotational temperatures (Kelvin)      0.09924     0.02864     0.02801
 Rotational constants (GHZ):           2.06783     0.59670     0.58360
 Zero-point vibrational energy     726600.3 (Joules/Mol)
                                  173.66164 (Kcal/Mol)
 Warning -- explicit consideration of  18 degrees of freedom as
           vibrations may cause significant error
 Vibrational temperatures:     66.68    78.35   155.07   203.71   242.57
          (Kelvin)            296.34   327.92   346.71   357.78   422.19
                              436.81   486.02   498.53   596.37   608.33
                              613.33   717.79   830.08   913.97  1108.12
                             1135.81  1192.38  1232.10  1258.80  1333.47
                             1370.36  1393.63  1397.85  1429.79  1454.05
                             1472.95  1514.41  1548.51  1570.13  1584.70
                             1670.30  1700.63  1722.12  1743.21  1759.96
                             1794.21  1831.40  1839.35  1866.86  1905.78
                             1918.04  1949.48  1997.85  2008.68  2031.77
                             2036.20  2047.00  2056.91  2081.34  2086.68
                             2162.49  2177.78  2185.41  2185.59  2197.99
                             2206.86  2211.68  2218.10  2234.73  2262.98
                             4204.14  4285.83  4324.59  4338.46  4342.24
                             4371.80  4375.02  4379.01  4385.05  4402.94
                             4403.37  4436.32  4462.22  4462.71  4468.49
                             4471.23  4475.37  4504.69  5399.38

 Zero-point correction=                           0.276747 (Hartree/Particle)
 Thermal correction to Energy=                    0.289302
 Thermal correction to Enthalpy=                  0.290247
 Thermal correction to Gibbs Free Energy=         0.238332
 Sum of electronic and zero-point Energies=           -484.125380
 Sum of electronic and thermal Energies=              -484.112825
 Sum of electronic and thermal Enthalpies=            -484.111881
 Sum of electronic and thermal Free Energies=         -484.163796

                     E (Thermal)             CV                S
                      KCal/Mol        Cal/Mol-Kelvin    Cal/Mol-Kelvin
 Total                  181.540             47.554            109.264
 Electronic               0.000              0.000              0.000
 Translational            0.889              2.981             41.065
 Rotational               0.889              2.981             30.480
 Vibrational            179.762             41.592             37.718
 Vibration     1          0.595              1.979              4.968
 Vibration     2          0.596              1.976              4.649
 Vibration     3          0.606              1.943              3.309
 Vibration     4          0.615              1.912              2.782
 Vibration     5          0.625              1.881              2.451
 Vibration     6          0.640              1.831              2.079
 Vibration     7          0.651              1.798              1.895
 Vibration     8          0.658              1.778              1.796
 Vibration     9          0.662              1.765              1.740
 Vibration    10          0.688              1.686              1.454
 Vibration    11          0.695              1.667              1.397
 Vibration    12          0.718              1.600              1.223
 Vibration    13          0.724              1.582              1.182
 Vibration    14          0.778              1.439              0.911
 Vibration    15          0.785              1.421              0.882
 Vibration    16          0.788              1.413              0.871
 Vibration    17          0.854              1.252              0.661
 Vibration    18          0.933              1.081              0.491

                           ! Non-Optimized Parameters !
 Normal termination of Gaussian 16 at Tue Dec  8 20:28:40 2020.

 ----------------------------------------------------------------------
 # B3LYP/6-311++G(d,p) empiricaldispersion=gd3bj scf=xqc pop=npa geom=c
 heck
 ----------------------------------------------------------------------

 ---------------------------------------
 CID_115277648_JID_1550_Energie_neutraal
 ---------------------------------------
 Structure from the checkpoint file:  "JID_1550.chk"
 Charge =  0 Multiplicity = 1

 SCF Done:  E(RB3LYP) =  -484.548029021     A.U. after   13 cycles
 Normal termination of Gaussian 16 at Tue Dec  8 20:32:16 2020.

 ----------------------------------------------------------------------
 # B3LYP/6-311++G(d,p) empiricaldispersion=gd3bj scf=xqc pop=npa geom=c
 heck
 ----------------------------------------------------------------------

 -------------------------------------
 CID_115277648_JID_1550_Energie_kation
 -------------------------------------
 Structure from the checkpoint file:  "JID_1550.chk"
 Charge =  1 Multiplicity = 2

 SCF Done:  E(UB3LYP) =  -484.268548538     A.U. after   17 cycles
 Normal termination of Gaussian 16 at Tue Dec  8 20:37:02 2020.
 Gaussian 16:  ES64L-G16RevA.03 25-Dec-2016

 ----------------------------------------------------------------------
 # B3LYP/6-311++G(d,p) empiricaldispersion=gd3bj scf=xqc pop=npa geom=c
 heck
 ----------------------------------------------------------------------

 ------------------------------------
 CID_115277648_JID_1550_Energie_anion
 ------------------------------------
 Structure from the checkpoint file:  "JID_1550.chk"
 Charge = -1 Multiplicity = 2

                         Standard orientation:
 ---------------------------------------------------------------------
 Center     Atomic      Atomic             Coordinates (Angstroms)
 Number     Number       Type             X           Y           Z
 ---------------------------------------------------------------------
      1          6           0       -2.886110    0.610429   -0.855093
      2          6           0       -2.013285   -0.082389    0.202791
      3          6           0       -1.314534   -1.328099   -0.396729
      4          6           0       -0.053124   -0.787009   -1.103421
      5          7           0        0.087827    0.581924   -0.604710
      6          6           0       -0.787605    0.789986    0.534641
      7          6           0        1.378800    1.237888   -0.632968
      8          6           0        2.304585    1.025774    0.584406
      9          6           0        2.663895   -0.430676    0.876410
     10          8           0        3.363189   -1.066690   -0.188793
     11          6           0       -2.845290   -0.421359    1.440436
     12          1           0       -2.287792    0.902565   -1.723383
     13          1           0       -3.689532   -0.054627   -1.193487
     14          1           0       -3.350506    1.515125   -0.444616
     15          1           0       -1.023513   -2.005705    0.414390
     16          1           0       -1.968764   -1.888999   -1.071869
     17          1           0       -0.160247   -0.780303   -2.197815
     18          1           0        0.809327   -1.434521   -0.874585
     19          1           0       -1.039726    1.854566    0.633882
     20          1           0       -0.350918    0.466476    1.499828
     21          1           0        1.894701    0.918637   -1.548151
     22          1           0        1.219517    2.320178   -0.745554
     23          1           0        3.228045    1.594395    0.414166
     24          1           0        1.830666    1.451037    1.479242
     25          1           0        3.341095   -0.481128    1.734815
     26          1           0        1.757593   -0.995187    1.146315
     27          1           0        2.773464   -1.084491   -0.957614
     28          1           0       -3.669787   -1.097555    1.184993
     29          1           0       -2.234422   -0.909969    2.208714
     30          1           0       -3.283506    0.482294    1.881185
 ---------------------------------------------------------------------

 SCF Done:  E(UB3LYP) =  -484.532722957     A.U. after   29 cycles

 The electronic state is 2-A.
 Alpha  occ. eigenvalues --  -19.02500 -14.19184 -10.11434 -10.09365 -10.08990
 Alpha  occ. eigenvalues --  -10.08065 -10.07613 -10.06497 -10.06035 -10.05171
 Alpha  occ. eigenvalues --  -10.04679  -0.92544  -0.82784  -0.71308  -0.66477
 Alpha  occ. eigenvalues --   -0.63070  -0.59294  -0.57916  -0.55391  -0.50524
 Alpha  occ. eigenvalues --   -0.46061  -0.44143  -0.41811  -0.38006  -0.37206
 Alpha  occ. eigenvalues --   -0.36133  -0.35055  -0.33750  -0.32342  -0.31420
 Alpha  occ. eigenvalues --   -0.30326  -0.29474  -0.28279  -0.27585  -0.26268
 Alpha  occ. eigenvalues --   -0.25167  -0.24853  -0.24626  -0.23130  -0.22093
 Alpha  occ. eigenvalues --   -0.21494  -0.21010  -0.17919  -0.09790   0.04639
 Alpha virt. eigenvalues --    0.07147   0.07270   0.07946   0.09038   0.09364
 Alpha virt. eigenvalues --    0.09730   0.10210   0.10355   0.11509   0.11569
 Alpha virt. eigenvalues --    0.12485   0.13071   0.13482   0.13980   0.14272

  Beta  occ. eigenvalues --  -19.02485 -14.19187 -10.11414 -10.09350 -10.08965
  Beta  occ. eigenvalues --  -10.08034 -10.07613 -10.06481 -10.06010 -10.05136
  Beta  occ. eigenvalues --  -10.04645  -0.92513  -0.82770  -0.71286  -0.66440
  Beta  occ. eigenvalues --   -0.63026  -0.59243  -0.57850  -0.55330  -0.50468
  Beta  occ. eigenvalues --   -0.46001  -0.44081  -0.41772  -0.37965  -0.37153
  Beta  occ. eigenvalues --   -0.36097  -0.35015  -0.33716  -0.32309  -0.31387
  Beta  occ. eigenvalues --   -0.30288  -0.29442  -0.28246  -0.27549  -0.26235
  Beta  occ. eigenvalues --   -0.25128  -0.24821  -0.24591  -0.23107  -0.22050
  Beta  occ. eigenvalues --   -0.21459  -0.20974  -0.17888  -0.09777
  Beta virt. eigenvalues --    0.06843   0.07793   0.07970   0.08657   0.09589
  Beta virt. eigenvalues --    0.09876   0.10238   0.10781   0.10844   0.11962
  Beta virt. eigenvalues --    0.12017   0.12817   0.13425   0.13749   0.14355

 Mulliken charges and spin densities:
               1          2
     1  C    1.247614  -1.743228
     2  C   -2.486353   3.259466
     3  C    1.791275  -2.442323
     4  C   -0.167323  -0.006920
     5  N    0.056052   0.145110
     6  C    1.280631  -2.091828
     7  C    0.092509  -0.365678
     8  C   -0.240069   0.132819
     9  C    0.544428  -1.075705
    10  O   -0.247986   0.025312
    11  C   -0.388283  -0.206578
    12  H   -0.086176   0.248479
    13  H   -0.286258   0.423564
    14  H   -0.094500   0.228572
    15  H   -0.048434   0.216880
    16  H   -0.169866   0.335743
    17  H   -0.352128   0.519683
    18  H    0.053121  -0.021839
    19  H   -0.340399   0.508972
    20  H    0.204094  -0.072890
    21  H   -0.028415   0.183489
    22  H   -0.254089   0.406125
    23  H   -0.062858   0.233085
    24  H   -0.141959   0.287518
    25  H   -0.128138   0.292132
    26  H   -0.081199   0.270312
    27  H    0.088457   0.139510
    28  H   -0.158937   0.303774
    29  H   -0.365192   0.499905
    30  H   -0.229620   0.366536
 Sum of Mulliken charges =  -1.00000   1.00000

 Dipole moment (field-independent basis, Debye):
    X=              2.4074    Y=             -0.1072    Z=             -0.6239  Tot=              2.4892
 Quadrupole moment (field-independent basis, Debye-Ang):
   XX=           -138.2192   YY=           -111.6413   ZZ=           -109.5818
   XY=              1.7362   XZ=             -0.8088   YZ=             -0.6276

 Summary of Natural Population Analysis:

                                       Natural Population
                Natural  -----------------------------------------------
    Atom  No    Charge         Core      Valence    Rydberg      Total
 -----------------------------------------------------------------------
      C    1   -0.28401      0.99962     2.27713    0.00725     3.28401
      C    2   -0.05020      0.99958     2.03742    0.01320     3.05020
      C    3   -0.18947      0.99959     2.18052    0.00936     3.18947
      C    4   -0.07746      0.99962     2.06673    0.01111     3.07746
      N    5   -0.29220      0.99972     2.77928    0.01320     3.79220
      C    6   -0.07791      0.99956     2.06597    0.01238     3.07791
      C    7   -0.08116      0.99961     2.06843    0.01312     3.08116
      C    8   -0.21305      0.99962     2.20489    0.00853     3.21305
      C    9   -0.01178      0.99959     2.00069    0.01150     3.01178
      O   10   -0.37086      0.99990     3.36418    0.00678     4.37086
      C   11   -0.28269      0.99962     2.27589    0.00718     3.28269
      H   12    0.10507      0.00000     0.39330    0.00163     0.39493
      H   13    0.09834      0.00000     0.40048    0.00118     0.40166
      H   14    0.09890      0.00000     0.40001    0.00109     0.40110
      H   15    0.09884      0.00000     0.39958    0.00159     0.40116
      H   16    0.10322      0.00000     0.39544    0.00134     0.39678
      H   17    0.08988      0.00000     0.40862    0.00150     0.41012
      H   18    0.07773      0.00000     0.42027    0.00200     0.42227
      H   19    0.09798      0.00000     0.40037    0.00165     0.40202
      H   20    0.08226      0.00000     0.41569    0.00205     0.41774
      H   21    0.09109      0.00000     0.40760    0.00131     0.40891
      H   22    0.09639      0.00000     0.40235    0.00126     0.40361
      H   23    0.09750      0.00000     0.40122    0.00128     0.40250
      H   24    0.10097      0.00000     0.39759    0.00144     0.39903
      H   25    0.08611      0.00000     0.41262    0.00128     0.41389
      H   26    0.07834      0.00000     0.41963    0.00202     0.42166
      H   27    0.22717      0.00000     0.26969    0.00314     0.27283
      H   28    0.10044      0.00000     0.39835    0.00120     0.39956
      H   29    0.10041      0.00000     0.39826    0.00133     0.39959
      H   30    0.10014      0.00000     0.39870    0.00116     0.39986
 =======================================================================
   * Total *   -0.00000     10.99602    32.86091    0.14307    44.00000

 Normal termination of Gaussian 16 at Tue Dec  8 20:44:51 2020.
