 Gaussian 16, Revision A.03,

 -----------------------------------------------------------
 # opt freq B3LYP/6-31G(d) empiricaldispersion=gd3bj scf=xqc
 -----------------------------------------------------------

 ------------------------------
 CID_149142185_JID_687_neutraal
 ------------------------------
 Symbolic Z-matrix:
 Charge =  0 Multiplicity = 1

 SCF Done:  E(RB3LYP) =  -420.322651046     A.U. after   15 cycles
 SCF Done:  E(RB3LYP) =  -420.347051452     A.U. after   13 cycles
 SCF Done:  E(RB3LYP) =  -420.348858022     A.U. after   13 cycles
 SCF Done:  E(RB3LYP) =  -420.349189914     A.U. after   12 cycles
 SCF Done:  E(RB3LYP) =  -420.349448134     A.U. after   12 cycles
 SCF Done:  E(RB3LYP) =  -420.349875172     A.U. after   13 cycles
 SCF Done:  E(RB3LYP) =  -420.350484948     A.U. after   13 cycles
 SCF Done:  E(RB3LYP) =  -420.351138371     A.U. after   12 cycles
 SCF Done:  E(RB3LYP) =  -420.351250005     A.U. after   12 cycles
 SCF Done:  E(RB3LYP) =  -420.351255861     A.U. after   10 cycles
 SCF Done:  E(RB3LYP) =  -420.351258721     A.U. after    9 cycles
 SCF Done:  E(RB3LYP) =  -420.351259176     A.U. after    8 cycles
 Optimization completed.
    -- Stationary point found.

 1\1\GINC-NODE219\FOpt\RB3LYP\6-31G(d)\C8H10N2\VSC10255\08-Dec-2020\0\\
 # opt freq B3LYP/6-31G(d) empiricaldispersion=gd3bj scf=xqc\\CID_14914
 2185_JID_687_neutraal\\0,1\C,1.160755749,-0.2251522628,0.2597634366\N,
 0.2155488935,-0.8327368672,1.192597781\C,-1.0826885136,-1.2092562875,0
 .6315497428\C,-1.0337791675,-2.2212741823,-0.5339697677\C,-2.389042191
 4,-2.3709145752,-1.2042116896\C,-3.2396650839,-1.3195526427,-1.2572873
 531\C,-2.8943696934,-0.0532399186,-0.6247035668\C,-1.8681183986,0.0220
 5125,0.2399751654\C,-2.6953001395,-3.6020385058,-1.8523252337\N,-2.910

 Normal termination of Gaussian 16 at Tue Dec  8 12:25:50 2020.

 --------------------------------------------------------------------
 #N Geom=AllCheck Guess=TCheck SCRF=Check GenChk RB3LYP/6-31G(d) Freq
 --------------------------------------------------------------------

 Structure from the checkpoint file:  "JID_687.chk"
 ------------------------------
 CID_149142185_JID_687_neutraal
 ------------------------------
 Charge =  0 Multiplicity = 1

 SCF Done:  E(RB3LYP) =  -420.351259176     A.U. after    1 cycles

  Exact polarizability: 127.611 -11.490  97.354   2.296   3.911  56.380
 Approx polarizability: 195.541 -35.800 160.007   7.535   7.662  85.637

                      1                      2                      3
                      A                      A                      A
 Frequencies --     78.7760                96.7431               140.5087
 Red. masses --      3.2218                 3.0135                 5.5382
 Frc consts  --      0.0118                 0.0166                 0.0644
 IR Inten    --      2.1683                 2.2506                 6.1077

                      4                      5                      6
                      A                      A                      A
 Frequencies --    159.1403               226.0756               270.1862
 Red. masses --      2.1877                 1.4570                 2.5857
 Frc consts  --      0.0326                 0.0439                 0.1112
 IR Inten    --      1.8348                 0.9729                 0.7369

                      7                      8                      9
                      A                      A                      A
 Frequencies --    323.6909               367.0651               420.5951
 Red. masses --      3.4153                 2.8016                 5.6648
 Frc consts  --      0.2108                 0.2224                 0.5904
 IR Inten    --      1.7301                 6.1320                 2.6812

                     10                     11                     12
                      A                      A                      A
 Frequencies --    454.0700               500.8027               556.4097
 Red. masses --      4.5003                 3.2544                 3.3610
 Frc consts  --      0.5467                 0.4809                 0.6131
 IR Inten    --      2.6397                 2.8851                 4.3779

                     13                     14                     15
                      A                      A                      A
 Frequencies --    571.7539               612.4111               708.3894
 Red. masses --      6.2584                 3.4333                 3.2690
 Frc consts  --      1.2054                 0.7587                 0.9665
 IR Inten    --      4.3591                11.3742                12.0430

                     16                     17                     18
                      A                      A                      A
 Frequencies --    753.7303               774.7856               843.3853
 Red. masses --      1.4189                 1.4236                 3.3186
 Frc consts  --      0.4749                 0.5035                 1.3908
 IR Inten    --     77.4946                64.7362                 3.0164

                     19                     20                     21
                      A                      A                      A
 Frequencies --    935.4126               941.9408               973.4895
 Red. masses --      1.5275                 3.3367                 2.4456
 Frc consts  --      0.7875                 1.7443                 1.3655
 IR Inten    --      5.0195                 0.9078                 0.6631

                     22                     23                     24
                      A                      A                      A
 Frequencies --    992.6347              1025.2190              1044.3915
 Red. masses --      1.2754                 1.8660                 2.2773
 Frc consts  --      0.7404                 1.1556                 1.4635
 IR Inten    --      1.1509                 0.6143                 7.7911

                     25                     26                     27
                      A                      A                      A
 Frequencies --   1097.6693              1150.3613              1165.5528
 Red. masses --      2.1928                 2.6387                 1.3433
 Frc consts  --      1.5566                 2.0574                 1.0752
 IR Inten    --      4.8493                26.7797                18.8948

                     28                     29                     30
                      A                      A                      A
 Frequencies --   1170.4565              1196.5502              1203.0900
 Red. masses --      1.7823                 1.2690                 1.8887
 Frc consts  --      1.4386                 1.0705                 1.6107
 IR Inten    --      4.2924                 3.7170                26.9107

                     31                     32                     33
                      A                      A                      A
 Frequencies --   1245.5545              1329.0074              1352.0082
 Red. masses --      1.4669                 1.3106                 1.4194
 Frc consts  --      1.3409                 1.3639                 1.5286
 IR Inten    --      5.6152                 1.0032                 1.7953

                     34                     35                     36
                      A                      A                      A
 Frequencies --   1371.5004              1397.4450              1435.1327
 Red. masses --      1.4079                 1.6917                 1.6883
 Frc consts  --      1.5603                 1.9464                 2.0487
 IR Inten    --      1.8427                15.7608                 7.4794

                     37                     38                     39
                      A                      A                      A
 Frequencies --   1479.5061              1501.1559              1513.8753
 Red. masses --      1.1605                 1.1106                 1.2279
 Frc consts  --      1.4967                 1.4746                 1.6580
 IR Inten    --      2.2918                 1.7173                 1.9075

                     40                     41                     42
                      A                      A                      A
 Frequencies --   1523.3038              1553.5611              1638.0428
 Red. masses --      1.0861                 1.0563                 7.8389
 Frc consts  --      1.4849                 1.5021                12.3923
 IR Inten    --     10.5518                 6.8368                15.3895

                     43                     44                     45
                      A                      A                      A
 Frequencies --   1709.8618              2329.6230              2978.7822
 Red. masses --      5.7348                12.6718                 1.0797
 Frc consts  --      9.8785                40.5191                 5.6445
 IR Inten    --      0.7831                46.7677                43.2233

                     46                     47                     48
                      A                      A                      A
 Frequencies --   2985.3564              3029.6710              3084.1924
 Red. masses --      1.0600                 1.0669                 1.0759
 Frc consts  --      5.5659                 5.7701                 6.0297
 IR Inten    --     35.1582                29.5819                27.3383

                     49                     50                     51
                      A                      A                      A
 Frequencies --   3100.4928              3127.7283              3190.2693
 Red. masses --      1.0945                 1.1035                 1.0855
 Frc consts  --      6.1994                 6.3601                 6.5092
 IR Inten    --     14.1541                35.7306                 3.4463

                     52                     53                     54
                      A                      A                      A
 Frequencies --   3205.9114              3214.9470              3507.5788
 Red. masses --      1.0930                 1.0965                 1.0743
 Frc consts  --      6.6187                 6.6776                 7.7876
 IR Inten    --     13.0344                11.9903                 0.5321

 - Thermochemistry -
 -------------------
 Temperature   298.150 Kelvin.  Pressure   1.00000 Atm.
 Atom     1 has atomic number  6 and mass  12.00000

 Molecular mass:   134.08440 amu.
 Principal axes and moments of inertia in atomic units:
                           1         2         3
     Eigenvalues --   722.476552105.233922621.84853
           X            0.99944   0.03201  -0.00975
           Y           -0.03203   0.99949  -0.00175
           Z            0.00969   0.00206   0.99995
 This molecule is an asymmetric top.
 Rotational symmetry number  1.
 Warning -- assumption of classical behavior for rotation
           may cause significant error
 Rotational temperatures (Kelvin)      0.11988     0.04114     0.03304
 Rotational constants (GHZ):           2.49799     0.85726     0.68835
 Zero-point vibrational energy     439985.3 (Joules/Mol)
                                  105.15901 (Kcal/Mol)
 Warning -- explicit consideration of  14 degrees of freedom as
           vibrations may cause significant error
 Vibrational temperatures:    113.34   139.19   202.16   228.97   325.27
          (Kelvin)            388.74   465.72   528.12   605.14   653.31
                              720.54   800.55   822.63   881.12  1019.21
                             1084.45  1114.74  1213.44  1345.85  1355.24
                             1400.63  1428.18  1475.06  1502.65  1579.30
                             1655.11  1676.97  1684.03  1721.57  1730.98
                             1792.08  1912.15  1945.24  1973.28  2010.61
                             2064.84  2128.68  2159.83  2178.13  2191.69
                             2235.23  2356.78  2460.11  3351.81  4285.80
                             4295.26  4359.02  4437.46  4460.92  4500.10
                             4590.09  4612.59  4625.59  5046.62

 Zero-point correction=                           0.167582 (Hartree/Particle)
 Thermal correction to Energy=                    0.177013
 Thermal correction to Enthalpy=                  0.177958
 Thermal correction to Gibbs Free Energy=         0.132877
 Sum of electronic and zero-point Energies=           -420.183678
 Sum of electronic and thermal Energies=              -420.174246
 Sum of electronic and thermal Enthalpies=            -420.173302
 Sum of electronic and thermal Free Energies=         -420.218382

                     E (Thermal)             CV                S
                      KCal/Mol        Cal/Mol-Kelvin    Cal/Mol-Kelvin
 Total                  111.078             35.401             94.879
 Electronic               0.000              0.000              0.000
 Translational            0.889              2.981             40.592
 Rotational               0.889              2.981             29.768
 Vibrational            109.300             29.439             24.519
 Vibration     1          0.600              1.963              3.921
 Vibration     2          0.603              1.952              3.519
 Vibration     3          0.615              1.913              2.797
 Vibration     4          0.621              1.892              2.560
 Vibration     5          0.650              1.801              1.910
 Vibration     6          0.674              1.728              1.595
 Vibration     7          0.708              1.628              1.291
 Vibration     8          0.740              1.540              1.092
 Vibration     9          0.783              1.425              0.890
 Vibration    10          0.813              1.352              0.784
 Vibration    11          0.856              1.248              0.656
 Vibration    12          0.912              1.126              0.531
 Vibration    13          0.928              1.092              0.501
 Vibration    14          0.972              1.006              0.429

                           ! Non-Optimized Parameters !

 1\1\GINC-NODE219\Freq\RB3LYP\6-31G(d)\C8H10N2\VSC10255\08-Dec-2020\0\\
 #N Geom=AllCheck Guess=TCheck SCRF=Check GenChk RB3LYP/6-31G(d) Freq\\
 CID_149142185_JID_687_neutraal\\0,1\C,1.160755749,-0.2251522628,0.2597
 634366\N,0.2155488935,-0.8327368672,1.192597781\C,-1.0826885136,-1.209
 2562875,0.6315497428\C,-1.0337791675,-2.2212741823,-0.5339697677\C,-2.
 3890421914,-2.3709145752,-1.2042116896\C,-3.2396650839,-1.3195526427,-
 1.2572873531\C,-2.8943696934,-0.0532399186,-0.6247035668\C,-1.86811839
 86,0.02205125,0.2399751654\C,-2.6953001395,-3.6020385058,-1.8523252337

 Normal termination of Gaussian 16 at Tue Dec  8 12:30:50 2020.

 ----------------------------------------------------------------------
 # B3LYP/6-311++G(d,p) empiricaldispersion=gd3bj scf=xqc pop=npa geom=c
 heck
 ----------------------------------------------------------------------

 --------------------------------------
 CID_149142185_JID_687_Energie_neutraal
 --------------------------------------
 Structure from the checkpoint file:  "JID_687.chk"
 Charge =  0 Multiplicity = 1

 SCF Done:  E(RB3LYP) =  -420.469504878     A.U. after   15 cycles
 Normal termination of Gaussian 16 at Tue Dec  8 12:39:31 2020.

 ----------------------------------------------------------------------
 # B3LYP/6-311++G(d,p) empiricaldispersion=gd3bj scf=xqc pop=npa geom=c
 heck
 ----------------------------------------------------------------------

 ------------------------------------
 CID_149142185_JID_687_Energie_kation
 ------------------------------------
 Structure from the checkpoint file:  "JID_687.chk"
 Charge =  1 Multiplicity = 2

 SCF Done:  E(UB3LYP) =  -420.163879189     A.U. after   21 cycles
 Normal termination of Gaussian 16 at Tue Dec  8 12:49:37 2020.
 Gaussian 16:  ES64L-G16RevA.03 25-Dec-2016

 -----------------------------------
 CID_149142185_JID_687_Energie_anion
 -----------------------------------
 Structure from the checkpoint file:  "JID_687.chk"
 Charge = -1 Multiplicity = 2

                         Standard orientation:
 ---------------------------------------------------------------------
 Center     Atomic      Atomic             Coordinates (Angstroms)
 Number     Number       Type             X           Y           Z
 ---------------------------------------------------------------------
      1          6           0       -2.840364   -0.938305    0.785721
      2          7           0       -2.356210   -0.699322   -0.571201
      3          6           0       -1.044860   -0.058229   -0.677618
      4          6           0        0.122467   -0.820373   -0.013169
      5          6           0        1.386352    0.021384    0.035753
      6          6           0        1.301472    1.366673    0.157126
      7          6           0        0.003836    2.028783    0.183398
      8          6           0       -1.109281    1.366826   -0.176205
      9          6           0        2.646345   -0.643257    0.049229
     10          7           0        3.656854   -1.223428    0.050998
     11          1           0       -2.890486    0.014956    1.322995
     12          1           0       -2.229663   -1.627507    1.392974
     13          1           0       -3.854536   -1.345794    0.730192
     14          1           0       -2.346718   -1.573185   -1.092121
     15          1           0       -0.829070    0.000951   -1.757930
     16          1           0       -0.142800   -1.089488    1.019942
     17          1           0        0.303384   -1.758790   -0.546809
     18          1           0        2.203606    1.963295    0.252646
     19          1           0       -0.035376    3.077150    0.464764
     20          1           0       -2.078646    1.856634   -0.210635
 ---------------------------------------------------------------------

 SCF Done:  E(UB3LYP) =  -420.488041056     A.U. after   25 cycles

 The electronic state is 2-A.
 Alpha  occ. eigenvalues --  -14.17599 -14.12982 -10.07143 -10.06123 -10.03409
 Alpha  occ. eigenvalues --  -10.02972 -10.01513 -10.00675 -10.00400  -9.99571
 Alpha  occ. eigenvalues --   -0.78227  -0.73445  -0.68066  -0.60179  -0.59343
 Alpha  occ. eigenvalues --   -0.54344  -0.47579  -0.45789  -0.38036  -0.37745
 Alpha  occ. eigenvalues --   -0.33768  -0.32443  -0.30299  -0.28569  -0.27242
 Alpha  occ. eigenvalues --   -0.26991  -0.24941  -0.23355  -0.21015  -0.20142
 Alpha  occ. eigenvalues --   -0.19641  -0.18148  -0.16223  -0.15362  -0.10650
 Alpha  occ. eigenvalues --   -0.06832   0.04550
 Alpha virt. eigenvalues --    0.08109   0.09876   0.10352   0.11257   0.12227
 Alpha virt. eigenvalues --    0.12932   0.13740   0.14348   0.14545   0.15494
 Alpha virt. eigenvalues --    0.16854   0.18083   0.18204   0.18821   0.19020

  Beta  occ. eigenvalues --  -14.17572 -14.12703 -10.07133 -10.06151 -10.03428
  Beta  occ. eigenvalues --  -10.02979 -10.01180 -10.00693 -10.00104  -9.99078
  Beta  occ. eigenvalues --   -0.78144  -0.73018  -0.67540  -0.59487  -0.59052
  Beta  occ. eigenvalues --   -0.54134  -0.47076  -0.45185  -0.37746  -0.37582
  Beta  occ. eigenvalues --   -0.33373  -0.32313  -0.30123  -0.28266  -0.27006
  Beta  occ. eigenvalues --   -0.26829  -0.24883  -0.22873  -0.20655  -0.19408
  Beta  occ. eigenvalues --   -0.18878  -0.17790  -0.16037  -0.13660  -0.10433
  Beta  occ. eigenvalues --   -0.04692
  Beta virt. eigenvalues --    0.08001   0.09786   0.10277   0.11172   0.11369
  Beta virt. eigenvalues --    0.12193   0.12872   0.13698   0.14323   0.14492
  Beta virt. eigenvalues --    0.15457   0.16878   0.18149   0.18660   0.18907

 Mulliken charges and spin densities:
               1          2
     1  C   -0.363532  -0.045476
     2  N   -0.084454  -0.015781
     3  C    0.224305   0.045310
     4  C   -0.770586  -0.079657
     5  C    1.926757   0.203621
     6  C   -0.772595   0.301494
     7  C   -0.146406   0.098144
     8  C   -0.467465   0.291819
     9  C   -1.332804  -0.077132
    10  N   -0.357062   0.151685
    11  H    0.137987   0.012402
    12  H    0.095377   0.014185
    13  H    0.088669   0.016062
    14  H    0.159303   0.052822
    15  H    0.106793   0.051347
    16  H    0.107170  -0.010572
    17  H    0.113670   0.038726
    18  H    0.112897  -0.018167
    19  H    0.098191   0.002701
    20  H    0.123783  -0.033532
 Sum of Mulliken charges =  -1.00000   1.00000

 Dipole moment (field-independent basis, Debye):
    X=             -6.5179    Y=             -0.1607    Z=              0.4530  Tot=              6.5356
 Quadrupole moment (field-independent basis, Debye-Ang):
   XX=           -108.4029   YY=            -74.4468   ZZ=            -69.6134
   XY=             12.1091   XZ=             -2.5888   YZ=              1.1772

 Summary of Natural Population Analysis:

                                       Natural Population
                Natural  -----------------------------------------------
    Atom  No    Charge         Core      Valence    Rydberg      Total
 -----------------------------------------------------------------------
      C    1   -0.18164      0.99966     2.17419    0.00779     3.18164
      N    2   -0.33604      0.99975     2.82344    0.01285     3.83604
      C    3   -0.02516      0.99957     2.01146    0.01413     3.02516
      C    4   -0.19530      0.99960     2.18560    0.01010     3.19530
      C    5   -0.04368      0.99940     2.03348    0.01081     3.04368
      C    6   -0.02331      0.99950     2.01377    0.01004     3.02331
      C    7   -0.13640      0.99954     2.12726    0.00960     3.13640
      C    8    0.00782      0.99953     1.98286    0.00980     2.99218
      C    9    0.14672      0.99964     1.83506    0.01859     2.85328
      N   10   -0.18995      0.99979     2.67833    0.01184     3.68995
      H   11    0.09753      0.00000     0.40148    0.00099     0.40247
      H   12    0.07645      0.00000     0.42166    0.00189     0.42355
      H   13    0.08484      0.00000     0.41408    0.00107     0.41516
      H   14    0.16524      0.00000     0.33179    0.00297     0.33476
      H   15    0.09558      0.00000     0.40194    0.00248     0.40442
      H   16    0.09593      0.00000     0.40274    0.00132     0.40407
      H   17    0.09719      0.00000     0.40144    0.00136     0.40281
      H   18    0.09045      0.00000     0.40874    0.00081     0.40955
      H   19    0.08886      0.00000     0.40964    0.00150     0.41114
      H   20    0.08487      0.00000     0.41402    0.00111     0.41513
 =======================================================================
   * Total *    0.00000      9.99597    25.87298    0.13105    36.00000

 Normal termination of Gaussian 16 at Tue Dec  8 13:04:42 2020.
