 Gaussian 16, Revision A.03,

 -----------------------------------------------------------
 # opt freq B3LYP/6-31G(d) empiricaldispersion=gd3bj scf=xqc
 -----------------------------------------------------------

 ------------------------------
 CID_63042721_JID_2121_neutraal
 ------------------------------
 Symbolic Z-matrix:
 Charge =  0 Multiplicity = 1

 SCF Done:  E(RB3LYP) =  -881.369655981     A.U. after   13 cycles
 SCF Done:  E(RB3LYP) =  -881.374443980     A.U. after   11 cycles
 SCF Done:  E(RB3LYP) =  -881.374850740     A.U. after   10 cycles
 SCF Done:  E(RB3LYP) =  -881.374852345     A.U. after   10 cycles
 SCF Done:  E(RB3LYP) =  -881.374989518     A.U. after   10 cycles
 SCF Done:  E(RB3LYP) =  -881.374995674     A.U. after    9 cycles
 SCF Done:  E(RB3LYP) =  -881.375013599     A.U. after    9 cycles
 SCF Done:  E(RB3LYP) =  -881.375014482     A.U. after    7 cycles
 SCF Done:  E(RB3LYP) =  -881.375014748     A.U. after    7 cycles
 SCF Done:  E(RB3LYP) =  -881.375014800     A.U. after    6 cycles
 Optimization completed.
    -- Stationary point found.
 Normal termination of Gaussian 16 at Wed Dec  9 16:49:22 2020.

 --------------------------------------------------------------------
 #N Geom=AllCheck Guess=TCheck SCRF=Check GenChk RB3LYP/6-31G(d) Freq
 --------------------------------------------------------------------

 Structure from the checkpoint file:  "JID_2121.chk"
 ------------------------------
 CID_63042721_JID_2121_neutraal
 ------------------------------
 Charge =  0 Multiplicity = 1

 SCF Done:  E(RB3LYP) =  -881.375014800     A.U. after    1 cycles

  Exact polarizability: 132.330  -2.339 113.377  -4.016  -1.299 100.779
 Approx polarizability: 169.324  -2.084 169.823  -6.023   0.095 161.172

                      1                      2                      3
                      A                      A                      A
 Frequencies --     69.6208                91.8562               101.6314
 Red. masses --      5.1019                 3.4226                 4.3132
 Frc consts  --      0.0146                 0.0170                 0.0262
 IR Inten    --      0.7816                 1.5057                 8.0804

                      4                      5                      6
                      A                      A                      A
 Frequencies --    122.7445               208.5642               235.0742
 Red. masses --      4.1898                 2.4870                 3.2716
 Frc consts  --      0.0372                 0.0637                 0.1065
 IR Inten    --      1.6335                 1.9918                 0.8696

                      7                      8                      9
                      A                      A                      A
 Frequencies --    246.8744               250.5663               289.7278
 Red. masses --      2.0827                 3.2295                 1.3770
 Frc consts  --      0.0748                 0.1195                 0.0681
 IR Inten    --      2.1122                 1.0824                19.9565

                     10                     11                     12
                      A                      A                      A
 Frequencies --    310.1524               335.9259               386.4013
 Red. masses --      3.5839                 2.3201                 2.0505
 Frc consts  --      0.2031                 0.1543                 0.1804
 IR Inten    --      1.5772                 6.7875                 3.1939

                     13                     14                     15
                      A                      A                      A
 Frequencies --    409.0577               448.4889               450.4907
 Red. masses --      2.5453                 2.0537                 2.1695
 Frc consts  --      0.2509                 0.2434                 0.2594
 IR Inten    --      0.7598                 1.0327                 0.6626

                     16                     17                     18
                      A                      A                      A
 Frequencies --    485.1256               521.5154               559.1655
 Red. masses --      3.2596                 3.5454                 2.6888
 Frc consts  --      0.4520                 0.5681                 0.4953
 IR Inten    --      4.1990                 1.0985                 1.1134

                     19                     20                     21
                      A                      A                      A
 Frequencies --    657.9475               694.4596               700.1955
 Red. masses --      4.8197                 4.1917                 2.6504
 Frc consts  --      1.2293                 1.1911                 0.7656
 IR Inten    --      7.2754                 0.6734                 0.6814

                     22                     23                     24
                      A                      A                      A
 Frequencies --    739.2274               807.4106               816.6351
 Red. masses --      1.1368                 1.5509                 2.8014
 Frc consts  --      0.3660                 0.5957                 1.1007
 IR Inten    --    147.7594                 0.1027                44.0623

                     25                     26                     27
                      A                      A                      A
 Frequencies --    888.5408               909.8974               923.9640
 Red. masses --      1.5084                 1.4791                 1.4723
 Frc consts  --      0.7016                 0.7215                 0.7406
 IR Inten    --     54.1138                 4.0073                 1.4944

                     28                     29                     30
                      A                      A                      A
 Frequencies --    932.9728               948.3282               985.4953
 Red. masses --      1.8376                 1.9733                 1.6498
 Frc consts  --      0.9424                 1.0456                 0.9440
 IR Inten    --     16.3034                 7.3054                 1.8765

                     31                     32                     33
                      A                      A                      A
 Frequencies --    990.4751              1003.4723              1015.6099
 Red. masses --      1.6096                 2.7713                 2.3067
 Frc consts  --      0.9304                 1.6442                 1.4018
 IR Inten    --      3.9597                 3.4726                 3.6992

                     34                     35                     36
                      A                      A                      A
 Frequencies --   1027.1161              1053.5780              1056.7606
 Red. masses --      2.4098                 2.0718                 2.0794
 Frc consts  --      1.4979                 1.3550                 1.3682
 IR Inten    --     27.8206                 0.2850                 4.9231

                     37                     38                     39
                      A                      A                      A
 Frequencies --   1074.3061              1092.6511              1116.9460
 Red. masses --      1.5747                 4.5849                 1.8019
 Frc consts  --      1.0708                 3.2251                 1.3245
 IR Inten    --     14.1696                69.8964                23.2998

                     40                     41                     42
                      A                      A                      A
 Frequencies --   1158.4754              1190.5672              1200.1957
 Red. masses --      1.2406                 1.3436                 1.3745
 Frc consts  --      0.9810                 1.1221                 1.1665
 IR Inten    --      2.1872                 3.2561                 0.3278

                     43                     44                     45
                      A                      A                      A
 Frequencies --   1219.9567              1243.9463              1259.9524
 Red. masses --      1.2182                 1.4575                 1.5352
 Frc consts  --      1.0682                 1.3288                 1.4359
 IR Inten    --     15.4905                 1.5934                 3.0293

                     46                     47                     48
                      A                      A                      A
 Frequencies --   1291.6312              1324.9679              1331.4031
 Red. masses --      1.4469                 1.4481                 1.2692
 Frc consts  --      1.4223                 1.4978                 1.3255
 IR Inten    --      4.2438                15.8751                15.6774

                     49                     50                     51
                      A                      A                      A
 Frequencies --   1336.9479              1361.2617              1381.5474
 Red. masses --      1.6630                 1.2823                 1.5769
 Frc consts  --      1.7513                 1.4000                 1.7733
 IR Inten    --      6.1216                 6.2355                 0.1299

                     52                     53                     54
                      A                      A                      A
 Frequencies --   1389.1582              1397.6949              1426.1288
 Red. masses --      1.4030                 1.3857                 1.5186
 Frc consts  --      1.5952                 1.5949                 1.8197
 IR Inten    --      1.0419                 1.1233                 9.9004

                     55                     56                     57
                      A                      A                      A
 Frequencies --   1453.8572              1490.9062              1498.2275
 Red. masses --      1.7160                 1.0832                 1.1000
 Frc consts  --      2.1371                 1.4186                 1.4548
 IR Inten    --     16.2164                 0.9953                15.4221

                     58                     59                     60
                      A                      A                      A
 Frequencies --   1500.3750              1509.3182              1510.7670
 Red. masses --      1.0912                 1.1804                 1.2432
 Frc consts  --      1.4472                 1.5843                 1.6718
 IR Inten    --      6.3392                89.2326                 2.4471

                     61                     62                     63
                      A                      A                      A
 Frequencies --   1522.5986              1541.2767              1557.9115
 Red. masses --      1.2180                 1.0783                 1.0963
 Frc consts  --      1.6637                 1.5092                 1.5677
 IR Inten    --     10.0800                 6.2541                 4.5938

                     64                     65                     66
                      A                      A                      A
 Frequencies --   1686.6107              2960.4214              3010.1442
 Red. masses --      1.0888                 1.0749                 1.0689
 Frc consts  --      1.8249                 5.5502                 5.7064
 IR Inten    --     33.7078                96.9077                51.4723

                     67                     68                     69
                      A                      A                      A
 Frequencies --   3034.9173              3054.7855              3057.0943
 Red. masses --      1.0638                 1.0636                 1.0631
 Frc consts  --      5.7731                 5.8479                 5.8537
 IR Inten    --     29.1672                24.6688                14.7479

                     70                     71                     72
                      A                      A                      A
 Frequencies --   3066.8663              3070.2631              3088.0864
 Red. masses --      1.0932                 1.0629                 1.0970
 Frc consts  --      6.0582                 5.9031                 6.1636
 IR Inten    --     49.6484                19.4613                39.0637

                     73                     74                     75
                      A                      A                      A
 Frequencies --   3098.7811              3116.6771              3117.7567
 Red. masses --      1.0911                 1.1029                 1.0972
 Frc consts  --      6.1728                 6.3118                 6.2836
 IR Inten    --     28.1813                13.9311                37.0033

                     76                     77                     78
                      A                      A                      A
 Frequencies --   3120.6609              3130.0795              3206.0659
 Red. masses --      1.1009                 1.0558                 1.1169
 Frc consts  --      6.3164                 6.0947                 6.7638
 IR Inten    --     16.5166                22.1216                11.9934

                     79                     80                     81
                      A                      A                      A
 Frequencies --   3473.7090              3535.7180              3560.4800
 Red. masses --      1.0497                 1.0658                 1.0933
 Frc consts  --      7.4625                 7.8503                 8.1658
 IR Inten    --      1.2468               195.7921                 0.7754

 - Thermochemistry -
 -------------------
 Temperature   298.150 Kelvin.  Pressure   1.00000 Atm.
 Atom     1 has atomic number  6 and mass  12.00000

 Molecular mass:   187.10309 amu.
 Principal axes and moments of inertia in atomic units:
                           1         2         3
     Eigenvalues --  1233.364413519.053783931.16374
           X            0.99992  -0.01185   0.00475
           Y            0.01199   0.99946  -0.03071
           Z           -0.00439   0.03076   0.99952
 This molecule is an asymmetric top.
 Rotational symmetry number  1.
 Warning -- assumption of classical behavior for rotation
           may cause significant error
 Rotational temperatures (Kelvin)      0.07023     0.02461     0.02203
 Rotational constants (GHZ):           1.46327     0.51285     0.45909
 Zero-point vibrational energy     678564.7 (Joules/Mol)
                                  162.18086 (Kcal/Mol)
 Warning -- explicit consideration of  18 degrees of freedom as
           vibrations may cause significant error
 Vibrational temperatures:    100.17   132.16   146.22   176.60   300.08
          (Kelvin)            338.22   355.20   360.51   416.85   446.24
                              483.32   555.95   588.54   645.28   648.16
                              697.99   750.34   804.51   946.64   999.17
                             1007.43  1063.58  1161.68  1174.96  1278.41
                             1309.14  1329.38  1342.34  1364.43  1417.91
                             1425.07  1443.77  1461.24  1477.79  1515.86
                             1520.44  1545.69  1572.08  1607.04  1666.79
                             1712.96  1726.81  1755.25  1789.76  1812.79
                             1858.37  1906.33  1915.59  1923.57  1958.55
                             1987.74  1998.69  2010.97  2051.88  2091.78
                             2145.08  2155.62  2158.70  2171.57  2173.66
                             2190.68  2217.55  2241.49  2426.66  4259.39
                             4330.93  4366.57  4395.16  4398.48  4412.54
                             4417.42  4443.07  4458.45  4484.20  4485.76
                             4489.93  4503.49  4612.81  4997.89  5087.11
                             5122.74

 Zero-point correction=                           0.258452 (Hartree/Particle)
 Thermal correction to Energy=                    0.270677
 Thermal correction to Enthalpy=                  0.271622
 Thermal correction to Gibbs Free Energy=         0.220547
 Sum of electronic and zero-point Energies=           -881.116563
 Sum of electronic and thermal Energies=              -881.104337
 Sum of electronic and thermal Enthalpies=            -881.103393
 Sum of electronic and thermal Free Energies=         -881.154468

                     E (Thermal)             CV                S
                      KCal/Mol        Cal/Mol-Kelvin    Cal/Mol-Kelvin
 Total                  169.853             48.444            107.496
 Electronic               0.000              0.000              0.000
 Translational            0.889              2.981             41.585
 Rotational               0.889              2.981             31.212
 Vibrational            168.075             42.482             34.698
 Vibration     1          0.598              1.969              4.164
 Vibration     2          0.602              1.955              3.620
 Vibration     3          0.604              1.948              3.423
 Vibration     4          0.610              1.930              3.057
 Vibration     5          0.642              1.828              2.056
 Vibration     6          0.655              1.787              1.840
 Vibration     7          0.661              1.768              1.753
 Vibration     8          0.663              1.762              1.727
 Vibration     9          0.686              1.693              1.476
 Vibration    10          0.699              1.654              1.362
 Vibration    11          0.717              1.604              1.231
 Vibration    12          0.755              1.499              1.014
 Vibration    13          0.773              1.451              0.930
 Vibration    14          0.808              1.364              0.800
 Vibration    15          0.809              1.360              0.794
 Vibration    16          0.841              1.283              0.696
 Vibration    17          0.876              1.202              0.606
 Vibration    18          0.915              1.120              0.526

 Optimization completed.
    -- Stationary point found.
 Normal termination of Gaussian 16 at Wed Dec  9 16:57:03 2020.

 ----------------------------------------------------------------------
 # B3LYP/6-311++G(d,p) empiricaldispersion=gd3bj scf=xqc pop=npa geom=c
 heck
 ----------------------------------------------------------------------

 --------------------------------------
 CID_63042721_JID_2121_Energie_neutraal
 --------------------------------------
 Structure from the checkpoint file:  "JID_2121.chk"
 Charge =  0 Multiplicity = 1

 SCF Done:  E(RB3LYP) =  -881.551656105     A.U. after   14 cycles
 Normal termination of Gaussian 16 at Wed Dec  9 16:59:53 2020.

 ----------------------------------------------------------------------
 # B3LYP/6-311++G(d,p) empiricaldispersion=gd3bj scf=xqc pop=npa geom=c
 heck
 ----------------------------------------------------------------------

 ------------------------------------
 CID_63042721_JID_2121_Energie_kation
 ------------------------------------
 Structure from the checkpoint file:  "JID_2121.chk"
 Charge =  1 Multiplicity = 2

 SCF Done:  E(UB3LYP) =  -881.254262564     A.U. after   26 cycles
 Normal termination of Gaussian 16 at Wed Dec  9 17:07:13 2020.
 Gaussian 16:  ES64L-G16RevA.03 25-Dec-2016

 ----------------------------------------------------------------------
 # B3LYP/6-311++G(d,p) empiricaldispersion=gd3bj scf=xqc pop=npa geom=c
 heck
 ----------------------------------------------------------------------

 -----------------------------------
 CID_63042721_JID_2121_Energie_anion
 -----------------------------------
 Structure from the checkpoint file:  "JID_2121.chk"
 Charge = -1 Multiplicity = 2

                         Standard orientation:
 ---------------------------------------------------------------------
 Center     Atomic      Atomic             Coordinates (Angstroms)
 Number     Number       Type             X           Y           Z
 ---------------------------------------------------------------------
      1          6           0        0.682675   -1.258577   -0.242179
      2          6           0        2.162563   -1.365351    0.133831
      3         16           0        3.168017    0.027377   -0.507184
      4          6           0        2.157136    1.380047    0.201594
      5          6           0        0.679730    1.279535   -0.189559
      6          6           0        0.024933   -0.001968    0.319841
      7          6           0       -0.460998   -0.018646    1.755761
      8          6           0       -1.468165   -0.019631    0.627689
      9          6           0       -2.301066    1.229027    0.386213
     10          7           0       -2.676667    1.308088   -1.039834
     11          6           0       -2.268770   -1.287600    0.347294
     12          8           0       -2.469547   -1.508452   -1.036535
     13          1           0        0.574440   -1.267207   -1.332651
     14          1           0        0.177091   -2.154762    0.127885
     15          1           0        2.606035   -2.271841   -0.288821
     16          1           0        2.277221   -1.413029    1.223365
     17          1           0        2.259451    1.372702    1.293237
     18          1           0        2.596291    2.310835   -0.169916
     19          1           0        0.602195    1.322633   -1.284623
     20          1           0        0.168374    2.161877    0.211018
     21          1           0       -0.342774   -0.933777    2.331561
     22          1           0       -0.351646    0.888217    2.347179
     23          1           0       -3.230494    1.144231    0.962991
     24          1           0       -1.789503    2.130779    0.753202
     25          1           0       -3.350517    2.056298   -1.192085
     26          1           0       -1.852153    1.534974   -1.594018
     27          1           0       -1.763021   -2.172490    0.743099
     28          1           0       -3.230057   -1.210810    0.886957
     29          1           0       -2.794387   -0.646669   -1.375237
 ---------------------------------------------------------------------

 SCF Done:  E(UB3LYP) =  -881.540706821     A.U. after   30 cycles

 The electronic state is 2-A.
 Alpha  occ. eigenvalues --  -88.73850 -18.99839 -14.19697 -10.10893 -10.10279
 Alpha  occ. eigenvalues --  -10.09818 -10.09000 -10.08778 -10.08170 -10.07437
 Alpha  occ. eigenvalues --  -10.07211 -10.07199  -7.82486  -5.78861  -5.78534
 Alpha  occ. eigenvalues --   -5.77858  -0.90545  -0.79512  -0.76858  -0.71884
 Alpha  occ. eigenvalues --   -0.66237  -0.62614  -0.58682  -0.56359  -0.52412
 Alpha  occ. eigenvalues --   -0.50492  -0.46535  -0.43066  -0.41195  -0.39315
 Alpha  occ. eigenvalues --   -0.37680  -0.35702  -0.34993  -0.34357  -0.33783
 Alpha  occ. eigenvalues --   -0.32394  -0.31339  -0.30242  -0.29437  -0.28870
 Alpha  occ. eigenvalues --   -0.28263  -0.27009  -0.25501  -0.23684  -0.21463
 Alpha  occ. eigenvalues --   -0.21169  -0.19090  -0.17490  -0.15910  -0.14685
 Alpha  occ. eigenvalues --   -0.12662   0.04513
 Alpha virt. eigenvalues --    0.06725   0.07453   0.07867   0.09034   0.09387
 Alpha virt. eigenvalues --    0.09825   0.10389   0.10811   0.11644   0.12163
 Alpha virt. eigenvalues --    0.12534   0.13013   0.13536   0.14050   0.14667

  Beta  occ. eigenvalues --  -88.73848 -18.99834 -14.19641 -10.10879 -10.10270
  Beta  occ. eigenvalues --  -10.09798 -10.08958 -10.08774 -10.08171 -10.07431
  Beta  occ. eigenvalues --  -10.07188 -10.07168  -7.82485  -5.78860  -5.78531
  Beta  occ. eigenvalues --   -5.77856  -0.90536  -0.79462  -0.76798  -0.71861
  Beta  occ. eigenvalues --   -0.66204  -0.62576  -0.58633  -0.56270  -0.52359
  Beta  occ. eigenvalues --   -0.50452  -0.46476  -0.43028  -0.41159  -0.39257
  Beta  occ. eigenvalues --   -0.37636  -0.35648  -0.34940  -0.34323  -0.33749
  Beta  occ. eigenvalues --   -0.32342  -0.31307  -0.30196  -0.29407  -0.28841
  Beta  occ. eigenvalues --   -0.28233  -0.26967  -0.25478  -0.23658  -0.21430
  Beta  occ. eigenvalues --   -0.21150  -0.19058  -0.17464  -0.15890  -0.14634
  Beta  occ. eigenvalues --   -0.12646
  Beta virt. eigenvalues --    0.06731   0.07744   0.08104   0.08318   0.09503
  Beta virt. eigenvalues --    0.09851   0.10436   0.10698   0.11062   0.12086
  Beta virt. eigenvalues --    0.12421   0.12885   0.13240   0.13593   0.14496

 Mulliken charges and spin densities:
               1          2
     1  C   -0.073652  -0.028366
     2  C   -0.319688  -0.297634
     3  S   -0.205072   0.175227
     4  C   -0.077549  -0.564171
     5  C    0.482655  -0.509471
     6  C   -0.031327  -0.419348
     7  C    0.863600  -1.851917
     8  C   -1.554251   3.029017
     9  C    2.429314  -2.960996
    10  N   -0.661887   0.155335
    11  C   -0.314453  -0.197129
    12  O   -0.258982   0.012403
    13  H    0.128080   0.058078
    14  H    0.109671   0.011166
    15  H    0.163978   0.046196
    16  H    0.080628   0.101452
    17  H    0.115067   0.065167
    18  H   -0.297762   0.532508
    19  H    0.034013   0.085648
    20  H   -0.261539   0.428730
    21  H    0.002880   0.151945
    22  H   -0.172226   0.349418
    23  H   -0.417988   0.597805
    24  H   -0.616181   0.773497
    25  H   -0.291555   0.572962
    26  H   -0.092047   0.332324
    27  H   -0.120542   0.275841
    28  H    0.035546   0.092438
    29  H    0.321267  -0.018125
 Sum of Mulliken charges =  -1.00000   1.00000

 Dipole moment (field-independent basis, Debye):
    X=              4.7924    Y=             -6.1163    Z=              0.9689  Tot=              7.8304
 Quadrupole moment (field-independent basis, Debye-Ang):
   XX=           -146.5948   YY=           -134.1197   ZZ=           -114.1456
   XY=              7.4265   XZ=             -1.8491   YZ=             -1.7707

 Summary of Natural Population Analysis:

                                       Natural Population
                Natural  -----------------------------------------------
    Atom  No    Charge         Core      Valence    Rydberg      Total
 -----------------------------------------------------------------------
      C    1   -0.19289      0.99957     2.18412    0.00919     3.19289
      C    2   -0.24474      0.99959     2.23649    0.00866     3.24474
      S    3    0.07812      4.99963     2.90497    0.01727     7.92188
      C    4   -0.24499      0.99959     2.23405    0.01134     3.24499
      C    5   -0.19912      0.99957     2.18686    0.01270     3.19912
      C    6   -0.03370      0.99949     2.01787    0.01634     3.03370
      C    7   -0.19109      0.99954     2.18145    0.01010     3.19109
      C    8   -0.05311      0.99949     2.03915    0.01448     3.05311
      C    9   -0.08643      0.99957     2.07322    0.01364     3.08643
      N   10   -0.43579      0.99976     2.92418    0.01184     3.93579
      C   11   -0.00421      0.99953     1.99096    0.01372     3.00421
      O   12   -0.38653      0.99990     3.37975    0.00688     4.38653
      H   13    0.10615      0.00000     0.39241    0.00144     0.39385
      H   14    0.10381      0.00000     0.39489    0.00130     0.39619
      H   15    0.10362      0.00000     0.39535    0.00103     0.39638
      H   16    0.09749      0.00000     0.40098    0.00153     0.40251
      H   17    0.09846      0.00000     0.39992    0.00162     0.40154
      H   18    0.10885      0.00000     0.38993    0.00121     0.39115
      H   19    0.10046      0.00000     0.39738    0.00216     0.39954
      H   20    0.11041      0.00000     0.38665    0.00294     0.38959
      H   21    0.10111      0.00000     0.39780    0.00109     0.39889
      H   22    0.10648      0.00000     0.39220    0.00132     0.39352
      H   23    0.09494      0.00000     0.40309    0.00197     0.40506
      H   24    0.09148      0.00000     0.40375    0.00477     0.40852
      H   25    0.18708      0.00000     0.30753    0.00539     0.31292
      H   26    0.17961      0.00000     0.31762    0.00277     0.32039
      H   27    0.08308      0.00000     0.41548    0.00144     0.41692
      H   28    0.07719      0.00000     0.42156    0.00125     0.42281
      H   29    0.24426      0.00000     0.25177    0.00397     0.25574
 =======================================================================
   * Total *   -0.00000     15.99523    34.82138    0.18339    51.00000

 Normal termination of Gaussian 16 at Wed Dec  9 17:15:57 2020.
