 Gaussian 16, Revision A.03,

 -----------------------------------------------------------
 # opt freq B3LYP/6-31G(d) empiricaldispersion=gd3bj scf=xqc
 -----------------------------------------------------------

 ------------------------------
 CID_61383800_JID_7159_neutraal
 ------------------------------
 Symbolic Z-matrix:
 Charge =  0 Multiplicity = 1

 SCF Done:  E(RB3LYP) =  -1110.21841555     A.U. after   15 cycles
 SCF Done:  E(RB3LYP) =  -1110.22578024     A.U. after   12 cycles
 SCF Done:  E(RB3LYP) =  -1110.22634461     A.U. after   12 cycles
 SCF Done:  E(RB3LYP) =  -1110.22666462     A.U. after   12 cycles
 SCF Done:  E(RB3LYP) =  -1110.22707848     A.U. after   12 cycles
 SCF Done:  E(RB3LYP) =  -1110.22801869     A.U. after   13 cycles
 SCF Done:  E(RB3LYP) =  -1110.22555322     A.U. after   15 cycles
 SCF Done:  E(RB3LYP) =  -1110.22895170     A.U. after   12 cycles
 SCF Done:  E(RB3LYP) =  -1110.22957127     A.U. after   12 cycles
 SCF Done:  E(RB3LYP) =  -1110.22969592     A.U. after   11 cycles
 SCF Done:  E(RB3LYP) =  -1110.22975134     A.U. after   10 cycles
 SCF Done:  E(RB3LYP) =  -1110.22975318     A.U. after    8 cycles
 SCF Done:  E(RB3LYP) =  -1110.22975346     A.U. after    8 cycles
 SCF Done:  E(RB3LYP) =  -1110.22975355     A.U. after    6 cycles
 SCF Done:  E(RB3LYP) =  -1110.22975357     A.U. after    7 cycles
 SCF Done:  E(RB3LYP) =  -1110.22975357     A.U. after    7 cycles
 Optimization completed.
    -- Stationary point found.
 Normal termination of Gaussian 16 at Mon Dec 14 13:22:38 2020.

 --------------------------------------------------------------------
 #N Geom=AllCheck Guess=TCheck SCRF=Check GenChk RB3LYP/6-31G(d) Freq
 --------------------------------------------------------------------

 Structure from the checkpoint file:  "JID_7159.chk"
 ------------------------------
 CID_61383800_JID_7159_neutraal
 ------------------------------
 Charge =  0 Multiplicity = 1

 SCF Done:  E(RB3LYP) =  -1110.22975357     A.U. after    1 cycles

  Exact polarizability: 180.703  -7.564 160.236  18.114   5.982 130.990
 Approx polarizability: 235.013  -8.335 258.878  42.555  17.179 214.712

                      1                      2                      3
                      A                      A                      A
 Frequencies --     31.4457                34.5838                53.9928
 Red. masses --      3.2900                 5.2155                 3.6309
 Frc consts  --      0.0019                 0.0037                 0.0062
 IR Inten    --      0.0977                 2.2540                 0.5629

                      4                      5                      6
                      A                      A                      A
 Frequencies --     65.6096               122.1538               124.8647
 Red. masses --      4.0907                 2.2252                 2.9580
 Frc consts  --      0.0104                 0.0196                 0.0272
 IR Inten    --      0.6440                 0.7351                 0.6659

                      7                      8                      9
                      A                      A                      A
 Frequencies --    138.5624               161.9794               171.1752
 Red. masses --      2.5968                 1.3251                 2.6629
 Frc consts  --      0.0294                 0.0205                 0.0460
 IR Inten    --      1.3652                 0.3318                 0.7926

                     10                     11                     12
                      A                      A                      A
 Frequencies --    205.8648               228.4446               234.2158
 Red. masses --      2.8421                 2.2786                 2.8063
 Frc consts  --      0.0710                 0.0701                 0.0907
 IR Inten    --      0.8796                 6.2103                 2.2575

                     13                     14                     15
                      A                      A                      A
 Frequencies --    254.7774               265.8885               322.2732
 Red. masses --      4.6388                 2.0260                 2.6397
 Frc consts  --      0.1774                 0.0844                 0.1615
 IR Inten    --      7.1969                 2.7953                 0.3021

                     16                     17                     18
                      A                      A                      A
 Frequencies --    342.1686               356.3014               407.7832
 Red. masses --      3.5563                 4.5588                 2.8069
 Frc consts  --      0.2453                 0.3410                 0.2750
 IR Inten    --      2.3276                 2.8064                 4.8161

                     19                     20                     21
                      A                      A                      A
 Frequencies --    418.7080               441.9581               472.0158
 Red. masses --      2.7814                 4.9198                 3.5497
 Frc consts  --      0.2873                 0.5662                 0.4660
 IR Inten    --      3.5604                 3.7457                 9.0144

                     22                     23                     24
                      A                      A                      A
 Frequencies --    496.0487               507.6602               527.0073
 Red. masses --      4.4513                 5.1454                 3.5502
 Frc consts  --      0.6453                 0.7813                 0.5809
 IR Inten    --     14.9079                 7.3119                12.0056

                     25                     26                     27
                      A                      A                      A
 Frequencies --    565.3362               615.4956               636.3840
 Red. masses --      5.1134                 4.2593                 3.5410
 Frc consts  --      0.9629                 0.9507                 0.8449
 IR Inten    --     30.3403                 9.8419                 1.0775

                     28                     29                     30
                      A                      A                      A
 Frequencies --    668.3635               720.4279               752.0367
 Red. masses --      3.5197                 4.0082                 1.8066
 Frc consts  --      0.9264                 1.2257                 0.6020
 IR Inten    --     13.9139                52.7417                 7.9278

                     31                     32                     33
                      A                      A                      A
 Frequencies --    770.4774               783.8558               810.0795
 Red. masses --      2.7492                 2.1277                 1.4123
 Frc consts  --      0.9616                 0.7702                 0.5460
 IR Inten    --    202.3732                 4.6121                 1.5682

                     34                     35                     36
                      A                      A                      A
 Frequencies --    842.2055               869.2368               874.2810
 Red. masses --      3.3468                 2.0100                 1.5210
 Frc consts  --      1.3987                 0.8948                 0.6850
 IR Inten    --      8.0303                 6.5186                 7.1393

                     37                     38                     39
                      A                      A                      A
 Frequencies --    899.3092               910.8893               936.2625
 Red. masses --      1.7058                 1.5720                 1.3611
 Frc consts  --      0.8128                 0.7685                 0.7030
 IR Inten    --      7.3938                 0.3024                 0.5427

                     40                     41                     42
                      A                      A                      A
 Frequencies --    972.6931               979.5630               981.5940
 Red. masses --      2.2577                 1.3754                 2.7440
 Frc consts  --      1.2585                 0.7776                 1.5578
 IR Inten    --      9.7506                 7.1883                47.8587

                     43                     44                     45
                      A                      A                      A
 Frequencies --   1037.9948              1059.8704              1061.1110
 Red. masses --      2.6255                 1.8139                 2.2105
 Frc consts  --      1.6667                 1.2005                 1.4664
 IR Inten    --     41.1257                 4.2212                 2.6542

                     46                     47                     48
                      A                      A                      A
 Frequencies --   1067.9973              1087.4000              1109.1925
 Red. masses --      2.1141                 1.5912                 2.3380
 Frc consts  --      1.4208                 1.1085                 1.6947
 IR Inten    --      4.4782                15.4438                21.8672

                     49                     50                     51
                      A                      A                      A
 Frequencies --   1112.2210              1123.4295              1137.0393
 Red. masses --      2.7636                 3.5547                 1.7033
 Frc consts  --      2.0142                 2.6433                 1.2974
 IR Inten    --     13.8015                55.1287                27.2920

                     52                     53                     54
                      A                      A                      A
 Frequencies --   1164.2562              1187.3287              1194.6327
 Red. masses --      1.3813                 1.5964                 1.1824
 Frc consts  --      1.1032                 1.3259                 0.9942
 IR Inten    --      9.0069                 0.1903                 1.8878

                     55                     56                     57
                      A                      A                      A
 Frequencies --   1201.7739              1225.5603              1233.9484
 Red. masses --      1.9540                 1.4443                 1.8798
 Frc consts  --      1.6627                 1.2781                 1.6864
 IR Inten    --      6.8499                 4.5563                18.0824

                     58                     59                     60
                      A                      A                      A
 Frequencies --   1238.4997              1261.0156              1292.1687
 Red. masses --      1.5064                 2.1724                 1.3432
 Frc consts  --      1.3614                 2.0353                 1.3214
 IR Inten    --     11.6494                19.2172                 7.6675

                     61                     62                     63
                      A                      A                      A
 Frequencies --   1308.3948              1312.5378              1318.4432
 Red. masses --      1.4308                 1.7440                 4.0371
 Frc consts  --      1.4431                 1.7702                 4.1346
 IR Inten    --      6.6245                12.2626               154.3548

                     64                     65                     66
                      A                      A                      A
 Frequencies --   1343.5480              1353.6960              1356.4067
 Red. masses --      1.6201                 1.3304                 1.3029
 Frc consts  --      1.7231                 1.4364                 1.4123
 IR Inten    --      8.6855                 3.5196                 4.8707

                     67                     68                     69
                      A                      A                      A
 Frequencies --   1375.2551              1397.0582              1418.6339
 Red. masses --      3.5781                 1.4102                 1.3235
 Frc consts  --      3.9872                 1.6217                 1.5693
 IR Inten    --     10.1060                 5.6360                32.3948

                     70                     71                     72
                      A                      A                      A
 Frequencies --   1450.3782              1481.9078              1491.6174
 Red. masses --      1.2399                 1.0944                 1.1656
 Frc consts  --      1.5368                 1.4160                 1.5280
 IR Inten    --      5.1522                 1.9036                 4.7137

                     73                     74                     75
                      A                      A                      A
 Frequencies --   1508.3503              1510.8445              1515.2111
 Red. masses --      1.6998                 1.4616                 1.0599
 Frc consts  --      2.2786                 1.9657                 1.4337
 IR Inten    --      3.1016                 3.9634                 7.2303

                     76                     77                     78
                      A                      A                      A
 Frequencies --   1519.2947              1528.3324              1529.6309
 Red. masses --      1.0678                 1.1057                 1.0422
 Frc consts  --      1.4522                 1.5216                 1.4367
 IR Inten    --      2.2120                 3.1113                 6.4328

                     79                     80                     81
                      A                      A                      A
 Frequencies --   1532.5861              1534.4993              1539.7412
 Red. masses --      1.9104                 1.1036                 1.0572
 Frc consts  --      2.6438                 1.5310                 1.4767
 IR Inten    --     15.8177                 8.1146                 8.0269

                     82                     83                     84
                      A                      A                      A
 Frequencies --   1649.6379              1669.3153              3021.6254
 Red. masses --      6.3753                 6.3470                 1.0823
 Frc consts  --     10.2219                10.4207                 5.8221
 IR Inten    --      0.4095                 1.1773                22.0592

                     85                     86                     87
                      A                      A                      A
 Frequencies --   3024.9318              3052.2251              3053.1783
 Red. masses --      1.0706                 1.0637                 1.0378
 Frc consts  --      5.7717                 5.8385                 5.6997
 IR Inten    --     35.8538                29.6219                37.3603

                     88                     89                     90
                      A                      A                      A
 Frequencies --   3054.5314              3083.3867              3088.9717
 Red. masses --      1.0416                 1.0662                 1.0823
 Frc consts  --      5.7259                 5.9724                 6.0843
 IR Inten    --     29.1761                 5.7366                20.7915

                     91                     92                     93
                      A                      A                      A
 Frequencies --   3093.6487              3096.8874              3118.1648
 Red. masses --      1.0747                 1.0904                 1.1005
 Frc consts  --      6.0604                 6.1616                 6.3045
 IR Inten    --     43.4649                 7.2829                37.5983

                     94                     95                     96
                      A                      A                      A
 Frequencies --   3121.0492              3147.0756              3153.8469
 Red. masses --      1.1017                 1.1067                 1.1023
 Frc consts  --      6.3227                 6.4580                 6.4601
 IR Inten    --     21.6669                 5.5293                 9.6402

                     97                     98                     99
                      A                      A                      A
 Frequencies --   3155.3713              3156.4243              3178.6237
 Red. masses --      1.1021                 1.1003                 1.0862
 Frc consts  --      6.4650                 6.4587                 6.4663
 IR Inten    --     24.9533                13.2346                 4.8269

                    100                    101                    102
                      A                      A                      A
 Frequencies --   3190.2882              3202.7640              3214.0357
 Red. masses --      1.0892                 1.0931                 1.0955
 Frc consts  --      6.5313                 6.6064                 6.6675
 IR Inten    --     13.8932                35.2221                14.9893

 - Thermochemistry -
 -------------------
 Temperature   298.150 Kelvin.  Pressure   1.00000 Atm.
 Atom     1 has atomic number  6 and mass  12.00000

 Molecular mass:   253.11365 amu.
 Principal axes and moments of inertia in atomic units:
                           1         2         3
     Eigenvalues --  2200.642836426.812376865.78058
           X            0.99999   0.00487  -0.00113
           Y           -0.00487   0.99999  -0.00196
           Z            0.00112   0.00196   1.00000
 This molecule is an asymmetric top.
 Rotational symmetry number  1.
 Warning -- assumption of classical behavior for rotation
           may cause significant error
 Rotational temperatures (Kelvin)      0.03936     0.01348     0.01262
 Rotational constants (GHZ):           0.82010     0.28081     0.26286
 Zero-point vibrational energy     805217.0 (Joules/Mol)
                                  192.45148 (Kcal/Mol)
 Warning -- explicit consideration of  26 degrees of freedom as
           vibrations may cause significant error
 Vibrational temperatures:     45.24    49.76    77.68    94.40   175.75
          (Kelvin)            179.65   199.36   233.05   246.28   296.19
                              328.68   336.98   366.57   382.55   463.68
                              492.30   512.64   586.71   602.43   635.88
                              679.13   713.70   730.41   758.25   813.39
                              885.56   915.61   961.63  1036.54  1082.01
                             1108.55  1127.79  1165.52  1211.75  1250.64
                             1257.90  1293.91  1310.57  1347.07  1399.49
                             1409.37  1412.29  1493.44  1524.92  1526.70
                             1536.61  1564.53  1595.88  1600.24  1616.36
                             1635.95  1675.10  1708.30  1718.81  1729.08
                             1763.31  1775.38  1781.92  1814.32  1859.14
                             1882.49  1888.45  1896.95  1933.07  1947.67
                             1951.57  1978.69  2010.06  2041.10  2086.77
                             2132.13  2146.10  2170.18  2173.77  2180.05
                             2185.93  2198.93  2200.80  2205.05  2207.80
                             2215.34  2373.46  2401.77  4347.44  4352.20
                             4391.47  4392.84  4394.79  4436.31  4444.34
                             4451.07  4455.73  4486.34  4490.49  4527.94
                             4537.68  4539.88  4541.39  4573.33  4590.11
                             4608.06  4624.28

 Zero-point correction=                           0.306691 (Hartree/Particle)
 Thermal correction to Energy=                    0.323592
 Thermal correction to Enthalpy=                  0.324536
 Thermal correction to Gibbs Free Energy=         0.261386
 Sum of electronic and zero-point Energies=          -1109.923063
 Sum of electronic and thermal Energies=             -1109.906161
 Sum of electronic and thermal Enthalpies=           -1109.905217
 Sum of electronic and thermal Free Energies=        -1109.968367

                     E (Thermal)             CV                S
                      KCal/Mol        Cal/Mol-Kelvin    Cal/Mol-Kelvin
 Total                  203.057             64.582            132.911
 Electronic               0.000              0.000              0.000
 Translational            0.889              2.981             42.486
 Rotational               0.889              2.981             32.940
 Vibrational            201.280             58.620             57.484
 Vibration     1          0.594              1.983              5.736
 Vibration     2          0.594              1.983              5.547
 Vibration     3          0.596              1.976              4.666
 Vibration     4          0.597              1.971              4.281
 Vibration     5          0.610              1.931              3.066
 Vibration     6          0.610              1.928              3.024
 Vibration     7          0.614              1.915              2.824
 Vibration     8          0.622              1.889              2.527
 Vibration     9          0.626              1.878              2.423
 Vibration    10          0.640              1.832              2.080
 Vibration    11          0.651              1.798              1.891
 Vibration    12          0.654              1.789              1.846
 Vibration    13          0.665              1.755              1.697
 Vibration    14          0.672              1.736              1.623
 Vibration    15          0.707              1.631              1.299
 Vibration    16          0.721              1.591              1.202
 Vibration    17          0.732              1.562              1.138
 Vibration    18          0.772              1.453              0.934
 Vibration    19          0.782              1.430              0.896
 Vibration    20          0.802              1.379              0.820
 Vibration    21          0.829              1.312              0.732
 Vibration    22          0.852              1.259              0.668
 Vibration    23          0.863              1.233              0.639
 Vibration    24          0.882              1.190              0.594
 Vibration    25          0.921              1.106              0.513
 Vibration    26          0.975              0.999              0.424

 Optimization completed.
    -- Stationary point found.
 Normal termination of Gaussian 16 at Mon Dec 14 13:37:19 2020.

 ----------------------------------------------------------------------
 # B3LYP/6-311++G(d,p) empiricaldispersion=gd3bj scf=xqc pop=npa geom=c
 heck
 ----------------------------------------------------------------------

 --------------------------------------
 CID_61383800_JID_7159_Energie_neutraal
 --------------------------------------
 Structure from the checkpoint file:  "JID_7159.chk"
 Charge =  0 Multiplicity = 1

 SCF Done:  E(RB3LYP) =  -1110.44908636     A.U. after   16 cycles
 Normal termination of Gaussian 16 at Mon Dec 14 13:45:09 2020.

 ----------------------------------------------------------------------
 # B3LYP/6-311++G(d,p) empiricaldispersion=gd3bj scf=xqc pop=npa geom=c
 heck
 ----------------------------------------------------------------------

 ------------------------------------
 CID_61383800_JID_7159_Energie_kation
 ------------------------------------
 Structure from the checkpoint file:  "JID_7159.chk"
 Charge =  1 Multiplicity = 2

 SCF Done:  E(UB3LYP) =  -1110.15020468     A.U. after   29 cycles
 Normal termination of Gaussian 16 at Mon Dec 14 14:06:18 2020.
 Gaussian 16:  ES64L-G16RevA.03 25-Dec-2016

 ----------------------------------------------------------------------
 # B3LYP/6-311++G(d,p) empiricaldispersion=gd3bj scf=xqc pop=npa geom=c
 heck
 ----------------------------------------------------------------------

 -----------------------------------
 CID_61383800_JID_7159_Energie_anion
 -----------------------------------
 Structure from the checkpoint file:  "JID_7159.chk"
 Charge = -1 Multiplicity = 2

                         Standard orientation:
 ---------------------------------------------------------------------
 Center     Atomic      Atomic             Coordinates (Angstroms)
 Number     Number       Type             X           Y           Z
 ---------------------------------------------------------------------
      1          6           0        4.517733    1.167338   -0.801927
      2          6           0        3.871596   -0.159396   -1.209481
      3          6           0        2.943174   -0.768157   -0.153297
      4         16           0        1.385281    0.153248    0.004333
      5          8           0        1.663257    1.449059    0.643777
      6          8           0        0.711621    0.097362   -1.297184
      7          7           0        0.535024   -0.845366    1.084951
      8          6           0        0.825818   -0.567968    2.497908
      9          6           0       -0.878812   -1.158909    0.783380
     10          6           0       -1.090280   -2.203964   -0.336675
     11          6           0       -2.542055   -1.964304   -0.814399
     12          6           0       -2.768097   -0.497486   -0.512320
     13          6           0       -3.756099    0.355338   -0.996046
     14          6           0       -3.766264    1.689153   -0.577955
     15          6           0       -2.797339    2.160610    0.312075
     16          6           0       -1.810389    1.303262    0.805499
     17          6           0       -1.806913   -0.023305    0.385759
     18          1           0        3.766828    1.942474   -0.633031
     19          1           0        5.203705    1.511843   -1.582897
     20          1           0        5.092941    1.053975    0.124986
     21          1           0        3.306769   -0.041607   -2.141231
     22          1           0        4.650889   -0.905500   -1.409772
     23          1           0        2.634532   -1.781219   -0.422868
     24          1           0        3.407936   -0.790409    0.837280
     25          1           0        0.316160    0.326011    2.876180
     26          1           0        0.512269   -1.437699    3.082165
     27          1           0        1.899503   -0.431959    2.641129
     28          1           0       -1.245537   -1.588176    1.726053
     29          1           0       -0.397580   -1.986637   -1.151426
     30          1           0       -0.908979   -3.223234    0.016499
     31          1           0       -2.683539   -2.208693   -1.872573
     32          1           0       -3.248186   -2.587410   -0.246295
     33          1           0       -4.500897   -0.004880   -1.701548
     34          1           0       -4.525189    2.367606   -0.957840
     35          1           0       -2.804506    3.203495    0.615962
     36          1           0       -1.038251    1.682977    1.467381
 ---------------------------------------------------------------------

 SCF Done:  E(UB3LYP) =  -1110.43911068     A.U. after   31 cycles

 The electronic state is 2-A.
 Alpha  occ. eigenvalues --  -88.95846 -19.01648 -19.01520 -14.24741 -10.12323
 Alpha  occ. eigenvalues --  -10.10866 -10.10514 -10.08642 -10.08395 -10.08388
 Alpha  occ. eigenvalues --  -10.08233 -10.08167 -10.08157 -10.08098 -10.07827
 Alpha  occ. eigenvalues --  -10.06981 -10.06584  -8.02080  -5.98368  -5.98335
 Alpha  occ. eigenvalues --   -5.98127  -1.01678  -0.90782  -0.84176  -0.77693
 Alpha  occ. eigenvalues --   -0.72044  -0.71307  -0.66519  -0.63718  -0.62775
 Alpha  occ. eigenvalues --   -0.61280  -0.58840  -0.53159  -0.52040  -0.50170
 Alpha  occ. eigenvalues --   -0.48779  -0.46553  -0.43803  -0.40476  -0.39830
 Alpha  occ. eigenvalues --   -0.39033  -0.37653  -0.37308  -0.36129  -0.35594
 Alpha  occ. eigenvalues --   -0.35253  -0.33742  -0.33339  -0.32382  -0.31854
 Alpha  occ. eigenvalues --   -0.31765  -0.31078  -0.28332  -0.27043  -0.26874
 Alpha  occ. eigenvalues --   -0.26559  -0.26431  -0.25684  -0.25594  -0.25521
 Alpha  occ. eigenvalues --   -0.24450  -0.23618  -0.22210  -0.20833  -0.19999
 Alpha  occ. eigenvalues --   -0.16295  -0.15585  -0.14451   0.04115
 Alpha virt. eigenvalues --    0.06039   0.06722   0.07282   0.07418   0.08160
 Alpha virt. eigenvalues --    0.08348   0.08545   0.09131   0.09394   0.09776
 Alpha virt. eigenvalues --    0.10977   0.11147   0.11399   0.11462   0.12518

  Beta  occ. eigenvalues --  -88.95843 -19.01641 -19.01512 -14.24741 -10.12309
  Beta  occ. eigenvalues --  -10.10838 -10.10468 -10.08621 -10.08397 -10.08375
  Beta  occ. eigenvalues --  -10.08233 -10.08146 -10.08139 -10.08090 -10.07795
  Beta  occ. eigenvalues --  -10.06962 -10.06567  -8.02077  -5.98357  -5.98333
  Beta  occ. eigenvalues --   -5.98125  -1.01657  -0.90765  -0.84160  -0.77661
  Beta  occ. eigenvalues --   -0.72006  -0.71265  -0.66469  -0.63675  -0.62738
  Beta  occ. eigenvalues --   -0.61230  -0.58791  -0.53109  -0.51974  -0.50117
  Beta  occ. eigenvalues --   -0.48756  -0.46498  -0.43760  -0.40436  -0.39790
  Beta  occ. eigenvalues --   -0.39004  -0.37624  -0.37271  -0.36095  -0.35557
  Beta  occ. eigenvalues --   -0.35224  -0.33716  -0.33311  -0.32357  -0.31816
  Beta  occ. eigenvalues --   -0.31725  -0.31038  -0.28272  -0.27004  -0.26839
  Beta  occ. eigenvalues --   -0.26520  -0.26389  -0.25659  -0.25560  -0.25489
  Beta  occ. eigenvalues --   -0.24431  -0.23580  -0.22186  -0.20813  -0.19967
  Beta  occ. eigenvalues --   -0.16196  -0.15502  -0.14390
  Beta virt. eigenvalues --    0.06336   0.06767   0.06976   0.07530   0.07999
  Beta virt. eigenvalues --    0.08277   0.08710   0.08925   0.09591   0.09740
  Beta virt. eigenvalues --    0.10162   0.11196   0.11349   0.11703   0.11838

 Mulliken charges and spin densities:
               1          2
     1  C    0.308083  -0.853026
     2  C   -0.313364   0.249172
     3  C   -0.083852  -0.129453
     4  S    0.483587  -1.038578
     5  O   -0.069000   0.052824
     6  O   -0.015089  -0.012381
     7  N    0.018928   0.156206
     8  C    1.071639  -1.246216
     9  C   -1.265901   0.483855
    10  C    0.522548  -0.752588
    11  C   -0.318725  -0.449225
    12  C    0.021155   0.100286
    13  C    0.278974  -0.538679
    14  C   -0.186605  -0.149297
    15  C   -0.551862   0.114608
    16  C    0.137083  -0.201155
    17  C    0.579971   0.341462
    18  H    0.088151   0.075404
    19  H   -0.041826   0.165122
    20  H    0.001570   0.132178
    21  H    0.120927   0.035837
    22  H   -0.560075   0.756440
    23  H   -0.183321   0.396803
    24  H   -0.359474   0.565877
    25  H   -0.035748   0.220541
    26  H   -0.650903   0.818754
    27  H   -0.153490   0.338858
    28  H   -0.177553   0.377556
    29  H    0.202824  -0.036087
    30  H   -0.472255   0.662515
    31  H    0.103716   0.063923
    32  H   -0.060561   0.223353
    33  H    0.066100   0.073475
    34  H    0.122049   0.005846
    35  H    0.094343   0.061900
    36  H    0.277954  -0.066112
 Sum of Mulliken charges =  -1.00000   1.00000

 Dipole moment (field-independent basis, Debye):
    X=             -4.9601    Y=              4.3590    Z=             -3.2637  Tot=              7.3658
 Quadrupole moment (field-independent basis, Debye-Ang):
   XX=           -179.0295   YY=           -156.3383   ZZ=           -150.7344
   XY=              2.2213   XZ=              3.0440   YZ=              9.8600

 Summary of Natural Population Analysis:

                                       Natural Population
                Natural  -----------------------------------------------
    Atom  No    Charge         Core      Valence    Rydberg      Total
 -----------------------------------------------------------------------
      C    1   -0.28983      0.99966     2.28437    0.00580     3.28983
      C    2   -0.20206      0.99963     2.19289    0.00954     3.20206
      C    3   -0.28063      0.99957     2.26923    0.01183     3.28063
      S    4    1.10008      4.99922     1.80113    0.09957     6.89992
      O    5   -0.46725      0.99991     3.46203    0.00531     4.46725
      O    6   -0.46371      0.99991     3.45849    0.00531     4.46371
      N    7   -0.37556      0.99972     2.85787    0.01797     3.87556
      C    8   -0.17469      0.99961     2.16581    0.00927     3.17469
      C    9   -0.01185      0.99952     1.99559    0.01674     3.01185
      C   10   -0.18612      0.99962     2.17765    0.00885     3.18612
      C   11   -0.19599      0.99961     2.18856    0.00782     3.19599
      C   12   -0.00969      0.99946     2.00025    0.00998     3.00969
      C   13   -0.09718      0.99951     2.08958    0.00809     3.09718
      C   14   -0.10270      0.99957     2.09355    0.00957     3.10270
      C   15   -0.10240      0.99957     2.09384    0.00899     3.10240
      C   16   -0.09266      0.99950     2.08333    0.00983     3.09266
      C   17   -0.01496      0.99944     2.00535    0.01017     3.01496
      H   18    0.10829      0.00000     0.39066    0.00104     0.39171
      H   19    0.09629      0.00000     0.40299    0.00073     0.40371
      H   20    0.09769      0.00000     0.40133    0.00098     0.40231
      H   21    0.10378      0.00000     0.39502    0.00120     0.39622
      H   22    0.10471      0.00000     0.39313    0.00216     0.39529
      H   23    0.11854      0.00000     0.37959    0.00186     0.38146
      H   24    0.11338      0.00000     0.38451    0.00211     0.38662
      H   25    0.09233      0.00000     0.40632    0.00135     0.40767
      H   26    0.10423      0.00000     0.39333    0.00245     0.39577
      H   27    0.10302      0.00000     0.39562    0.00136     0.39698
      H   28    0.11017      0.00000     0.38724    0.00259     0.38983
      H   29    0.10994      0.00000     0.38836    0.00170     0.39006
      H   30    0.10271      0.00000     0.39555    0.00175     0.39729
      H   31    0.10148      0.00000     0.39768    0.00084     0.39852
      H   32    0.10236      0.00000     0.39647    0.00116     0.39764
      H   33    0.09677      0.00000     0.40210    0.00114     0.40323
      H   34    0.09623      0.00000     0.40303    0.00074     0.40377
      H   35    0.09796      0.00000     0.40128    0.00076     0.40204
      H   36    0.10733      0.00000     0.39107    0.00159     0.39267
 =======================================================================
   * Total *   -0.00000     20.99303    46.72482    0.28215    68.00000

 Normal termination of Gaussian 16 at Mon Dec 14 14:27:19 2020.
