 Gaussian 16, Revision A.03,

 -----------------------------------------------------------
 # opt freq B3LYP/6-31G(d) empiricaldispersion=gd3bj scf=xqc
 -----------------------------------------------------------

 ------------------------------
 CID_143618177_JID_681_neutraal
 ------------------------------
 Symbolic Z-matrix:
 Charge =  0 Multiplicity = 1

 SCF Done:  E(RB3LYP) =  -802.787116482     A.U. after   14 cycles
 SCF Done:  E(RB3LYP) =  -802.792811100     A.U. after   13 cycles
 SCF Done:  E(RB3LYP) =  -802.793712366     A.U. after   12 cycles
 SCF Done:  E(RB3LYP) =  -802.793814297     A.U. after   12 cycles
 SCF Done:  E(RB3LYP) =  -802.794148136     A.U. after   12 cycles
 SCF Done:  E(RB3LYP) =  -802.794340633     A.U. after   11 cycles
 SCF Done:  E(RB3LYP) =  -802.794665257     A.U. after   12 cycles
 SCF Done:  E(RB3LYP) =  -802.794737975     A.U. after   11 cycles
 SCF Done:  E(RB3LYP) =  -802.794805812     A.U. after   11 cycles
 SCF Done:  E(RB3LYP) =  -802.794815974     A.U. after   10 cycles
 SCF Done:  E(RB3LYP) =  -802.794817926     A.U. after   10 cycles
 SCF Done:  E(RB3LYP) =  -802.794819154     A.U. after   10 cycles
 SCF Done:  E(RB3LYP) =  -802.794819690     A.U. after    8 cycles
 Optimization completed.
    -- Stationary point found.
 Normal termination of Gaussian 16 at Tue Dec  8 13:09:41 2020.

 --------------------------------------------------------------------
 #N Geom=AllCheck Guess=TCheck SCRF=Check GenChk RB3LYP/6-31G(d) Freq
 --------------------------------------------------------------------

 Structure from the checkpoint file:  "JID_681.chk"
 ------------------------------
 CID_143618177_JID_681_neutraal
 ------------------------------
 Charge =  0 Multiplicity = 1

 SCF Done:  E(RB3LYP) =  -802.794819690     A.U. after    1 cycles

  Exact polarizability: 117.600  -1.298 102.459   1.462  -0.519  74.287
 Approx polarizability: 165.567   3.659 149.438   6.722  -3.070 117.379

                      1                      2                      3
                      A                      A                      A
 Frequencies --     67.1068                91.3672               135.3440
 Red. masses --      5.3403                 3.1559                 1.2535
 Frc consts  --      0.0142                 0.0155                 0.0135
 IR Inten    --      0.7697                 1.0565                 0.4386

                      4                      5                      6
                      A                      A                      A
 Frequencies --    178.5509               183.7945               231.7167
 Red. masses --      2.2786                 2.3097                 1.1922
 Frc consts  --      0.0428                 0.0460                 0.0377
 IR Inten    --      2.3340                 0.8939                 0.2579

                      7                      8                      9
                      A                      A                      A
 Frequencies --    267.5861               274.7047               302.7672
 Red. masses --      3.0382                 3.2574                 3.0520
 Frc consts  --      0.1282                 0.1448                 0.1648
 IR Inten    --      0.4419                 2.7911                 2.1631

                     10                     11                     12
                      A                      A                      A
 Frequencies --    349.2926               390.8719               417.2083
 Red. masses --      3.7661                 2.2290                 2.1641
 Frc consts  --      0.2707                 0.2006                 0.2219
 IR Inten    --      3.9899                 6.8397                 2.6787

                     13                     14                     15
                      A                      A                      A
 Frequencies --    433.5358               471.3436               526.1640
 Red. masses --      9.0252                 3.6263                 2.4214
 Frc consts  --      0.9994                 0.4747                 0.3950
 IR Inten    --      2.4899                 6.6358                 1.3812

                     16                     17                     18
                      A                      A                      A
 Frequencies --    672.8649               679.8224               727.1265
 Red. masses --      4.8379                 6.5993                 4.1083
 Frc consts  --      1.2905                 1.7970                 1.2798
 IR Inten    --     19.6291                 3.7310                 3.9404

                     19                     20                     21
                      A                      A                      A
 Frequencies --    802.6128               846.6013               914.5888
 Red. masses --      2.4804                 1.7023                 2.3323
 Frc consts  --      0.9414                 0.7188                 1.1495
 IR Inten    --      1.1255                12.5959                 9.8847

                     22                     23                     24
                      A                      A                      A
 Frequencies --    935.6839               957.6304               992.0553
 Red. masses --      1.9997                 1.8619                 1.6586
 Frc consts  --      1.0315                 1.0060                 0.9618
 IR Inten    --      6.2947                 4.6714                19.3503

                     25                     26                     27
                      A                      A                      A
 Frequencies --   1042.7928              1079.3574              1112.6818
 Red. masses --      2.3248                 2.3273                 1.8533
 Frc consts  --      1.4895                 1.5975                 1.3519
 IR Inten    --      3.5918                13.8539                34.4304

                     28                     29                     30
                      A                      A                      A
 Frequencies --   1122.2995              1153.7577              1174.8736
 Red. masses --      1.9002                 1.3434                 1.6217
 Frc consts  --      1.4101                 1.0536                 1.3189
 IR Inten    --     30.6229                34.2237                29.1771

                     31                     32                     33
                      A                      A                      A
 Frequencies --   1193.3146              1250.9625              1295.9856
 Red. masses --      1.4248                 2.1619                 1.7626
 Frc consts  --      1.1954                 1.9933                 1.7442
 IR Inten    --      6.4870                79.1249                 4.6843

                     34                     35                     36
                      A                      A                      A
 Frequencies --   1304.6311              1311.5715              1345.1570
 Red. masses --      1.3113                 1.3164                 1.3596
 Frc consts  --      1.3150                 1.3342                 1.4495
 IR Inten    --      3.9312                25.3808                 5.1095

                     37                     38                     39
                      A                      A                      A
 Frequencies --   1396.4084              1406.8178              1420.6940
 Red. masses --      1.3994                 1.6370                 1.4768
 Frc consts  --      1.6078                 1.9088                 1.7561
 IR Inten    --      2.0447                61.2613                 4.1173

                     40                     41                     42
                      A                      A                      A
 Frequencies --   1435.5328              1440.5077              1472.2918
 Red. masses --      1.4507                 1.2302                 1.1850
 Frc consts  --      1.7614                 1.5040                 1.5134
 IR Inten    --     42.5553                 4.6175                21.3525

                     43                     44                     45
                      A                      A                      A
 Frequencies --   1487.0886              1508.7493              1518.9023
 Red. masses --      1.0912                 1.0974                 1.0645
 Frc consts  --      1.4217                 1.4717                 1.4469
 IR Inten    --      3.6443                 2.7737                 6.6120

                     46                     47                     48
                      A                      A                      A
 Frequencies --   1522.0449              1528.0846              1530.4847
 Red. masses --      1.0984                 1.0441                 1.0590
 Frc consts  --      1.4992                 1.4365                 1.4615
 IR Inten    --     24.8815                 8.6486                 2.9165

                     49                     50                     51
                      A                      A                      A
 Frequencies --   1540.0488              1773.6615              3028.5842
 Red. masses --      1.0865                11.0954                 1.0780
 Frc consts  --      1.5182                20.5652                 5.8260
 IR Inten    --     10.5134               379.9271                 4.4103

                     52                     53                     54
                      A                      A                      A
 Frequencies --   3033.6587              3038.6772              3043.3448
 Red. masses --      1.0640                 1.0448                 1.0375
 Frc consts  --      5.7691                 5.6840                 5.6617
 IR Inten    --     18.3313                48.6776                33.4398

                     55                     56                     57
                      A                      A                      A
 Frequencies --   3064.0515              3068.4068              3078.6606
 Red. masses --      1.0732                 1.0592                 1.0894
 Frc consts  --      5.9362                 5.8758                 6.0835
 IR Inten    --     17.8588                12.7372                52.3747

                     58                     59                     60
                      A                      A                      A
 Frequencies --   3107.3493              3108.2503              3112.9499
 Red. masses --      1.0983                 1.1018                 1.1039
 Frc consts  --      6.2482                 6.2719                 6.3026
 IR Inten    --     14.7100                25.6915                28.1636

                     61                     62                     63
                      A                      A                      A
 Frequencies --   3115.4488              3119.1965              3185.7682
 Red. masses --      1.1037                 1.1047                 1.0990
 Frc consts  --      6.3116                 6.3327                 6.5717
 IR Inten    --     23.1485                29.6517                 3.7987

 - Thermochemistry -
 -------------------
 Temperature   298.150 Kelvin.  Pressure   1.00000 Atm.
 Atom     1 has atomic number  6 and mass  12.00000

 Molecular mass:   159.07179 amu.
 Principal axes and moments of inertia in atomic units:
                           1         2         3
     Eigenvalues --  1035.254001993.060272736.66822
           X            0.99932  -0.03643  -0.00589
           Y            0.03649   0.99928   0.01030
           Z            0.00551  -0.01051   0.99993
 This molecule is an asymmetric top.
 Rotational symmetry number  1.
 Warning -- assumption of classical behavior for rotation
           may cause significant error
 Rotational temperatures (Kelvin)      0.08366     0.04346     0.03165
 Rotational constants (GHZ):           1.74328     0.90551     0.65947
 Zero-point vibrational energy     522309.9 (Joules/Mol)
                                  124.83505 (Kcal/Mol)
 Warning -- explicit consideration of  15 degrees of freedom as
           vibrations may cause significant error
 Vibrational temperatures:     96.55   131.46   194.73   256.89   264.44
          (Kelvin)            333.39   385.00   395.24   435.61   502.55
                              562.38   600.27   623.76   678.16   757.03
                              968.10   978.11  1046.17  1154.78  1218.07
                             1315.89  1346.24  1377.82  1427.35  1500.35
                             1552.95  1600.90  1614.74  1660.00  1690.38
                             1716.91  1799.86  1864.63  1877.07  1887.06
                             1935.38  2009.12  2024.10  2044.06  2065.41
                             2072.57  2118.30  2139.59  2170.75  2185.36
                             2189.88  2198.57  2202.03  2215.79  2551.90
                             4357.46  4364.76  4371.98  4378.69  4408.49
                             4414.75  4429.51  4470.78  4472.08  4478.84
                             4482.44  4487.83  4583.61

 Zero-point correction=                           0.198937 (Hartree/Particle)
 Thermal correction to Energy=                    0.209680
 Thermal correction to Enthalpy=                  0.210624
 Thermal correction to Gibbs Free Energy=         0.162744
 Sum of electronic and zero-point Energies=           -802.595882
 Sum of electronic and thermal Energies=              -802.585140
 Sum of electronic and thermal Enthalpies=            -802.584196
 Sum of electronic and thermal Free Energies=         -802.632076

                     E (Thermal)             CV                S
                      KCal/Mol        Cal/Mol-Kelvin    Cal/Mol-Kelvin
 Total                  131.576             40.016            100.772
 Electronic               0.000              0.000              0.000
 Translational            0.889              2.981             41.102
 Rotational               0.889              2.981             30.114
 Vibrational            129.798             34.054             29.557
 Vibration     1          0.598              1.970              4.236
 Vibration     2          0.602              1.955              3.631
 Vibration     3          0.613              1.918              2.869
 Vibration     4          0.629              1.869              2.344
 Vibration     5          0.631              1.862              2.290
 Vibration     6          0.653              1.792              1.866
 Vibration     7          0.673              1.733              1.612
 Vibration     8          0.677              1.720              1.566
 Vibration     9          0.694              1.668              1.402
 Vibration    10          0.727              1.577              1.169
 Vibration    11          0.759              1.490              0.997
 Vibration    12          0.780              1.433              0.902
 Vibration    13          0.794              1.397              0.847
 Vibration    14          0.828              1.314              0.734
 Vibration    15          0.881              1.192              0.596

                           ! Non-Optimized Parameters !
 Normal termination of Gaussian 16 at Tue Dec  8 13:23:55 2020.

 ----------------------------------------------------------------------
 # B3LYP/6-311++G(d,p) empiricaldispersion=gd3bj scf=xqc pop=npa geom=c
 heck
 ----------------------------------------------------------------------

 --------------------------------------
 CID_143618177_JID_681_Energie_neutraal
 --------------------------------------
 Structure from the checkpoint file:  "JID_681.chk"
 Charge =  0 Multiplicity = 1

 SCF Done:  E(RB3LYP) =  -802.937797136     A.U. after   14 cycles
 Normal termination of Gaussian 16 at Tue Dec  8 13:29:29 2020.

 ----------------------------------------------------------------------
 # B3LYP/6-311++G(d,p) empiricaldispersion=gd3bj scf=xqc pop=npa geom=c
 heck
 ----------------------------------------------------------------------

 ------------------------------------
 CID_143618177_JID_681_Energie_kation
 ------------------------------------
 Structure from the checkpoint file:  "JID_681.chk"
 Charge =  1 Multiplicity = 2

 SCF Done:  E(UB3LYP) =  -802.623610956     A.U. after   25 cycles
 Normal termination of Gaussian 16 at Tue Dec  8 13:40:24 2020.
 Gaussian 16:  ES64L-G16RevA.03 25-Dec-2016

 ----------------------------------------------------------------------
 # B3LYP/6-311++G(d,p) empiricaldispersion=gd3bj scf=xqc pop=npa geom=c
 heck
 ----------------------------------------------------------------------

 -----------------------------------
 CID_143618177_JID_681_Energie_anion
 -----------------------------------
 Structure from the checkpoint file:  "JID_681.chk"
 Charge = -1 Multiplicity = 2

                         Standard orientation:
 ---------------------------------------------------------------------
 Center     Atomic      Atomic             Coordinates (Angstroms)
 Number     Number       Type             X           Y           Z
 ---------------------------------------------------------------------
      1          6           0        3.348768    0.268946   -0.492356
      2          6           0        1.989282    0.082361    0.194684
      3          6           0        1.213374    1.405008    0.214832
      4          6           0       -0.171775    1.317976    0.862383
      5          7           0       -1.222388    0.774512   -0.006362
      6          6           0       -1.565295   -0.551837   -0.036420
      7          8           0       -2.664691   -0.966116   -0.353261
      8         16           0       -0.244992   -1.735689    0.392552
      9          6           0        1.218838   -1.049964   -0.492046
     10          6           0       -2.218121    1.720378   -0.503772
     11          1           0        3.946929   -0.648056   -0.447960
     12          1           0        3.923248    1.070253   -0.013941
     13          1           0        3.220969    0.535693   -1.548939
     14          1           0        2.165140   -0.222444    1.236007
     15          1           0        1.807211    2.145770    0.766244
     16          1           0        1.102958    1.789076   -0.808843
     17          1           0       -0.502506    2.320726    1.150058
     18          1           0       -0.119412    0.725001    1.781189
     19          1           0        0.901749   -0.753874   -1.497431
     20          1           0        1.870799   -1.922653   -0.604674
     21          1           0       -2.886855    2.062706    0.297496
     22          1           0       -1.706251    2.586582   -0.934045
     23          1           0       -2.820287    1.232368   -1.269207
 ---------------------------------------------------------------------

 SCF Done:  E(UB3LYP) =  -802.924916692     A.U. after   31 cycles

 The electronic state is 2-A.
 Alpha  occ. eigenvalues --  -88.74984 -19.00260 -14.25006 -10.19432 -10.10828
 Alpha  occ. eigenvalues --  -10.10441 -10.10046 -10.08082 -10.06630 -10.05836
 Alpha  occ. eigenvalues --   -7.83650  -5.80032  -5.79648  -5.79050  -0.95477
 Alpha  occ. eigenvalues --   -0.84532  -0.72979  -0.67608  -0.64495  -0.60306
 Alpha  occ. eigenvalues --   -0.55501  -0.55082  -0.47146  -0.44132  -0.41015
 Alpha  occ. eigenvalues --   -0.38384  -0.37021  -0.35434  -0.34059  -0.33137
 Alpha  occ. eigenvalues --   -0.31608  -0.31232  -0.30321  -0.29089  -0.27742
 Alpha  occ. eigenvalues --   -0.26692  -0.26570  -0.23767  -0.22899  -0.22145
 Alpha  occ. eigenvalues --   -0.17495  -0.15273  -0.14026   0.04562
 Alpha virt. eigenvalues --    0.06509   0.07892   0.08420   0.09266   0.09671
 Alpha virt. eigenvalues --    0.10046   0.10396   0.11208   0.11792   0.12284
 Alpha virt. eigenvalues --    0.12992   0.13194   0.13464   0.13771   0.15243

  Beta  occ. eigenvalues --  -88.74980 -19.00259 -14.25002 -10.19429 -10.10803
  Beta  occ. eigenvalues --  -10.10419 -10.10011 -10.08071 -10.06591 -10.05788
  Beta  occ. eigenvalues --   -7.83646  -5.80026  -5.79641  -5.79048  -0.95472
  Beta  occ. eigenvalues --   -0.84516  -0.72945  -0.67572  -0.64448  -0.60247
  Beta  occ. eigenvalues --   -0.55441  -0.54999  -0.47064  -0.44091  -0.40976
  Beta  occ. eigenvalues --   -0.38349  -0.36985  -0.35382  -0.34016  -0.33087
  Beta  occ. eigenvalues --   -0.31571  -0.31190  -0.30280  -0.29061  -0.27695
  Beta  occ. eigenvalues --   -0.26652  -0.26502  -0.23711  -0.22853  -0.22098
  Beta  occ. eigenvalues --   -0.17485  -0.15243  -0.14012
  Beta virt. eigenvalues --    0.07196   0.07473   0.08628   0.09095   0.09667
  Beta virt. eigenvalues --    0.10173   0.10704   0.10995   0.11740   0.12164
  Beta virt. eigenvalues --    0.12529   0.13338   0.13407   0.14050   0.14253

 Mulliken charges and spin densities:
               1          2
     1  C    1.533767  -2.157696
     2  C   -1.756786   2.249442
     3  C    1.207633  -1.531848
     4  C   -0.245768  -0.575129
     5  N    0.070953   0.214317
     6  C   -0.393134   0.059382
     7  O   -0.298916   0.007301
     8  S    0.482002  -0.253603
     9  C    0.505809  -0.977230
    10  C    0.696568  -1.014595
    11  H   -0.435238   0.567080
    12  H   -0.560135   0.715519
    13  H   -0.241297   0.385323
    14  H   -0.104541   0.248068
    15  H   -0.276474   0.426817
    16  H   -0.125740   0.286227
    17  H   -0.722367   0.921513
    18  H    0.183623  -0.006667
    19  H    0.073500   0.121270
    20  H    0.049024   0.183946
    21  H   -0.151178   0.321355
    22  H   -0.518768   0.681486
    23  H    0.027465   0.127724
 Sum of Mulliken charges =  -1.00000   1.00000

 Dipole moment (field-independent basis, Debye):
    X=             -2.9166    Y=             -4.6693    Z=              0.5170  Tot=              5.5296
 Quadrupole moment (field-independent basis, Debye-Ang):
   XX=           -135.4660   YY=           -123.7787   ZZ=            -96.3448
   XY=             -6.3994   XZ=             -0.6993   YZ=             -2.3327

 Summary of Natural Population Analysis:

                                       Natural Population
                Natural  -----------------------------------------------
    Atom  No    Charge         Core      Valence    Rydberg      Total
 -----------------------------------------------------------------------
      C    1   -0.28272      0.99965     2.27668    0.00640     3.28272
      C    2   -0.11802      0.99958     2.10765    0.01079     3.11802
      C    3   -0.19429      0.99960     2.18374    0.01095     3.19429
      C    4   -0.08518      0.99959     2.07353    0.01206     3.08518
      N    5   -0.26494      0.99963     2.75379    0.01152     3.76494
      C    6    0.27838      0.99965     1.69385    0.02812     2.72162
      O    7   -0.31449      0.99987     3.30762    0.00701     4.31449
      S    8    0.07562      4.99957     2.90869    0.01612     7.92438
      C    9   -0.24657      0.99954     2.23511    0.01192     3.24657
      C   10   -0.17534      0.99963     2.16709    0.00861     3.17534
      H   11    0.09924      0.00000     0.39927    0.00148     0.40076
      H   12    0.10573      0.00000     0.39239    0.00189     0.39427
      H   13    0.09860      0.00000     0.39991    0.00149     0.40140
      H   14    0.09536      0.00000     0.40275    0.00189     0.40464
      H   15    0.10729      0.00000     0.38992    0.00279     0.39271
      H   16    0.10026      0.00000     0.39735    0.00239     0.39974
      H   17    0.10475      0.00000     0.39302    0.00223     0.39525
      H   18    0.10064      0.00000     0.39774    0.00162     0.39936
      H   19    0.10529      0.00000     0.39318    0.00153     0.39471
      H   20    0.10899      0.00000     0.38989    0.00112     0.39101
      H   21    0.09304      0.00000     0.40582    0.00114     0.40696
      H   22    0.10040      0.00000     0.39784    0.00176     0.39960
      H   23    0.10796      0.00000     0.39094    0.00110     0.39204
 =======================================================================
   * Total *   -0.00000     13.99631    28.85777    0.14592    43.00000

 Normal termination of Gaussian 16 at Tue Dec  8 13:53:17 2020.
