 Gaussian 16, Revision A.03,

 -----------------------------------------------------------
 # opt freq B3LYP/6-31G(d) empiricaldispersion=gd3bj scf=xqc
 -----------------------------------------------------------

 -----------------------------
 CID_71331542_JID_381_neutraal
 -----------------------------
 Symbolic Z-matrix:
 Charge =  0 Multiplicity = 1

 SCF Done:  E(RB3LYP) =  -925.221032091     A.U. after   15 cycles
 SCF Done:  E(RB3LYP) =  -925.226682662     A.U. after   13 cycles
 SCF Done:  E(RB3LYP) =  -925.227209459     A.U. after   12 cycles
 SCF Done:  E(RB3LYP) =  -925.227332968     A.U. after   11 cycles
 SCF Done:  E(RB3LYP) =  -925.227342550     A.U. after   10 cycles
 SCF Done:  E(RB3LYP) =  -925.227353382     A.U. after   11 cycles
 SCF Done:  E(RB3LYP) =  -925.227522918     A.U. after   15 cycles
 SCF Done:  E(RB3LYP) =  -925.227512381     A.U. after   14 cycles
 SCF Done:  E(RB3LYP) =  -925.227789392     A.U. after   13 cycles
 SCF Done:  E(RB3LYP) =  -925.228436535     A.U. after   13 cycles
 SCF Done:  E(RB3LYP) =  -925.232521914     A.U. after   12 cycles
 SCF Done:  E(RB3LYP) =  -925.232539558     A.U. after   10 cycles
 SCF Done:  E(RB3LYP) =  -925.232545183     A.U. after    9 cycles
 SCF Done:  E(RB3LYP) =  -925.232546838     A.U. after    8 cycles
 SCF Done:  E(RB3LYP) =  -925.232548960     A.U. after    9 cycles
 SCF Done:  E(RB3LYP) =  -925.232549397     A.U. after    8 cycles
 Optimization completed.
    -- Stationary point found.
 Normal termination of Gaussian 16 at Tue Dec  8 10:34:30 2020.

 --------------------------------------------------------------------
 #N Geom=AllCheck Guess=TCheck SCRF=Check GenChk RB3LYP/6-31G(d) Freq
 --------------------------------------------------------------------

 Structure from the checkpoint file:  "JID_381.chk"
 -----------------------------
 CID_71331542_JID_381_neutraal
 -----------------------------
 Charge =  0 Multiplicity = 1

 SCF Done:  E(RB3LYP) =  -925.232549397     A.U. after    1 cycles

  Exact polarizability:  95.136   1.525  67.478  -0.250   1.160  46.830
 Approx polarizability: 137.981   3.425 125.445   2.025   2.931  74.965

                      1                      2                      3
                      A                      A                      A
 Frequencies --     36.7520                83.0401               147.3383
 Red. masses --      6.6751                 4.7444                10.2683
 Frc consts  --      0.0053                 0.0193                 0.1313
 IR Inten    --      0.8423                 3.9095                 3.9212

                      4                      5                      6
                      A                      A                      A
 Frequencies --    164.4817               247.9648               301.1105
 Red. masses --      4.6866                 1.6137                 9.2682
 Frc consts  --      0.0747                 0.0585                 0.4951
 IR Inten    --      2.6358                71.8517                11.7623

                      7                      8                      9
                      A                      A                      A
 Frequencies --    341.4598               357.3054               416.4773
 Red. masses --      5.4130                 4.4810                 2.0855
 Frc consts  --      0.3719                 0.3371                 0.2131
 IR Inten    --     13.5693                14.7701                16.4386

                     10                     11                     12
                      A                      A                      A
 Frequencies --    434.6284               494.6711               512.2869
 Red. masses --      4.2461                 5.9099                 5.3513
 Frc consts  --      0.4726                 0.8520                 0.8274
 IR Inten    --     23.7349                15.1691                11.7470

                     13                     14                     15
                      A                      A                      A
 Frequencies --    522.5699               588.8380               597.8090
 Red. masses --      1.7913                17.4769                 2.3631
 Frc consts  --      0.2882                 3.5703                 0.4976
 IR Inten    --     96.9645               182.4779                12.9740

                     16                     17                     18
                      A                      A                      A
 Frequencies --    721.9925               789.2866               852.6302
 Red. masses --      8.2371                15.4421                 4.0674
 Frc consts  --      2.5298                 5.6679                 1.7422
 IR Inten    --     12.6657               255.3268                21.9777

                     19                     20                     21
                      A                      A                      A
 Frequencies --    912.8063               954.7331              1096.8433
 Red. masses --      7.0171                 2.5897                 3.2646
 Frc consts  --      3.4448                 1.3908                 2.3140
 IR Inten    --     21.4591                 1.2501               109.7877

                     22                     23                     24
                      A                      A                      A
 Frequencies --   1126.6272              1148.2472              1157.3047
 Red. masses --      4.6636                 1.2172                 1.3777
 Frc consts  --      3.4876                 0.9455                 1.0872
 IR Inten    --     79.4100                 1.1979                63.3365

                     25                     26                     27
                      A                      A                      A
 Frequencies --   1188.1554              1238.2785              1311.6013
 Red. masses --      3.0649                 7.0272                 2.8968
 Frc consts  --      2.5492                 6.3485                 2.9361
 IR Inten    --    131.3218                56.4986                 5.2670

                     28                     29                     30
                      A                      A                      A
 Frequencies --   1396.3682              1398.6377              1450.3560
 Red. masses --      3.4637                 2.0989                 1.1013
 Frc consts  --      3.9792                 2.4191                 1.3650
 IR Inten    --     99.9250               143.3551                21.3558

                     31                     32                     33
                      A                      A                      A
 Frequencies --   1635.9246              1867.9403              3091.5568
 Red. masses --      8.5179                11.3205                 1.0614
 Frc consts  --     13.4311                23.2724                 5.9773
 IR Inten    --     15.5481               428.8847                 2.9807

                     34                     35                     36
                      A                      A                      A
 Frequencies --   3132.9132              3650.6870              3694.8673
 Red. masses --      1.1023                 1.0809                 1.0660
 Frc consts  --      6.3746                 8.4880                 8.5741
 IR Inten    --      1.3090                81.0302               120.2491

 - Thermochemistry -
 -------------------
 Temperature   298.150 Kelvin.  Pressure   1.00000 Atm.
 Atom     1 has atomic number  6 and mass  12.00000

 Molecular mass:   163.98918 amu.
 Principal axes and moments of inertia in atomic units:
                           1         2         3
     Eigenvalues --   629.083492527.166772768.10942
           X            0.99997   0.00156  -0.00705
           Y           -0.00149   0.99995   0.00961
           Z            0.00707  -0.00960   0.99993
 This molecule is an asymmetric top.
 Rotational symmetry number  1.
 Warning -- assumption of classical behavior for rotation
           may cause significant error
 Rotational temperatures (Kelvin)      0.13768     0.03427     0.03129
 Rotational constants (GHZ):           2.86884     0.71414     0.65198
 Zero-point vibrational energy     233657.5 (Joules/Mol)
                                   55.84549 (Kcal/Mol)
 Warning -- explicit consideration of  15 degrees of freedom as
           vibrations may cause significant error
 Vibrational temperatures:     52.88   119.48   211.99   236.65   356.77
          (Kelvin)            433.23   491.28   514.08   599.22   625.33
                              711.72   737.07   751.86   847.21   860.11
                             1038.79  1135.61  1226.74  1313.32  1373.65
                             1578.11  1620.97  1652.07  1665.10  1709.49
                             1781.61  1887.10  2009.06  2012.33  2086.74
                             2353.73  2687.55  4448.06  4507.56  5252.52
                             5316.09

 Zero-point correction=                           0.088995 (Hartree/Particle)
 Thermal correction to Energy=                    0.098408
 Thermal correction to Enthalpy=                  0.099352
 Thermal correction to Gibbs Free Energy=         0.053326
 Sum of electronic and zero-point Energies=           -925.143554
 Sum of electronic and thermal Energies=              -925.134142
 Sum of electronic and thermal Enthalpies=            -925.133197
 Sum of electronic and thermal Free Energies=         -925.179224

                     E (Thermal)             CV                S
                      KCal/Mol        Cal/Mol-Kelvin    Cal/Mol-Kelvin
 Total                   61.752             33.750             96.871
 Electronic               0.000              0.000              0.000
 Translational            0.889              2.981             41.192
 Rotational               0.889              2.981             29.866
 Vibrational             59.974             27.789             25.812
 Vibration     1          0.594              1.982              5.427
 Vibration     2          0.600              1.961              3.818
 Vibration     3          0.617              1.906              2.706
 Vibration     4          0.623              1.886              2.498
 Vibration     5          0.662              1.766              1.745
 Vibration     6          0.693              1.672              1.411
 Vibration     7          0.721              1.593              1.205
 Vibration     8          0.732              1.560              1.134
 Vibration     9          0.780              1.434              0.904
 Vibration    10          0.795              1.395              0.844
 Vibration    11          0.850              1.262              0.672
 Vibration    12          0.867              1.223              0.628
 Vibration    13          0.878              1.200              0.604
 Vibration    14          0.946              1.056              0.469
 Vibration    15          0.956              1.036              0.453

 Optimization completed.
    -- Stationary point found.
 Normal termination of Gaussian 16 at Tue Dec  8 10:37:03 2020.

 ----------------------------------------------------------------------
 # B3LYP/6-311++G(d,p) empiricaldispersion=gd3bj scf=xqc pop=npa geom=c
 heck
 ----------------------------------------------------------------------

 -------------------------------------
 CID_71331542_JID_381_Energie_neutraal
 -------------------------------------
 Structure from the checkpoint file:  "JID_381.chk"
 Charge =  0 Multiplicity = 1

 SCF Done:  E(RB3LYP) =  -925.423829540     A.U. after   15 cycles
 Normal termination of Gaussian 16 at Tue Dec  8 10:37:36 2020.

 ----------------------------------------------------------------------
 # B3LYP/6-311++G(d,p) empiricaldispersion=gd3bj scf=xqc pop=npa geom=c
 heck
 ----------------------------------------------------------------------

 -----------------------------------
 CID_71331542_JID_381_Energie_kation
 -----------------------------------
 Structure from the checkpoint file:  "JID_381.chk"
 Charge =  1 Multiplicity = 2

 SCF Done:  E(UB3LYP) =  -925.052624131     A.U. after   26 cycles
 Normal termination of Gaussian 16 at Tue Dec  8 10:41:29 2020.
 Gaussian 16:  ES64L-G16RevA.03 25-Dec-2016

 ----------------------------------------------------------------------
 # B3LYP/6-311++G(d,p) empiricaldispersion=gd3bj scf=xqc pop=npa geom=c
 heck
 ----------------------------------------------------------------------

 ----------------------------------
 CID_71331542_JID_381_Energie_anion
 ----------------------------------
 Structure from the checkpoint file:  "JID_381.chk"
 Charge = -1 Multiplicity = 2

                         Standard orientation:
 ---------------------------------------------------------------------
 Center     Atomic      Atomic             Coordinates (Angstroms)
 Number     Number       Type             X           Y           Z
 ---------------------------------------------------------------------
      1          6           0       -1.146489    0.999598    0.013177
      2          6           0       -2.470524    0.220491   -0.021186
      3          8           0       -3.610820    0.618286   -0.058937
      4          7           0       -2.061172   -1.113782   -0.002150
      5          7           0       -0.706529   -1.300162    0.057908
      6          6           0       -0.167367   -0.131815    0.065832
      7         16           0        1.596282    0.047948    0.140888
      8          8           0        1.848314    1.246521    0.921345
      9          8           0        2.223021   -1.236998    0.412462
     10          8           0        1.924508    0.447333   -1.419902
     11          1           0       -1.089322    1.656360    0.887046
     12          1           0       -1.035786    1.624753   -0.879514
     13          1           0       -2.668340   -1.921226    0.020880
     14          1           0        2.252947   -0.360224   -1.859608
 ---------------------------------------------------------------------

 SCF Done:  E(UB3LYP) =  -925.446363137     A.U. after   24 cycles

 The electronic state is 2-A.
 Alpha  occ. eigenvalues --  -88.92987 -19.03773 -18.98719 -18.98241 -18.94920
 Alpha  occ. eigenvalues --  -14.22344 -14.16460 -10.12086 -10.04307 -10.04193
 Alpha  occ. eigenvalues --   -7.99058  -5.95477  -5.95305  -5.95041  -1.01061
 Alpha  occ. eigenvalues --   -0.91162  -0.90547  -0.88328  -0.86487  -0.67890
 Alpha  occ. eigenvalues --   -0.61654  -0.55593  -0.46909  -0.46456  -0.39403
 Alpha  occ. eigenvalues --   -0.36112  -0.34779  -0.34321  -0.33240  -0.30567
 Alpha  occ. eigenvalues --   -0.29266  -0.27933  -0.24863  -0.23954  -0.22646
 Alpha  occ. eigenvalues --   -0.21157  -0.19420  -0.18789  -0.17948  -0.16014
 Alpha  occ. eigenvalues --   -0.11092  -0.09912   0.04904
 Alpha virt. eigenvalues --    0.09037   0.10627   0.12227   0.13386   0.15744
 Alpha virt. eigenvalues --    0.16170   0.16531   0.16990   0.17858   0.18802
 Alpha virt. eigenvalues --    0.19218   0.20008   0.20647   0.20800   0.21759

  Beta  occ. eigenvalues --  -88.92960 -19.03653 -18.98683 -18.98166 -18.94697
  Beta  occ. eigenvalues --  -14.22461 -14.15588 -10.11856 -10.04382 -10.03816
  Beta  occ. eigenvalues --   -7.99030  -5.95380  -5.95285  -5.95034  -1.00871
  Beta  occ. eigenvalues --   -0.90673  -0.90315  -0.88225  -0.85802  -0.67367
  Beta  occ. eigenvalues --   -0.60948  -0.55153  -0.46555  -0.46006  -0.39161
  Beta  occ. eigenvalues --   -0.35844  -0.34452  -0.33918  -0.32216  -0.30429
  Beta  occ. eigenvalues --   -0.28818  -0.27634  -0.24022  -0.23434  -0.21651
  Beta  occ. eigenvalues --   -0.19817  -0.19188  -0.18386  -0.17735  -0.15169
  Beta  occ. eigenvalues --   -0.10661  -0.08009
  Beta virt. eigenvalues --    0.09067   0.10632   0.12180   0.12469   0.13983
  Beta virt. eigenvalues --    0.15841   0.16524   0.16961   0.17702   0.17853
  Beta virt. eigenvalues --    0.19062   0.19337   0.20098   0.20659   0.21234

 Mulliken charges and spin densities:
               1          2
     1  C   -0.053968  -0.054239
     2  C   -0.082351   0.134957
     3  O   -0.451300   0.083732
     4  N   -0.065815  -0.058104
     5  N   -0.162997   0.380268
     6  C   -0.867380   0.256339
     7  S    0.630581   0.094628
     8  O   -0.269070   0.012649
     9  O   -0.261630  -0.000214
    10  O   -0.178702  -0.003742
    11  H    0.144087   0.054043
    12  H    0.112118   0.071055
    13  H    0.274505   0.000744
    14  H    0.231921   0.027884
 Sum of Mulliken charges =  -1.00000   1.00000

 Dipole moment (field-independent basis, Debye):
    X=              1.4775    Y=             -1.1940    Z=             -2.0783  Tot=              2.8157
 Quadrupole moment (field-independent basis, Debye-Ang):
   XX=           -102.7253   YY=            -77.4857   ZZ=            -68.9056
   XY=              5.7899   XZ=             -6.2608   YZ=              1.8275

 Summary of Natural Population Analysis:

                                       Natural Population
                Natural  -----------------------------------------------
    Atom  No    Charge         Core      Valence    Rydberg      Total
 -----------------------------------------------------------------------
      C    1   -0.26663      0.99956     2.25962    0.00745     3.26663
      C    2    0.36730      0.99972     1.60994    0.02304     2.63270
      O    3   -0.30564      0.99987     3.29858    0.00719     4.30564
      N    4   -0.25025      0.99969     2.73714    0.01342     3.75025
      N    5   -0.00708      0.99961     2.49178    0.01569     3.50708
      C    6    0.01106      0.99948     1.96719    0.02228     2.98894
      S    7    1.13491      4.99928     1.76045    0.10537     6.86509
      O    8   -0.45666      0.99990     3.45071    0.00605     4.45666
      O    9   -0.46168      0.99990     3.45525    0.00653     4.46168
      O   10   -0.43958      0.99991     3.43120    0.00847     4.43958
      H   11    0.12420      0.00000     0.37443    0.00137     0.37580
      H   12    0.12098      0.00000     0.37756    0.00146     0.37902
      H   13    0.18896      0.00000     0.30841    0.00263     0.31104
      H   14    0.24012      0.00000     0.25647    0.00341     0.25988
 =======================================================================
   * Total *   -0.00000     13.99692    27.77873    0.22435    42.00000

 Normal termination of Gaussian 16 at Tue Dec  8 10:45:31 2020.
