 Gaussian 16, Revision A.03,

 -----------------------------------------------------------
 # opt freq B3LYP/6-31G(d) empiricaldispersion=gd3bj scf=xqc
 -----------------------------------------------------------

 -------------------------------
 CID_150133676_JID_1000_neutraal
 -------------------------------
 Symbolic Z-matrix:
 Charge =  0 Multiplicity = 1

 SCF Done:  E(RB3LYP) =  -950.963996546     A.U. after   14 cycles
 SCF Done:  E(RB3LYP) =  -950.970678842     A.U. after   13 cycles
 SCF Done:  E(RB3LYP) =  -950.971043720     A.U. after   12 cycles
 SCF Done:  E(RB3LYP) =  -950.971044170     A.U. after   13 cycles
 SCF Done:  E(RB3LYP) =  -950.971893035     A.U. after   12 cycles
 SCF Done:  E(RB3LYP) =  -950.971985672     A.U. after   12 cycles
 SCF Done:  E(RB3LYP) =  -950.971955908     A.U. after   12 cycles
 SCF Done:  E(RB3LYP) =  -950.972198763     A.U. after   11 cycles
 SCF Done:  E(RB3LYP) =  -950.972292174     A.U. after   12 cycles
 SCF Done:  E(RB3LYP) =  -950.972340063     A.U. after   12 cycles
 SCF Done:  E(RB3LYP) =  -950.972716040     A.U. after   13 cycles
 SCF Done:  E(RB3LYP) =  -950.972716497     A.U. after   13 cycles
 SCF Done:  E(RB3LYP) =  -950.972734730     A.U. after   11 cycles
 SCF Done:  E(RB3LYP) =  -950.972736064     A.U. after    9 cycles
 SCF Done:  E(RB3LYP) =  -950.972737409     A.U. after   11 cycles
 SCF Done:  E(RB3LYP) =  -950.972737652     A.U. after    9 cycles
 Optimization completed.
    -- Stationary point found.
 Normal termination of Gaussian 16 at Tue Dec  8 16:25:05 2020.

 --------------------------------------------------------------------
 #N Geom=AllCheck Guess=TCheck SCRF=Check GenChk RB3LYP/6-31G(d) Freq
 --------------------------------------------------------------------

 Structure from the checkpoint file:  "JID_1000.chk"
 -------------------------------
 CID_150133676_JID_1000_neutraal
 -------------------------------
 Charge =  0 Multiplicity = 1

 SCF Done:  E(RB3LYP) =  -950.972737652     A.U. after    1 cycles

  Exact polarizability:  97.034   2.994  85.033   1.655  -0.346  76.377
 Approx polarizability: 140.374   8.149 134.258  10.706   9.474 117.290

                      1                      2                      3
                      A                      A                      A
 Frequencies --     30.5151                66.3459               156.8848
 Red. masses --      5.2763                 5.8831                 2.2273
 Frc consts  --      0.0029                 0.0153                 0.0323
 IR Inten    --      0.5352                 4.3319                 2.1571

                      4                      5                      6
                      A                      A                      A
 Frequencies --    173.4435               198.9779               220.7678
 Red. masses --      3.2367                 2.2906                 1.9706
 Frc consts  --      0.0574                 0.0534                 0.0566
 IR Inten    --      3.1584                 1.0459                 3.2667

                      7                      8                      9
                      A                      A                      A
 Frequencies --    244.3474               245.8538               260.0306
 Red. masses --      2.2541                 1.7632                 3.0979
 Frc consts  --      0.0793                 0.0628                 0.1234
 IR Inten    --      2.4766                 1.1870                 3.0984

                     10                     11                     12
                      A                      A                      A
 Frequencies --    279.2483               284.5140               309.4147
 Red. masses --      2.2077                 1.4833                 3.2367
 Frc consts  --      0.1014                 0.0707                 0.1826
 IR Inten    --     30.0091                48.7981                 3.6228

                     13                     14                     15
                      A                      A                      A
 Frequencies --    333.2021               348.4879               355.2593
 Red. masses --      4.0564                 3.2296                 4.4529
 Frc consts  --      0.2653                 0.2311                 0.3311
 IR Inten    --      3.6691                 5.5895                12.2497

                     16                     17                     18
                      A                      A                      A
 Frequencies --    411.2326               469.2369               523.0837
 Red. masses --      4.4187                 6.5490                 2.4831
 Frc consts  --      0.4403                 0.8496                 0.4003
 IR Inten    --      8.3483                36.8857               129.1689

                     19                     20                     21
                      A                      A                      A
 Frequencies --    530.5283               576.8645               670.6860
 Red. masses --      1.7118                 3.5958                 3.1444
 Frc consts  --      0.2839                 0.7050                 0.8333
 IR Inten    --    172.0240                 2.3449                28.7997

                     22                     23                     24
                      A                      A                      A
 Frequencies --    676.6457               741.9404               781.5011
 Red. masses --      1.3238                 4.6731                 3.3089
 Frc consts  --      0.3571                 1.5156                 1.1907
 IR Inten    --     21.9756                28.4868                 8.2577

                     25                     26                     27
                      A                      A                      A
 Frequencies --    819.8482               937.2922               980.8333
 Red. masses --      2.9862                 2.5252                 1.5341
 Frc consts  --      1.1826                 1.3070                 0.8696
 IR Inten    --      8.6765                 8.3889                19.7499

                     28                     29                     30
                      A                      A                      A
 Frequencies --    992.7634              1001.0013              1056.5675
 Red. masses --      1.3633                 1.4117                 5.6751
 Frc consts  --      0.7917                 0.8334                 3.7327
 IR Inten    --     24.6855                19.8848                65.6345

                     31                     32                     33
                      A                      A                      A
 Frequencies --   1099.7179              1131.1434              1158.2368
 Red. masses --      3.1726                 2.7198                 2.2500
 Frc consts  --      2.2606                 2.0504                 1.7784
 IR Inten    --    108.8307                28.2709                 8.8984

                     34                     35                     36
                      A                      A                      A
 Frequencies --   1184.1253              1202.6791              1267.3757
 Red. masses --      1.8649                 2.1948                 1.3709
 Frc consts  --      1.5407                 1.8704                 1.2974
 IR Inten    --      8.2812                27.1948                14.6623

                     37                     38                     39
                      A                      A                      A
 Frequencies --   1304.7986              1315.0366              1364.4236
 Red. masses --      2.5445                 1.9819                 1.2227
 Frc consts  --      2.5524                 2.0193                 1.3412
 IR Inten    --    113.3767                86.6574                15.6253

                     40                     41                     42
                      A                      A                      A
 Frequencies --   1382.0984              1427.5442              1469.3162
 Red. masses --      2.6968                 1.2185                 1.3081
 Frc consts  --      3.0351                 1.4631                 1.6638
 IR Inten    --     94.3123                 5.2703                13.5916

                     43                     44                     45
                      A                      A                      A
 Frequencies --   1476.0696              1495.9111              1519.1631
 Red. masses --      1.0973                 1.0524                 1.0553
 Frc consts  --      1.4085                 1.3876                 1.4349
 IR Inten    --      4.5136                12.7401                10.4863

                     46                     47                     48
                      A                      A                      A
 Frequencies --   1524.3597              1542.2869              1654.6622
 Red. masses --      1.0502                 1.0801                 1.2362
 Frc consts  --      1.4379                 1.5138                 1.9942
 IR Inten    --      8.5939                 3.0557               154.9022

                     49                     50                     51
                      A                      A                      A
 Frequencies --   1788.6211              3032.8373              3077.4715
 Red. masses --      9.0801                 1.0678                 1.0356
 Frc consts  --     17.1151                 5.7869                 5.7790
 IR Inten    --    250.6818                35.3441                 8.5757

                     52                     53                     54
                      A                      A                      A
 Frequencies --   3088.3130              3128.4611              3149.1017
 Red. masses --      1.0308                 1.0969                 1.1024
 Frc consts  --      5.7927                 6.3254                 6.4412
 IR Inten    --      2.2870                10.5459                 8.2089

                     55                     56                     57
                      A                      A                      A
 Frequencies --   3180.0597              3183.6541              3226.3625
 Red. masses --      1.1059                 1.1030                 1.1064
 Frc consts  --      6.5891                 6.5866                 6.7854
 IR Inten    --      1.8009                 1.1797                 2.1645

                     58                     59                     60
                      A                      A                      A
 Frequencies --   3515.2183              3667.5742              3763.4425
 Red. masses --      1.0505                 1.1006                 1.0667
 Frc consts  --      7.6482                 8.7223                 8.9015
 IR Inten    --    109.2479                87.6393                37.4729

 - Thermochemistry -
 -------------------
 Temperature   298.150 Kelvin.  Pressure   1.00000 Atm.
 Atom     1 has atomic number  6 and mass  12.00000

 Molecular mass:   181.04088 amu.
 Principal axes and moments of inertia in atomic units:
                           1         2         3
     Eigenvalues --  1356.518832065.781292508.79958
           X            0.99910   0.03834  -0.01803
           Y           -0.03915   0.99814  -0.04675
           Z            0.01620   0.04741   0.99874
 This molecule is an asymmetric top.
 Rotational symmetry number  1.
 Warning -- assumption of classical behavior for rotation
           may cause significant error
 Rotational temperatures (Kelvin)      0.06385     0.04193     0.03452
 Rotational constants (GHZ):           1.33042     0.87364     0.71936
 Zero-point vibrational energy     460546.6 (Joules/Mol)
                                  110.07329 (Kcal/Mol)
 Warning -- explicit consideration of  20 degrees of freedom as
           vibrations may cause significant error
 Vibrational temperatures:     43.90    95.46   225.72   249.55   286.28
          (Kelvin)            317.64   351.56   353.73   374.13   401.78
                              409.35   445.18   479.40   501.40   511.14
                              591.67   675.13   752.60   763.31   829.98
                              964.97   973.54  1067.49  1124.41  1179.58
                             1348.55  1411.20  1428.37  1440.22  1520.16
                             1582.25  1627.46  1666.44  1703.69  1730.39
                             1823.47  1877.31  1892.04  1963.10  1988.53
                             2053.92  2114.02  2123.73  2152.28  2185.74
                             2193.21  2219.01  2380.69  2573.43  4363.58
                             4427.80  4443.39  4501.16  4530.85  4575.40
                             4580.57  4642.02  5057.62  5276.82  5414.75

 Zero-point correction=                           0.175413 (Hartree/Particle)
 Thermal correction to Energy=                    0.188116
 Thermal correction to Enthalpy=                  0.189060
 Thermal correction to Gibbs Free Energy=         0.136906
 Sum of electronic and zero-point Energies=           -950.797325
 Sum of electronic and thermal Energies=              -950.784622
 Sum of electronic and thermal Enthalpies=            -950.783678
 Sum of electronic and thermal Free Energies=         -950.835831

                     E (Thermal)             CV                S
                      KCal/Mol        Cal/Mol-Kelvin    Cal/Mol-Kelvin
 Total                  118.044             46.897            109.767
 Electronic               0.000              0.000              0.000
 Translational            0.889              2.981             41.487
 Rotational               0.889              2.981             30.331
 Vibrational            116.267             40.935             37.948
 Vibration     1          0.594              1.984              5.796
 Vibration     2          0.598              1.970              4.259
 Vibration     3          0.621              1.895              2.587
 Vibration     4          0.627              1.875              2.398
 Vibration     5          0.637              1.841              2.143
 Vibration     6          0.647              1.809              1.953
 Vibration     7          0.660              1.772              1.771
 Vibration     8          0.660              1.770              1.760
 Vibration     9          0.668              1.746              1.662
 Vibration    10          0.680              1.712              1.538
 Vibration    11          0.683              1.702              1.506
 Vibration    12          0.699              1.656              1.365
 Vibration    13          0.715              1.609              1.245
 Vibration    14          0.726              1.578              1.173
 Vibration    15          0.731              1.564              1.143
 Vibration    16          0.775              1.446              0.922
 Vibration    17          0.826              1.318              0.740
 Vibration    18          0.878              1.199              0.603
 Vibration    19          0.885              1.182              0.586
 Vibration    20          0.933              1.081              0.491

                           ! Non-Optimized Parameters !
 Normal termination of Gaussian 16 at Tue Dec  8 16:29:32 2020.

 ----------------------------------------------------------------------
 # B3LYP/6-311++G(d,p) empiricaldispersion=gd3bj scf=xqc pop=npa geom=c
 heck
 ----------------------------------------------------------------------

 ---------------------------------------
 CID_150133676_JID_1000_Energie_neutraal
 ---------------------------------------
 Structure from the checkpoint file:  "JID_1000.chk"
 Charge =  0 Multiplicity = 1

 SCF Done:  E(RB3LYP) =  -951.183751965     A.U. after   15 cycles
 Normal termination of Gaussian 16 at Tue Dec  8 16:31:05 2020.

 ----------------------------------------------------------------------
 # B3LYP/6-311++G(d,p) empiricaldispersion=gd3bj scf=xqc pop=npa geom=c
 heck
 ----------------------------------------------------------------------

 -------------------------------------
 CID_150133676_JID_1000_Energie_kation
 -------------------------------------
 Structure from the checkpoint file:  "JID_1000.chk"
 Charge =  1 Multiplicity = 2

 SCF Done:  E(UB3LYP) =  -950.829288710     A.U. after   31 cycles
 Normal termination of Gaussian 16 at Tue Dec  8 16:35:14 2020.
 Gaussian 16:  ES64L-G16RevA.03 25-Dec-2016

 ----------------------------------------------------------------------
 # B3LYP/6-311++G(d,p) empiricaldispersion=gd3bj scf=xqc pop=npa geom=c
 heck
 ----------------------------------------------------------------------

 ------------------------------------
 CID_150133676_JID_1000_Energie_anion
 ------------------------------------
 Structure from the checkpoint file:  "JID_1000.chk"
 Charge = -1 Multiplicity = 2

                         Standard orientation:
 ---------------------------------------------------------------------
 Center     Atomic      Atomic             Coordinates (Angstroms)
 Number     Number       Type             X           Y           Z
 ---------------------------------------------------------------------
      1          6           0       -0.611658   -0.548164    1.793176
      2          6           0       -0.451667   -0.209702    0.303214
      3          6           0       -1.072319   -1.293336   -0.591968
      4          8           0       -2.466458   -1.405315   -0.270810
      5          6           0       -0.979250    1.220183    0.061976
      6          8           0       -0.330106    2.204108    0.393144
      7          7           0       -2.200828    1.299497   -0.529692
      8         16           0        1.401305   -0.239457   -0.035158
      9          8           0        2.108723    0.279064    1.140123
     10          8           0        1.697705   -1.602612   -0.522324
     11          6           0        1.675773    0.887462   -1.419466
     12          1           0       -1.676667   -0.601036    2.032375
     13          1           0       -0.130988    0.216986    2.403626
     14          1           0       -0.155779   -1.517818    2.015338
     15          1           0       -0.941109   -1.035138   -1.652234
     16          1           0       -0.554008   -2.236220   -0.403145
     17          1           0       -2.816992   -2.174580   -0.744304
     18          1           0       -2.787571    0.472628   -0.586166
     19          1           0       -2.623712    2.217627   -0.563217
     20          1           0        1.021117    0.605704   -2.247276
     21          1           0        1.485792    1.905407   -1.085947
     22          1           0        2.720655    0.740661   -1.701341
 ---------------------------------------------------------------------

 SCF Done:  E(UB3LYP) =  -951.181529322     A.U. after   30 cycles

 The electronic state is 2-A.
 Alpha  occ. eigenvalues --  -88.94116 -19.02550 -19.01206 -19.01057 -18.99670
 Alpha  occ. eigenvalues --  -14.23000 -10.18541 -10.12917 -10.12273 -10.10703
 Alpha  occ. eigenvalues --  -10.07435  -8.00652  -5.96896  -5.96792  -5.96758
 Alpha  occ. eigenvalues --   -1.00428  -0.94932  -0.92611  -0.90015  -0.80871
 Alpha  occ. eigenvalues --   -0.72329  -0.67237  -0.59563  -0.55193  -0.52801
 Alpha  occ. eigenvalues --   -0.46500  -0.44871  -0.41481  -0.39997  -0.38251
 Alpha  occ. eigenvalues --   -0.37625  -0.37093  -0.35126  -0.33910  -0.33578
 Alpha  occ. eigenvalues --   -0.32830  -0.31429  -0.30076  -0.28268  -0.27814
 Alpha  occ. eigenvalues --   -0.24619  -0.22957  -0.22023  -0.20235  -0.19147
 Alpha  occ. eigenvalues --   -0.18415  -0.17870  -0.16571   0.04172
 Alpha virt. eigenvalues --    0.07322   0.07672   0.08954   0.09559   0.10236
 Alpha virt. eigenvalues --    0.11484   0.11781   0.12404   0.13083   0.13403
 Alpha virt. eigenvalues --    0.14388   0.14671   0.15503   0.16255   0.16887

  Beta  occ. eigenvalues --  -88.94101 -19.02453 -19.01189 -19.01049 -18.99655
  Beta  occ. eigenvalues --  -14.22950 -10.18529 -10.12901 -10.12234 -10.10672
  Beta  occ. eigenvalues --  -10.07416  -8.00633  -5.96884  -5.96776  -5.96738
  Beta  occ. eigenvalues --   -1.00384  -0.94901  -0.92411  -0.89976  -0.80796
  Beta  occ. eigenvalues --   -0.72246  -0.67184  -0.59467  -0.55086  -0.52714
  Beta  occ. eigenvalues --   -0.46432  -0.44785  -0.41358  -0.39945  -0.38169
  Beta  occ. eigenvalues --   -0.37589  -0.37061  -0.35071  -0.33868  -0.33538
  Beta  occ. eigenvalues --   -0.32794  -0.31373  -0.30035  -0.28220  -0.27772
  Beta  occ. eigenvalues --   -0.24522  -0.22921  -0.22003  -0.20215  -0.19088
  Beta  occ. eigenvalues --   -0.18345  -0.17815  -0.16511
  Beta virt. eigenvalues --    0.07070   0.08127   0.08726   0.09539   0.09819
  Beta virt. eigenvalues --    0.10994   0.11811   0.12017   0.12581   0.13108
  Beta virt. eigenvalues --    0.13761   0.14767   0.15244   0.15887   0.16402

 Mulliken charges and spin densities:
               1          2
     1  C   -0.396532  -0.250372
     2  C   -0.484143   0.679994
     3  C    2.232335  -2.656299
     4  O   -0.409881   0.117634
     5  C   -0.441926   0.276196
     6  O   -0.330691   0.015677
     7  N   -0.324178  -0.004574
     8  S    0.311108   0.009031
     9  O   -0.165974   0.025317
    10  O   -0.204193   0.018661
    11  C   -0.149486  -0.465666
    12  H    0.096770   0.077131
    13  H    0.128940   0.073243
    14  H    0.133003   0.056872
    15  H   -0.522065   0.748046
    16  H    0.048658   0.185202
    17  H   -0.563028   0.880744
    18  H    0.123676   0.175413
    19  H   -0.265614   0.564001
    20  H   -0.048276   0.266421
    21  H    0.146966   0.079877
    22  H    0.084533   0.127452
 Sum of Mulliken charges =  -1.00000   1.00000

 Dipole moment (field-independent basis, Debye):
    X=              4.7817    Y=              3.0471    Z=              2.4465  Tot=              6.1754
 Quadrupole moment (field-independent basis, Debye-Ang):
   XX=           -125.9908   YY=           -115.9557   ZZ=           -101.6013
   XY=             -8.2889   XZ=            -14.3311   YZ=             -8.8168

 Summary of Natural Population Analysis:

                                       Natural Population
                Natural  -----------------------------------------------
    Atom  No    Charge         Core      Valence    Rydberg      Total
 -----------------------------------------------------------------------
      C    1   -0.29442      0.99961     2.28731    0.00750     3.29442
      C    2   -0.15300      0.99950     2.13457    0.01893     3.15300
      C    3   -0.02441      0.99950     2.00979    0.01511     3.02441
      O    4   -0.38481      0.99989     3.37708    0.00785     4.38481
      C    5    0.33326      0.99962     1.64169    0.02544     2.66674
      O    6   -0.32701      0.99988     3.32090    0.00623     4.32701
      N    7   -0.39761      0.99969     2.88924    0.00869     3.89761
      S    8    1.02783      4.99925     1.87944    0.09348     6.97217
      O    9   -0.46231      0.99991     3.45668    0.00572     4.46231
      O   10   -0.47395      0.99991     3.46810    0.00593     4.47395
      C   11   -0.39504      0.99961     2.38784    0.00759     3.39504
      H   12    0.11420      0.00000     0.38462    0.00118     0.38580
      H   13    0.11550      0.00000     0.38357    0.00093     0.38450
      H   14    0.10674      0.00000     0.39225    0.00101     0.39326
      H   15    0.08972      0.00000     0.40662    0.00366     0.41028
      H   16    0.10117      0.00000     0.39703    0.00180     0.39883
      H   17    0.25432      0.00000     0.20458    0.04110     0.24568
      H   18    0.21443      0.00000     0.28118    0.00440     0.28557
      H   19    0.19535      0.00000     0.30197    0.00268     0.30465
      H   20    0.11626      0.00000     0.38233    0.00141     0.38374
      H   21    0.12768      0.00000     0.37126    0.00106     0.37232
      H   22    0.11612      0.00000     0.38281    0.00107     0.38388
 =======================================================================
   * Total *    0.00000     14.99637    32.74086    0.26277    48.00000

 Normal termination of Gaussian 16 at Tue Dec  8 16:39:18 2020.
