 Gaussian 16, Revision A.03,

 -----------------------------------------------------------
 # opt freq B3LYP/6-31G(d) empiricaldispersion=gd3bj scf=xqc
 -----------------------------------------------------------

 ------------------------------
 CID_13123247_JID_1768_neutraal
 ------------------------------
 Symbolic Z-matrix:
 Charge =  0 Multiplicity = 1

 SCF Done:  E(RB3LYP) =  -837.241647171     A.U. after   15 cycles
 SCF Done:  E(RB3LYP) =  -837.245890844     A.U. after   13 cycles
 SCF Done:  E(RB3LYP) =  -837.247403863     A.U. after   12 cycles
 SCF Done:  E(RB3LYP) =  -837.249145915     A.U. after   15 cycles
 SCF Done:  E(RB3LYP) =  -837.249765530     A.U. after   12 cycles
 SCF Done:  E(RB3LYP) =  -837.250150372     A.U. after   12 cycles
 SCF Done:  E(RB3LYP) =  -837.250215747     A.U. after   12 cycles
 SCF Done:  E(RB3LYP) =  -837.250254346     A.U. after   10 cycles
 SCF Done:  E(RB3LYP) =  -837.250260031     A.U. after    9 cycles
 SCF Done:  E(RB3LYP) =  -837.250260571     A.U. after    8 cycles
 SCF Done:  E(RB3LYP) =  -837.250260639     A.U. after    7 cycles
 Optimization completed.
    -- Stationary point found.
 Normal termination of Gaussian 16 at Tue Dec  8 21:00:32 2020.

 --------------------------------------------------------------------
 #N Geom=AllCheck Guess=TCheck SCRF=Check GenChk RB3LYP/6-31G(d) Freq
 --------------------------------------------------------------------

 Structure from the checkpoint file:  "JID_1768.chk"
 ------------------------------
 CID_13123247_JID_1768_neutraal
 ------------------------------
 Charge =  0 Multiplicity = 1

 SCF Done:  E(RB3LYP) =  -837.250260639     A.U. after    1 cycles

  Exact polarizability: 137.655   2.159 129.910   0.002  -0.001  46.357
 Approx polarizability: 226.166   8.827 241.081   0.004  -0.003  72.271

                      1                      2                      3
                      A                      A                      A
 Frequencies --     83.2056               153.2645               178.1457
 Red. masses --      3.3206                 4.6715                 5.2124
 Frc consts  --      0.0135                 0.0647                 0.0975
 IR Inten    --      3.3220                 0.8176                 0.9701

                      4                      5                      6
                      A                      A                      A
 Frequencies --    204.1338               239.2997               297.3647
 Red. masses --      4.9064                 1.4288                 2.5826
 Frc consts  --      0.1205                 0.0482                 0.1346
 IR Inten    --      0.8437                 0.0065                 0.0621

                      7                      8                      9
                      A                      A                      A
 Frequencies --    330.2863               435.3579               494.0416
 Red. masses --      3.6936                10.0684                 6.1913
 Frc consts  --      0.2374                 1.1244                 0.8903
 IR Inten    --      1.1330                 0.8282                 6.0770

                     10                     11                     12
                      A                      A                      A
 Frequencies --    497.1496               546.8598               575.3968
 Red. masses --      5.5530                 4.0533                 6.5873
 Frc consts  --      0.8086                 0.7142                 1.2850
 IR Inten    --      0.6475                 1.6302                 2.1139

                     13                     14                     15
                      A                      A                      A
 Frequencies --    623.5711               648.7784               688.3958
 Red. masses --      3.9676                 6.3960                 8.8781
 Frc consts  --      0.9090                 1.5862                 2.4788
 IR Inten    --      6.9737                 2.8787                20.5874

                     16                     17                     18
                      A                      A                      A
 Frequencies --    729.3906               750.4157               788.1223
 Red. masses --      2.3938                 8.5089                 1.6645
 Frc consts  --      0.7503                 2.8231                 0.6091
 IR Inten    --     12.2091                 8.9368                31.7033

                     19                     20                     21
                      A                      A                      A
 Frequencies --    827.8467               871.5158               906.5743
 Red. masses --      6.0167                 1.3882                 1.4715
 Frc consts  --      2.4295                 0.6212                 0.7125
 IR Inten    --     22.6712                 5.7253                 9.4780

                     22                     23                     24
                      A                      A                      A
 Frequencies --    960.1879              1007.3209              1079.4891
 Red. masses --      1.2668                 5.2654                 4.4811
 Frc consts  --      0.6881                 3.1479                 3.0766
 IR Inten    --      0.7507                33.3174                18.6246

                     25                     26                     27
                      A                      A                      A
 Frequencies --   1128.0013              1139.6207              1186.5819
 Red. masses --      2.2285                 2.9669                 1.2698
 Frc consts  --      1.6706                 2.2702                 1.0534
 IR Inten    --      0.5444                48.5185                 0.8940

                     28                     29                     30
                      A                      A                      A
 Frequencies --   1211.6514              1228.2664              1251.8348
 Red. masses --      1.3872                 1.3796                 1.4336
 Frc consts  --      1.1999                 1.2263                 1.3236
 IR Inten    --      6.4133                 5.6569                 7.4466

                     31                     32                     33
                      A                      A                      A
 Frequencies --   1312.2185              1346.3521              1402.8758
 Red. masses --      2.1776                 3.3338                 7.0407
 Frc consts  --      2.2092                 3.5605                 8.1640
 IR Inten    --    156.1197                94.3514                13.9157

                     34                     35                     36
                      A                      A                      A
 Frequencies --   1435.0467              1493.3699              1519.0434
 Red. masses --      3.5575                 1.3311                 2.4612
 Frc consts  --      4.3164                 1.7491                 3.3461
 IR Inten    --     13.8820                32.3161                21.2441

                     37                     38                     39
                      A                      A                      A
 Frequencies --   1520.2877              1533.9286              1562.0932
 Red. masses --      1.0474                 1.0660                 4.0034
 Frc consts  --      1.4263                 1.4778                 5.7556
 IR Inten    --      6.4003                35.8688                44.2318

                     40                     41                     42
                      A                      A                      A
 Frequencies --   1629.8184              1653.5298              3033.1178
 Red. masses --      5.9390                 6.7297                 1.0344
 Frc consts  --      9.2948                10.8409                 5.6067
 IR Inten    --     84.7334                 1.6170                50.8464

                     43                     44                     45
                      A                      A                      A
 Frequencies --   3094.7134              3168.9687              3192.3970
 Red. masses --      1.1070                 1.1004                 1.0919
 Frc consts  --      6.2467                 6.5108                 6.5565
 IR Inten    --     38.0289                18.9570                11.8572

                     46                     47                     48
                      A                      A                      A
 Frequencies --   3195.9288              3213.3016              3229.7642
 Red. masses --      1.0869                 1.0938                 1.0919
 Frc consts  --      6.5406                 6.6544                 6.7108
 IR Inten    --      5.0463                20.0187                 9.8988

 - Thermochemistry -
 -------------------
 Temperature   298.150 Kelvin.  Pressure   1.00000 Atm.
 Atom     1 has atomic number  6 and mass  12.00000

 Molecular mass:   165.02484 amu.
 Principal axes and moments of inertia in atomic units:
                           1         2         3
     Eigenvalues --  1154.958851947.695733091.11728
           X            0.99879  -0.04916  -0.00000
           Y            0.04916   0.99879   0.00000
           Z            0.00000  -0.00000   1.00000
 This molecule is an asymmetric top.
 Rotational symmetry number  1.
 Warning -- assumption of classical behavior for rotation
           may cause significant error
 Rotational temperatures (Kelvin)      0.07499     0.04447     0.02802
 Rotational constants (GHZ):           1.56260     0.92660     0.58385
 Zero-point vibrational energy     356480.1 (Joules/Mol)
                                   85.20080 (Kcal/Mol)
 Warning -- explicit consideration of  12 degrees of freedom as
           vibrations may cause significant error
 Vibrational temperatures:    119.71   220.51   256.31   293.70   344.30
          (Kelvin)            427.84   475.21   626.38   710.82   715.29
                              786.81   827.87   897.18   933.45   990.45
                             1049.43  1079.68  1133.93  1191.09  1253.92
                             1304.36  1381.50  1449.31  1553.14  1622.94
                             1639.66  1707.23  1743.30  1767.20  1801.11
                             1887.99  1937.10  2018.43  2064.71  2148.63
                             2185.56  2187.35  2206.98  2247.50  2344.95
                             2379.06  4363.98  4452.60  4559.44  4593.15
                             4598.23  4623.22  4646.91

 Zero-point correction=                           0.135776 (Hartree/Particle)
 Thermal correction to Energy=                    0.144703
 Thermal correction to Enthalpy=                  0.145647
 Thermal correction to Gibbs Free Energy=         0.101391
 Sum of electronic and zero-point Energies=           -837.114485
 Sum of electronic and thermal Energies=              -837.105558
 Sum of electronic and thermal Enthalpies=            -837.104613
 Sum of electronic and thermal Free Energies=         -837.148869

                     E (Thermal)             CV                S
                      KCal/Mol        Cal/Mol-Kelvin    Cal/Mol-Kelvin
 Total                   90.803             34.593             93.145
 Electronic               0.000              0.000              0.000
 Translational            0.889              2.981             41.211
 Rotational               0.889              2.981             30.320
 Vibrational             89.025             28.631             21.613
 Vibration     1          0.600              1.961              3.814
 Vibration     2          0.619              1.899              2.631
 Vibration     3          0.629              1.869              2.348
 Vibration     4          0.640              1.834              2.096
 Vibration     5          0.657              1.780              1.808
 Vibration     6          0.691              1.679              1.432
 Vibration     7          0.713              1.615              1.259
 Vibration     8          0.796              1.393              0.841
 Vibration     9          0.850              1.263              0.673
 Vibration    10          0.853              1.256              0.665
 Vibration    11          0.902              1.147              0.551
 Vibration    12          0.932              1.084              0.494

 Optimization completed.
    -- Stationary point found.
 Normal termination of Gaussian 16 at Tue Dec  8 21:04:20 2020.

 ----------------------------------------------------------------------
 # B3LYP/6-311++G(d,p) empiricaldispersion=gd3bj scf=xqc pop=npa geom=c
 heck
 ----------------------------------------------------------------------

 --------------------------------------
 CID_13123247_JID_1768_Energie_neutraal
 --------------------------------------
 Structure from the checkpoint file:  "JID_1768.chk"
 Charge =  0 Multiplicity = 1

 SCF Done:  E(RB3LYP) =  -837.391166823     A.U. after   17 cycles
 Normal termination of Gaussian 16 at Tue Dec  8 21:06:51 2020.

 ----------------------------------------------------------------------
 # B3LYP/6-311++G(d,p) empiricaldispersion=gd3bj scf=xqc pop=npa geom=c
 heck
 ----------------------------------------------------------------------

 ------------------------------------
 CID_13123247_JID_1768_Energie_kation
 ------------------------------------
 Structure from the checkpoint file:  "JID_1768.chk"
 Charge =  1 Multiplicity = 2

 SCF Done:  E(UB3LYP) =  -837.096981836     A.U. after   22 cycles
 Normal termination of Gaussian 16 at Tue Dec  8 21:11:25 2020.
 Gaussian 16:  ES64L-G16RevA.03 25-Dec-2016

 ----------------------------------------------------------------------
 # B3LYP/6-311++G(d,p) empiricaldispersion=gd3bj scf=xqc pop=npa geom=c
 heck
 ----------------------------------------------------------------------

 -----------------------------------
 CID_13123247_JID_1768_Energie_anion
 -----------------------------------
 Structure from the checkpoint file:  "JID_1768.chk"
 Charge = -1 Multiplicity = 2

                         Standard orientation:
 ---------------------------------------------------------------------
 Center     Atomic      Atomic             Coordinates (Angstroms)
 Number     Number       Type             X           Y           Z
 ---------------------------------------------------------------------
      1          6           0        3.260086   -1.073104   -0.000153
      2          8           0        1.844076   -1.181869    0.000097
      3          6           0        1.119373   -0.030668    0.000039
      4          6           0        1.633605    1.262192    0.000060
      5          6           0        0.768781    2.378037    0.000012
      6          6           0       -0.606730    2.231323   -0.000044
      7          6           0       -1.139629    0.927325    0.000038
      8          6           0       -0.277168   -0.186686    0.000093
      9         16           0       -1.217746   -1.652426    0.000045
     10          7           0       -2.706058   -0.824955   -0.000084
     11          6           0       -2.504707    0.465893   -0.000084
     12          1           0        3.638183   -2.096089   -0.000554
     13          1           0        3.618539   -0.549570    0.895151
     14          1           0        3.618239   -0.549075   -0.895292
     15          1           0        2.704769    1.426088    0.000237
     16          1           0        1.206515    3.371814    0.000002
     17          1           0       -1.263704    3.095349   -0.000081
     18          1           0       -3.370490    1.124077   -0.000133
 ---------------------------------------------------------------------

 SCF Done:  E(UB3LYP) =  -837.381463807     A.U. after   33 cycles
 SCF Done:  E(UB3LYP) =  -837.381463807     a.u. after    1 cycles

 The electronic state is 2-A.
 Alpha  occ. eigenvalues --  -88.70931 -19.02173 -14.12948 -10.11206 -10.07614
 Alpha  occ. eigenvalues --  -10.02893 -10.02481 -10.02024 -10.01086 -10.01035
 Alpha  occ. eigenvalues --  -10.01021  -7.79403  -5.75810  -5.75354  -5.74903
 Alpha  occ. eigenvalues --   -0.93831  -0.77494  -0.69281  -0.62707  -0.59480
 Alpha  occ. eigenvalues --   -0.57938  -0.54818  -0.46258  -0.44165  -0.42019
 Alpha  occ. eigenvalues --   -0.37600  -0.35196  -0.34690  -0.32644  -0.31225
 Alpha  occ. eigenvalues --   -0.29386  -0.25851  -0.25773  -0.23613  -0.21740
 Alpha  occ. eigenvalues --   -0.21633  -0.20439  -0.17742  -0.17489  -0.11340
 Alpha  occ. eigenvalues --   -0.11212  -0.09747  -0.06276   0.07247
 Alpha virt. eigenvalues --    0.07891   0.09785   0.10827   0.11684   0.11895
 Alpha virt. eigenvalues --    0.13231   0.13851   0.14271   0.14970   0.15654
 Alpha virt. eigenvalues --    0.16198   0.17277   0.17723   0.18185   0.19006

  Beta  occ. eigenvalues --  -88.70891 -19.02146 -14.12186 -10.11204 -10.07503
  Beta  occ. eigenvalues --  -10.02776 -10.02571 -10.01893 -10.00955 -10.00866
  Beta  occ. eigenvalues --  -10.00753  -7.79368  -5.75800  -5.75343  -5.74757
  Beta  occ. eigenvalues --   -0.93755  -0.76660  -0.68842  -0.62467  -0.58959
  Beta  occ. eigenvalues --   -0.57649  -0.54499  -0.45697  -0.43959  -0.41674
  Beta  occ. eigenvalues --   -0.37393  -0.35091  -0.34540  -0.32428  -0.30980
  Beta  occ. eigenvalues --   -0.29158  -0.25716  -0.24827  -0.23466  -0.21458
  Beta  occ. eigenvalues --   -0.20575  -0.20228  -0.17264  -0.16705  -0.10353
  Beta  occ. eigenvalues --   -0.10069  -0.07740  -0.05000
  Beta virt. eigenvalues --    0.07807   0.09722   0.10782   0.11571   0.11841
  Beta virt. eigenvalues --    0.13188   0.13761   0.13802   0.14612   0.14964
  Beta virt. eigenvalues --    0.15602   0.16598   0.17373   0.17731   0.18200

 Mulliken charges and spin densities:
               1          2
     1  C   -0.254786  -0.013025
     2  O   -0.190801   0.011266
     3  C   -0.489892   0.004994
     4  C    0.296464   0.250585
     5  C   -0.292627  -0.068951
     6  C   -1.347333   0.167796
     7  C    1.040442   0.142822
     8  C    0.182731   0.007318
     9  S   -0.166812   0.103973
    10  N   -0.214240   0.302055
    11  C   -0.349527   0.104780
    12  H    0.144536  -0.000022
    13  H    0.122339   0.011581
    14  H    0.122268   0.011629
    15  H    0.116235  -0.020112
    16  H    0.099241   0.005358
    17  H    0.070741  -0.010172
    18  H    0.111021  -0.011876
 Sum of Mulliken charges =  -1.00000   1.00000

 Dipole moment (field-independent basis, Debye):
    X=              5.7139    Y=              0.9009    Z=             -0.0003  Tot=              5.7845
 Quadrupole moment (field-independent basis, Debye-Ang):
   XX=            -93.0825   YY=            -87.5176   ZZ=            -81.8856
   XY=             -9.2950   XZ=             -0.0004   YZ=              0.0001

 Summary of Natural Population Analysis:

                                       Natural Population
                Natural  -----------------------------------------------
    Atom  No    Charge         Core      Valence    Rydberg      Total
 -----------------------------------------------------------------------
      C    1   -0.09892      0.99961     2.09121    0.00810     3.09892
      O    2   -0.27240      0.99985     3.26312    0.00943     4.27240
      C    3    0.15883      0.99931     1.82812    0.01375     2.84117
      C    4   -0.11058      0.99954     2.10078    0.01026     3.11058
      C    5   -0.12986      0.99959     2.12050    0.00977     3.12986
      C    6   -0.07328      0.99953     2.06521    0.00854     3.07328
      C    7   -0.04619      0.99947     2.03428    0.01244     3.04619
      C    8   -0.09657      0.99938     2.08455    0.01264     3.09657
      S    9    0.25242      4.99947     2.71877    0.02934     7.74758
      N   10   -0.20054      0.99971     2.68691    0.01391     3.70054
      C   11    0.02471      0.99960     1.96085    0.01485     2.97529
      H   12    0.08508      0.00000     0.41411    0.00081     0.41492
      H   13    0.07985      0.00000     0.41841    0.00174     0.42015
      H   14    0.07986      0.00000     0.41840    0.00174     0.42014
      H   15    0.08974      0.00000     0.40930    0.00096     0.41026
      H   16    0.08739      0.00000     0.41100    0.00161     0.41261
      H   17    0.08827      0.00000     0.41021    0.00152     0.41173
      H   18    0.08220      0.00000     0.41635    0.00145     0.41780
 =======================================================================
   * Total *   -0.00000     14.99506    27.85208    0.15286    43.00000

 Normal termination of Gaussian 16 at Tue Dec  8 21:17:11 2020.
