 Gaussian 16, Revision A.03,

 -----------------------------------------------------------
 # opt freq B3LYP/6-31G(d) empiricaldispersion=gd3bj scf=xqc
 -----------------------------------------------------------

 ------------------------------
 CID_18721725_JID_2362_neutraal
 ------------------------------
 Symbolic Z-matrix:
 Charge =  0 Multiplicity = 1

 SCF Done:  E(RB3LYP) =  -861.536102984     A.U. after   14 cycles
 SCF Done:  E(RB3LYP) =  -861.539679180     A.U. after   11 cycles
 SCF Done:  E(RB3LYP) =  -861.540068373     A.U. after   11 cycles
 SCF Done:  E(RB3LYP) =  -861.540179612     A.U. after   10 cycles
 SCF Done:  E(RB3LYP) =  -861.540216432     A.U. after   10 cycles
 SCF Done:  E(RB3LYP) =  -861.540247637     A.U. after    9 cycles
 SCF Done:  E(RB3LYP) =  -861.540257851     A.U. after    9 cycles
 SCF Done:  E(RB3LYP) =  -861.540261031     A.U. after    9 cycles
 SCF Done:  E(RB3LYP) =  -861.540261801     A.U. after    8 cycles
 SCF Done:  E(RB3LYP) =  -861.540262072     A.U. after    7 cycles
 SCF Done:  E(RB3LYP) =  -861.540262130     A.U. after    7 cycles
 SCF Done:  E(RB3LYP) =  -861.540262138     A.U. after    7 cycles
 Optimization completed.
    -- Stationary point found.
 Normal termination of Gaussian 16 at Wed Dec  9 17:13:20 2020.

 --------------------------------------------------------------------
 #N Geom=AllCheck Guess=TCheck SCRF=Check GenChk RB3LYP/6-31G(d) Freq
 --------------------------------------------------------------------

 Structure from the checkpoint file:  "JID_2362.chk"
 ------------------------------
 CID_18721725_JID_2362_neutraal
 ------------------------------
 Charge =  0 Multiplicity = 1

 SCF Done:  E(RB3LYP) =  -861.540262138     A.U. after    1 cycles

  Exact polarizability: 146.364  -7.070 129.991   2.800  -1.625  92.730
 Approx polarizability: 190.431 -14.007 187.394   7.448  -3.213 148.545

                      1                      2                      3
                      A                      A                      A
 Frequencies --     42.0381                45.2048                83.2862
 Red. masses --      2.9962                 2.8984                 3.4023
 Frc consts  --      0.0031                 0.0035                 0.0139
 IR Inten    --      0.7637                 1.5588                 0.5678

                      4                      5                      6
                      A                      A                      A
 Frequencies --    116.3371               177.5845               204.2879
 Red. masses --      3.7712                 2.9714                 2.6855
 Frc consts  --      0.0301                 0.0552                 0.0660
 IR Inten    --      0.1488                 2.3028                 2.9607

                      7                      8                      9
                      A                      A                      A
 Frequencies --    227.4367               245.2570               256.0470
 Red. masses --      1.3321                 1.5135                 1.6433
 Frc consts  --      0.0406                 0.0536                 0.0635
 IR Inten    --      0.2505                 1.2861                 1.3665

                     10                     11                     12
                      A                      A                      A
 Frequencies --    261.6871               288.0644               332.1169
 Red. masses --      2.4451                 4.1291                 2.3906
 Frc consts  --      0.0987                 0.2019                 0.1554
 IR Inten    --      0.3608                 1.2856                 0.7232

                     13                     14                     15
                      A                      A                      A
 Frequencies --    349.3414               389.2973               413.3607
 Red. masses --      4.3999                 2.1435                 1.1586
 Frc consts  --      0.3164                 0.1914                 0.1166
 IR Inten    --      2.4320                 1.6525                81.2443

                     16                     17                     18
                      A                      A                      A
 Frequencies --    433.5226               443.9518               474.4997
 Red. masses --      1.8168                 2.7373                 1.8806
 Frc consts  --      0.2012                 0.3179                 0.2495
 IR Inten    --      6.9843                14.0185                21.3767

                     19                     20                     21
                      A                      A                      A
 Frequencies --    562.3288               603.0261               607.6440
 Red. masses --      2.3059                 2.5991                 4.2497
 Frc consts  --      0.4296                 0.5569                 0.9245
 IR Inten    --     28.6072                65.3080                 3.1973

                     22                     23                     24
                      A                      A                      A
 Frequencies --    685.0915               703.0391               754.7576
 Red. masses --      4.5159                 1.6983                 3.2228
 Frc consts  --      1.2488                 0.4946                 1.0817
 IR Inten    --     16.1268               128.2979                 3.6043

                     25                     26                     27
                      A                      A                      A
 Frequencies --    774.3529               821.3257               861.1778
 Red. masses --      3.4156                 2.9442                 2.1046
 Frc consts  --      1.2067                 1.1702                 0.9196
 IR Inten    --      0.6872                 3.1134                 9.9081

                     28                     29                     30
                      A                      A                      A
 Frequencies --    899.1579               918.1871               937.9349
 Red. masses --      1.6047                 2.4394                 1.9458
 Frc consts  --      0.7644                 1.2117                 1.0085
 IR Inten    --      1.8871                 4.4949                 2.3722

                     31                     32                     33
                      A                      A                      A
 Frequencies --    943.3850               977.5881               980.7469
 Red. masses --      1.1843                 1.8901                 1.6414
 Frc consts  --      0.6210                 1.0643                 0.9302
 IR Inten    --      1.7011                 1.0634                 0.3721

                     34                     35                     36
                      A                      A                      A
 Frequencies --    986.7759              1021.4081              1069.3841
 Red. masses --      1.8861                 1.9985                 2.5096
 Frc consts  --      1.0821                 1.2285                 1.6909
 IR Inten    --      1.5067                14.5331                 1.3875

                     37                     38                     39
                      A                      A                      A
 Frequencies --   1093.4277              1145.5539              1163.4469
 Red. masses --      2.1604                 2.1313                 1.6170
 Frc consts  --      1.5218                 1.6479                 1.2896
 IR Inten    --      9.2937                 0.7100                 8.1195

                     40                     41                     42
                      A                      A                      A
 Frequencies --   1183.8654              1188.3886              1209.6428
 Red. masses --      1.5279                 1.2057                 1.7504
 Frc consts  --      1.2617                 1.0033                 1.5091
 IR Inten    --      6.2748                 1.1658                 7.0400

                     43                     44                     45
                      A                      A                      A
 Frequencies --   1231.7279              1269.5622              1279.9636
 Red. masses --      1.2649                 1.3916                 1.2542
 Frc consts  --      1.1307                 1.3215                 1.2106
 IR Inten    --     12.5199                 5.1637                13.3276

                     46                     47                     48
                      A                      A                      A
 Frequencies --   1292.3759              1313.9250              1331.2095
 Red. masses --      1.2722                 1.7706                 1.3164
 Frc consts  --      1.2520                 1.8010                 1.3745
 IR Inten    --     22.6380                66.9911                 2.1815

                     49                     50                     51
                      A                      A                      A
 Frequencies --   1347.1178              1370.6077              1373.2970
 Red. masses --      1.2974                 1.3484                 1.3777
 Frc consts  --      1.3872                 1.4924                 1.5308
 IR Inten    --      7.4492                 3.5408                42.2981

                     52                     53                     54
                      A                      A                      A
 Frequencies --   1395.1875              1420.0217              1423.2737
 Red. masses --      1.3407                 1.5157                 1.8412
 Frc consts  --      1.5376                 1.8007                 2.1975
 IR Inten    --      3.3819                 3.0318                16.0199

                     55                     56                     57
                      A                      A                      A
 Frequencies --   1430.7804              1452.3296              1491.8312
 Red. masses --      1.2634                 1.2339                 1.0896
 Frc consts  --      1.5239                 1.5335                 1.4288
 IR Inten    --      3.9941                 6.5509                 3.3979

                     58                     59                     60
                      A                      A                      A
 Frequencies --   1501.1356              1507.3576              1509.8701
 Red. masses --      1.0873                 1.0812                 1.0889
 Frc consts  --      1.4435                 1.4474                 1.4626
 IR Inten    --     10.6447                 3.2490                 7.7662

                     61                     62                     63
                      A                      A                      A
 Frequencies --   1514.5711              1523.3188              1533.8869
 Red. masses --      1.0434                 1.0579                 1.0490
 Frc consts  --      1.4102                 1.4464                 1.4542
 IR Inten    --      3.4806                 3.3521                 7.1162

                     64                     65                     66
                      A                      A                      A
 Frequencies --   1537.7858              1656.7501              1753.8248
 Red. masses --      1.0561                 1.1998                 7.0369
 Frc consts  --      1.4714                 1.9403                12.7528
 IR Inten    --      9.0418                65.0710               289.4481

                     67                     68                     69
                      A                      A                      A
 Frequencies --   3004.4453              3012.7515              3029.3393
 Red. masses --      1.0807                 1.0825                 1.0616
 Frc consts  --      5.7477                 5.7888                 5.7401
 IR Inten    --     11.5449                19.6858                40.4256

                     70                     71                     72
                      A                      A                      A
 Frequencies --   3036.4790              3037.0711              3045.4118
 Red. masses --      1.0392                 1.0658                 1.0408
 Frc consts  --      5.6451                 5.7919                 5.6871
 IR Inten    --     64.6977                24.2640                32.8142

                     73                     74                     75
                      A                      A                      A
 Frequencies --   3071.2386              3072.4812              3076.6131
 Red. masses --      1.0656                 1.0627                 1.0973
 Frc consts  --      5.9221                 5.9107                 6.1194
 IR Inten    --     25.3186                 4.5880                19.8902

                     76                     77                     78
                      A                      A                      A
 Frequencies --   3086.2915              3098.8478              3104.6847
 Red. masses --      1.0881                 1.1019                 1.1014
 Frc consts  --      6.1066                 6.2341                 6.2549
 IR Inten    --     25.0392                 5.8061                65.2503

                     79                     80                     81
                      A                      A                      A
 Frequencies --   3108.9154              3119.9236              3121.5129
 Red. masses --      1.1021                 1.1068                 1.1058
 Frc consts  --      6.2761                 6.3474                 6.3483
 IR Inten    --     61.5173                12.9555                12.1123

                     82                     83                     84
                      A                      A                      A
 Frequencies --   3148.8619              3543.5553              3656.5112
 Red. masses --      1.0970                 1.0466                 1.0994
 Frc consts  --      6.4089                 7.7433                 8.6606
 IR Inten    --     32.0698                10.0572                 8.1761

 - Thermochemistry -
 -------------------
 Temperature   298.150 Kelvin.  Pressure   1.00000 Atm.
 Atom     1 has atomic number  6 and mass  12.00000

 Molecular mass:   186.11907 amu.
 Principal axes and moments of inertia in atomic units:
                           1         2         3
     Eigenvalues --  1585.355153325.257154469.23860
           X            0.99959  -0.02822  -0.00385
           Y            0.02816   0.99951  -0.01360
           Z            0.00423   0.01349   0.99990
 This molecule is an asymmetric top.
 Rotational symmetry number  1.
 Warning -- assumption of classical behavior for rotation
           may cause significant error
 Rotational temperatures (Kelvin)      0.05463     0.02605     0.01938
 Rotational constants (GHZ):           1.13838     0.54274     0.40381
 Zero-point vibrational energy     704071.8 (Joules/Mol)
                                  168.27719 (Kcal/Mol)
 Warning -- explicit consideration of  21 degrees of freedom as
           vibrations may cause significant error
 Vibrational temperatures:     60.48    65.04   119.83   167.38   255.50
          (Kelvin)            293.92   327.23   352.87   368.39   376.51
                              414.46   477.84   502.62   560.11   594.73
                              623.74   638.75   682.70   809.07   867.62
                              874.26   985.69  1011.52  1085.93  1114.12
                             1181.70  1239.04  1293.69  1321.07  1349.48
                             1357.32  1406.53  1411.08  1419.75  1469.58
                             1538.61  1573.20  1648.20  1673.94  1703.32
                             1709.83  1740.41  1772.18  1826.62  1841.58
                             1859.44  1890.45  1915.31  1938.20  1972.00
                             1975.87  2007.36  2043.09  2047.77  2058.57
                             2089.58  2146.41  2159.80  2168.75  2172.37
                             2179.13  2191.72  2206.92  2212.53  2383.69
                             2523.36  4322.73  4334.68  4358.54  4368.82
                             4369.67  4381.67  4418.83  4420.62  4426.56
                             4440.49  4458.55  4466.95  4473.04  4488.87
                             4491.16  4530.51  5098.39  5260.90

 Zero-point correction=                           0.268167 (Hartree/Particle)
 Thermal correction to Energy=                    0.281572
 Thermal correction to Enthalpy=                  0.282516
 Thermal correction to Gibbs Free Energy=         0.228140
 Sum of electronic and zero-point Energies=           -861.272095
 Sum of electronic and thermal Energies=              -861.258690
 Sum of electronic and thermal Enthalpies=            -861.257746
 Sum of electronic and thermal Free Energies=         -861.312122

                     E (Thermal)             CV                S
                      KCal/Mol        Cal/Mol-Kelvin    Cal/Mol-Kelvin
 Total                  176.689             51.448            114.443
 Electronic               0.000              0.000              0.000
 Translational            0.889              2.981             41.570
 Rotational               0.889              2.981             31.533
 Vibrational            174.911             45.487             41.341
 Vibration     1          0.595              1.980              5.161
 Vibration     2          0.595              1.979              5.017
 Vibration     3          0.600              1.961              3.812
 Vibration     4          0.608              1.936              3.160
 Vibration     5          0.628              1.870              2.354
 Vibration     6          0.640              1.834              2.094
 Vibration     7          0.651              1.799              1.899
 Vibration     8          0.660              1.771              1.764
 Vibration     9          0.666              1.753              1.689
 Vibration    10          0.669              1.743              1.650
 Vibration    11          0.685              1.696              1.485
 Vibration    12          0.714              1.611              1.250
 Vibration    13          0.727              1.577              1.169
 Vibration    14          0.757              1.493              1.003
 Vibration    15          0.777              1.441              0.915
 Vibration    16          0.794              1.397              0.847
 Vibration    17          0.803              1.374              0.814
 Vibration    18          0.831              1.307              0.725
 Vibration    19          0.918              1.113              0.519
 Vibration    20          0.961              1.025              0.444
 Vibration    21          0.966              1.016              0.437

                           ! Non-Optimized Parameters !
 Normal termination of Gaussian 16 at Wed Dec  9 17:20:57 2020.

 ----------------------------------------------------------------------
 # B3LYP/6-311++G(d,p) empiricaldispersion=gd3bj scf=xqc pop=npa geom=c
 heck
 ----------------------------------------------------------------------

 --------------------------------------
 CID_18721725_JID_2362_Energie_neutraal
 --------------------------------------
 Structure from the checkpoint file:  "JID_2362.chk"
 Charge =  0 Multiplicity = 1

 SCF Done:  E(RB3LYP) =  -861.702005983     A.U. after   15 cycles
 Normal termination of Gaussian 16 at Wed Dec  9 17:24:10 2020.

 ----------------------------------------------------------------------
 # B3LYP/6-311++G(d,p) empiricaldispersion=gd3bj scf=xqc pop=npa geom=c
 heck
 ----------------------------------------------------------------------

 ------------------------------------
 CID_18721725_JID_2362_Energie_kation
 ------------------------------------
 Structure from the checkpoint file:  "JID_2362.chk"
 Charge =  1 Multiplicity = 2

 SCF Done:  E(UB3LYP) =  -861.409889301     A.U. after   26 cycles
 Normal termination of Gaussian 16 at Wed Dec  9 17:32:22 2020.
 Gaussian 16:  ES64L-G16RevA.03 25-Dec-2016

 ----------------------------------------------------------------------
 # B3LYP/6-311++G(d,p) empiricaldispersion=gd3bj scf=xqc pop=npa geom=c
 heck
 ----------------------------------------------------------------------

 -----------------------------------
 CID_18721725_JID_2362_Energie_anion
 -----------------------------------
 Structure from the checkpoint file:  "JID_2362.chk"
 Charge = -1 Multiplicity = 2

                         Standard orientation:
 ---------------------------------------------------------------------
 Center     Atomic      Atomic             Coordinates (Angstroms)
 Number     Number       Type             X           Y           Z
 ---------------------------------------------------------------------
      1          6           0        2.569066    1.150618   -0.858593
      2          6           0        2.659374   -0.274307   -0.296565
      3          6           0        4.110962   -0.604718    0.079354
      4          6           0        1.749429   -0.519218    0.921947
      5          6           0        0.221980   -0.394745    0.720098
      6          6           0       -0.239136   -1.272437   -0.460389
      7         16           0       -1.935009   -1.952601   -0.305081
      8          6           0       -2.807193   -0.482823    0.348223
      9          6           0       -2.460339    0.822669   -0.367789
     10          6           0       -1.189991    1.507870    0.131161
     11          7           0       -0.116595    1.018900    0.620353
     12          7           0       -1.232992    2.888002   -0.053035
     13          1           0        2.815565    1.886970   -0.084211
     14          1           0        1.566170    1.388412   -1.219223
     15          1           0        3.277310    1.278942   -1.686638
     16          1           0        2.362717   -0.971398   -1.094359
     17          1           0        4.465276    0.060259    0.877590
     18          1           0        4.209633   -1.636596    0.436944
     19          1           0        4.780301   -0.478834   -0.779632
     20          1           0        1.948235   -1.533022    1.297530
     21          1           0        2.029078    0.177118    1.722675
     22          1           0       -0.230363   -0.798192    1.637982
     23          1           0       -0.144528   -0.714605   -1.397025
     24          1           0        0.397376   -2.158615   -0.544019
     25          1           0       -2.622143   -0.385656    1.422556
     26          1           0       -3.869804   -0.708524    0.218963
     27          1           0       -3.293867    1.525090   -0.233455
     28          1           0       -2.383844    0.657185   -1.449225
     29          1           0       -2.126752    3.342401    0.084982
     30          1           0       -0.458018    3.364916    0.393950
 ---------------------------------------------------------------------

 SCF Done:  E(UB3LYP) =  -861.689519967     A.U. after   30 cycles

 The electronic state is 2-A.
 Alpha  occ. eigenvalues --  -88.73795 -14.20816 -14.17468 -10.13989 -10.10556
 Alpha  occ. eigenvalues --  -10.10069 -10.09817 -10.08044 -10.07747 -10.06576
 Alpha  occ. eigenvalues --  -10.06490 -10.05286  -7.82426  -5.78823  -5.78462
 Alpha  occ. eigenvalues --   -5.77785  -0.84523  -0.76943  -0.71078  -0.71002
 Alpha  occ. eigenvalues --   -0.66951  -0.61514  -0.58559  -0.57516  -0.53623
 Alpha  occ. eigenvalues --   -0.48767  -0.46217  -0.43973  -0.40760  -0.39404
 Alpha  occ. eigenvalues --   -0.37503  -0.36803  -0.34846  -0.33895  -0.32848
 Alpha  occ. eigenvalues --   -0.30959  -0.30840  -0.29454  -0.29253  -0.28735
 Alpha  occ. eigenvalues --   -0.27705  -0.26782  -0.25170  -0.24274  -0.23116
 Alpha  occ. eigenvalues --   -0.22774  -0.21611  -0.20734  -0.13896  -0.13221
 Alpha  occ. eigenvalues --   -0.12306   0.04475
 Alpha virt. eigenvalues --    0.06032   0.07514   0.08062   0.08271   0.08776
 Alpha virt. eigenvalues --    0.09571   0.10189   0.10610   0.10919   0.11193
 Alpha virt. eigenvalues --    0.11938   0.12154   0.12623   0.13186   0.13742

  Beta  occ. eigenvalues --  -88.73793 -14.20757 -14.17457 -10.13988 -10.10551
  Beta  occ. eigenvalues --  -10.10047 -10.09806 -10.07992 -10.07741 -10.06558
  Beta  occ. eigenvalues --  -10.06482 -10.05272  -7.82424  -5.78822  -5.78458
  Beta  occ. eigenvalues --   -5.77783  -0.84481  -0.76886  -0.71048  -0.70970
  Beta  occ. eigenvalues --   -0.66906  -0.61475  -0.58525  -0.57455  -0.53580
  Beta  occ. eigenvalues --   -0.48728  -0.46162  -0.43918  -0.40702  -0.39350
  Beta  occ. eigenvalues --   -0.37451  -0.36766  -0.34812  -0.33869  -0.32821
  Beta  occ. eigenvalues --   -0.30920  -0.30793  -0.29402  -0.29224  -0.28714
  Beta  occ. eigenvalues --   -0.27680  -0.26759  -0.25145  -0.24245  -0.23093
  Beta  occ. eigenvalues --   -0.22745  -0.21580  -0.20705  -0.13869  -0.13187
  Beta  occ. eigenvalues --   -0.12285
  Beta virt. eigenvalues --    0.06303   0.07620   0.08091   0.08176   0.08708
  Beta virt. eigenvalues --    0.09289   0.09888   0.10342   0.10817   0.11341
  Beta virt. eigenvalues --    0.11452   0.12135   0.12369   0.12969   0.13350

 Mulliken charges and spin densities:
               1          2
     1  C   -0.126677  -0.607346
     2  C   -0.891758   1.462015
     3  C    0.409043  -0.992588
     4  C    1.458002  -2.391422
     5  C   -1.154223   1.344254
     6  C    0.078491  -0.539212
     7  S   -0.023533  -0.223670
     8  C   -0.431985   0.344925
     9  C    1.668059  -2.107102
    10  C   -0.183088  -0.047352
    11  N    0.048654  -0.101011
    12  N   -0.396391   0.211210
    13  H    0.030353   0.111106
    14  H    0.077988   0.115186
    15  H   -0.047117   0.154531
    16  H   -0.022185   0.155755
    17  H    0.062980   0.066771
    18  H   -0.188897   0.314872
    19  H   -0.079017   0.212084
    20  H    0.075562   0.033406
    21  H    0.065513   0.114552
    22  H    0.005577   0.216373
    23  H    0.059792   0.138305
    24  H    0.147526   0.045248
    25  H    0.133001   0.027745
    26  H   -0.514900   0.791199
    27  H   -0.782421   0.954424
    28  H    0.036417   0.174764
    29  H   -0.431666   0.686312
    30  H   -0.083099   0.334665
 Sum of Mulliken charges =  -1.00000   1.00000

 Dipole moment (field-independent basis, Debye):
    X=              5.0044    Y=             -4.8962    Z=              0.2524  Tot=              7.0057
 Quadrupole moment (field-independent basis, Debye-Ang):
   XX=           -162.5540   YY=           -137.5295   ZZ=           -109.4689
   XY=             17.1794   XZ=             -0.1209   YZ=              0.4053

 Summary of Natural Population Analysis:

                                       Natural Population
                Natural  -----------------------------------------------
    Atom  No    Charge         Core      Valence    Rydberg      Total
 -----------------------------------------------------------------------
      C    1   -0.28354      0.99964     2.27850    0.00540     3.28354
      C    2   -0.11911      0.99961     2.10860    0.01090     3.11911
      C    3   -0.27992      0.99965     2.27544    0.00483     3.27992
      C    4   -0.17946      0.99959     2.17068    0.00919     3.17946
      C    5   -0.02490      0.99956     2.01125    0.01409     3.02490
      C    6   -0.25794      0.99956     2.24978    0.00860     3.25794
      S    7    0.08309      4.99963     2.89959    0.01769     7.91691
      C    8   -0.25118      0.99959     2.24010    0.01149     3.25118
      C    9   -0.23251      0.99957     2.22116    0.01178     3.23251
      C   10    0.23738      0.99956     1.74571    0.01735     2.76262
      N   11   -0.29346      0.99962     2.78079    0.01305     3.79346
      N   12   -0.39725      0.99971     2.88744    0.01009     3.89725
      H   13    0.09763      0.00000     0.40123    0.00113     0.40237
      H   14    0.10799      0.00000     0.39089    0.00111     0.39201
      H   15    0.09189      0.00000     0.40715    0.00096     0.40811
      H   16    0.08969      0.00000     0.40841    0.00191     0.41031
      H   17    0.09486      0.00000     0.40408    0.00106     0.40514
      H   18    0.09688      0.00000     0.40200    0.00111     0.40312
      H   19    0.09682      0.00000     0.40214    0.00104     0.40318
      H   20    0.09389      0.00000     0.40485    0.00125     0.40611
      H   21    0.10134      0.00000     0.39707    0.00159     0.39866
      H   22    0.09457      0.00000     0.40368    0.00174     0.40543
      H   23    0.10202      0.00000     0.39605    0.00192     0.39798
      H   24    0.10767      0.00000     0.39093    0.00139     0.39233
      H   25    0.10108      0.00000     0.39677    0.00215     0.39892
      H   26    0.11158      0.00000     0.38687    0.00155     0.38842
      H   27    0.11647      0.00000     0.37736    0.00617     0.38353
      H   28    0.11238      0.00000     0.38617    0.00145     0.38762
      H   29    0.19249      0.00000     0.29759    0.00992     0.30751
      H   30    0.18955      0.00000     0.30785    0.00260     0.31045
 =======================================================================
   * Total *    0.00000     15.99532    34.83016    0.17452    51.00000

 Normal termination of Gaussian 16 at Wed Dec  9 17:41:25 2020.
