 Gaussian 16, Revision A.03,

 -----------------------------------------------------------
 # opt freq B3LYP/6-31G(d) empiricaldispersion=gd3bj scf=xqc
 -----------------------------------------------------------

 -------------------------------
 CID_102192912_JID_2594_neutraal
 -------------------------------
 Symbolic Z-matrix:
 Charge =  0 Multiplicity = 1

 SCF Done:  E(RB3LYP) =  -553.524350216     A.U. after   15 cycles
 SCF Done:  E(RB3LYP) =  -553.533480070     A.U. after   13 cycles
 SCF Done:  E(RB3LYP) =  -553.534073188     A.U. after   12 cycles
 SCF Done:  E(RB3LYP) =  -553.534091407     A.U. after   12 cycles
 SCF Done:  E(RB3LYP) =  -553.534152980     A.U. after   11 cycles
 SCF Done:  E(RB3LYP) =  -553.534178504     A.U. after   11 cycles
 SCF Done:  E(RB3LYP) =  -553.534218142     A.U. after   12 cycles
 SCF Done:  E(RB3LYP) =  -553.534228866     A.U. after   11 cycles
 SCF Done:  E(RB3LYP) =  -553.534241522     A.U. after   11 cycles
 SCF Done:  E(RB3LYP) =  -553.534251252     A.U. after    9 cycles
 SCF Done:  E(RB3LYP) =  -553.534254100     A.U. after    8 cycles
 SCF Done:  E(RB3LYP) =  -553.534254606     A.U. after    8 cycles
 SCF Done:  E(RB3LYP) =  -553.534255796     A.U. after    9 cycles
 SCF Done:  E(RB3LYP) =  -553.534256132     A.U. after    8 cycles
 SCF Done:  E(RB3LYP) =  -553.534256240     A.U. after    7 cycles
 Optimization completed.
    -- Stationary point found.
 Normal termination of Gaussian 16 at Wed Dec  9 17:44:05 2020.

 --------------------------------------------------------------------
 #N Geom=AllCheck Guess=TCheck SCRF=Check GenChk RB3LYP/6-31G(d) Freq
 --------------------------------------------------------------------

 Structure from the checkpoint file:  "JID_2594.chk"
 -------------------------------
 CID_102192912_JID_2594_neutraal
 -------------------------------
 Charge =  0 Multiplicity = 1

 SCF Done:  E(RB3LYP) =  -553.534256240     A.U. after    1 cycles

  Exact polarizability: 155.549  -0.000  95.494  -3.802   0.000  63.413
 Approx polarizability: 202.785   0.000 154.732  -8.208   0.002  94.317

                      1                      2                      3
                      A                      A                      A
 Frequencies --     17.5864                55.0847                59.7723
 Red. masses --      3.3054                 4.0815                 1.8281
 Frc consts  --      0.0006                 0.0073                 0.0038
 IR Inten    --      0.3808                 2.8772                 0.0442

                      4                      5                      6
                      A                      A                      A
 Frequencies --     66.2031               107.0853               178.6543
 Red. masses --      4.0141                 6.7010                 3.4739
 Frc consts  --      0.0104                 0.0453                 0.0653
 IR Inten    --      6.9821                 4.7091                 0.0176

                      7                      8                      9
                      A                      A                      A
 Frequencies --    183.4395               307.3472               390.7235
 Red. masses --      6.6205                 8.4091                 8.0540
 Frc consts  --      0.1313                 0.4680                 0.7244
 IR Inten    --      1.0062                 7.7159                 0.8355

                     10                     11                     12
                      A                      A                      A
 Frequencies --    405.3635               470.0968               526.4175
 Red. masses --      5.7044                 6.6920                 4.4875
 Frc consts  --      0.5523                 0.8713                 0.7327
 IR Inten    --      4.1340                 2.6736                 0.0120

                     13                     14                     15
                      A                      A                      A
 Frequencies --    547.3744               555.9053               579.9306
 Red. masses --      4.6638                 3.3289                 4.3974
 Frc consts  --      0.8233                 0.6061                 0.8714
 IR Inten    --      0.7073                 0.0000                 2.3349

                     16                     17                     18
                      A                      A                      A
 Frequencies --    593.2756               648.7987               672.4971
 Red. masses --      2.6997                 5.8696                 6.1835
 Frc consts  --      0.5599                 1.4557                 1.6476
 IR Inten    --      4.4808                16.8543                62.6971

                     19                     20                     21
                      A                      A                      A
 Frequencies --    786.5024               828.4800               831.0148
 Red. masses --      1.3895                 1.9352                 1.5939
 Frc consts  --      0.5064                 0.7826                 0.6485
 IR Inten    --      1.7308                 2.1636                 7.1350

                     22                     23                     24
                      A                      A                      A
 Frequencies --    836.9291               902.6241               948.6310
 Red. masses --      1.5330                 2.6645                 3.9885
 Frc consts  --      0.6327                 1.2790                 2.1147
 IR Inten    --     13.2830                 0.1251                48.4562

                     25                     26                     27
                      A                      A                      A
 Frequencies --   1024.5676              1033.7440              1041.8497
 Red. masses --      2.1631                 2.2616                 5.4842
 Frc consts  --      1.3378                 1.4240                 3.5073
 IR Inten    --      6.8541                 0.0003                 0.0947

                     28                     29                     30
                      A                      A                      A
 Frequencies --   1072.7415              1086.9997              1093.9920
 Red. masses --      1.2719                 1.2859                 2.0447
 Frc consts  --      0.8624                 0.8952                 1.4418
 IR Inten    --      7.1286                 4.5135                 6.4568

                     31                     32                     33
                      A                      A                      A
 Frequencies --   1123.7536              1167.3755              1177.8254
 Red. masses --      1.1275                 8.6303                 1.2279
 Frc consts  --      0.8389                 6.9294                 1.0036
 IR Inten    --      0.9714               238.0499                 2.2026

                     34                     35                     36
                      A                      A                      A
 Frequencies --   1197.4697              1213.7552              1237.0239
 Red. masses --      3.0957                 1.3790                 2.1375
 Frc consts  --      2.6154                 1.1970                 1.9271
 IR Inten    --     54.3258                 0.4120                 9.2391

                     37                     38                     39
                      A                      A                      A
 Frequencies --   1258.3569              1306.1214              1332.6098
 Red. masses --      1.1123                 1.6086                 1.5998
 Frc consts  --      1.0377                 1.6168                 1.6739
 IR Inten    --      0.0000                 0.0443                 3.7742

                     40                     41                     42
                      A                      A                      A
 Frequencies --   1372.3319              1464.1478              1485.4862
 Red. masses --      2.0610                 4.0508                 1.0682
 Frc consts  --      2.2869                 5.1164                 1.3888
 IR Inten    --    221.5847               117.3610                 0.0355

                     43                     44                     45
                      A                      A                      A
 Frequencies --   1492.5554              1508.0020              1528.3112
 Red. masses --      1.0876                 1.1032                 1.3395
 Frc consts  --      1.4275                 1.4782                 1.8434
 IR Inten    --      1.9562                 5.1558                 2.4492

                     46                     47                     48
                      A                      A                      A
 Frequencies --   1838.5779              1891.5821              2386.8758
 Red. masses --     13.0022                12.8277                11.9276
 Frc consts  --     25.8959                27.0427                40.0371
 IR Inten    --    608.1927                 1.4923                 1.8616

                     49                     50                     51
                      A                      A                      A
 Frequencies --   3087.8675              3093.9030              3121.9304
 Red. masses --      1.0603                 1.0622                 1.1059
 Frc consts  --      5.9564                 5.9904                 6.3506
 IR Inten    --     13.8328                 3.5033                 0.0006

                     52                     53                     54
                      A                      A                      A
 Frequencies --   3137.1441              3156.7496              3159.1962
 Red. masses --      1.1033                 1.0824                 1.0505
 Frc consts  --      6.3976                 6.3553                 6.1776
 IR Inten    --      5.4560                 9.4868                15.9845

                     55                     56                     57
                      A                      A                      A
 Frequencies --   3163.9958              3240.2733              3254.0016
 Red. masses --      1.0643                 1.1205                 1.1170
 Frc consts  --      6.2772                 6.9314                 6.9686
 IR Inten    --     13.6012                 0.1154                15.4991

 - Thermochemistry -
 -------------------
 Temperature   298.150 Kelvin.  Pressure   1.00000 Atm.
 Atom     1 has atomic number  6 and mass  12.00000

 Molecular mass:   163.06333 amu.
 Principal axes and moments of inertia in atomic units:
                           1         2         3
     Eigenvalues --   943.704063700.534014494.19588
           X            1.00000  -0.00000   0.00027
           Y            0.00000   1.00000  -0.00000
           Z           -0.00027   0.00000   1.00000
 This molecule is an asymmetric top.
 Rotational symmetry number  1.
 Warning -- assumption of classical behavior for rotation
           may cause significant error
 Rotational temperatures (Kelvin)      0.09178     0.02341     0.01927
 Rotational constants (GHZ):           1.91240     0.48770     0.40157
 Zero-point vibrational energy     432156.1 (Joules/Mol)
                                  103.28778 (Kcal/Mol)
 Warning -- explicit consideration of  16 degrees of freedom as
           vibrations may cause significant error
 Vibrational temperatures:     25.30    79.25    86.00    95.25   154.07
          (Kelvin)            257.04   263.93   442.20   562.16   583.23
                              676.36   757.40   787.55   799.82   834.39
                              853.59   933.48   967.57  1131.60  1192.00
                             1195.64  1204.15  1298.67  1364.87  1474.12
                             1487.33  1498.99  1543.44  1563.95  1574.01
                             1616.83  1679.59  1694.63  1722.89  1746.32
                             1779.80  1810.49  1879.22  1917.33  1974.48
                             2106.58  2137.28  2147.45  2169.68  2198.90
                             2645.30  2721.56  3434.18  4442.75  4451.44
                             4491.76  4513.65  4541.86  4545.38  4552.28
                             4662.03  4681.78

 Zero-point correction=                           0.164600 (Hartree/Particle)
 Thermal correction to Energy=                    0.175881
 Thermal correction to Enthalpy=                  0.176825
 Thermal correction to Gibbs Free Energy=         0.124658
 Sum of electronic and zero-point Energies=           -553.369657
 Sum of electronic and thermal Energies=              -553.358375
 Sum of electronic and thermal Enthalpies=            -553.357431
 Sum of electronic and thermal Free Energies=         -553.409598

                     E (Thermal)             CV                S
                      KCal/Mol        Cal/Mol-Kelvin    Cal/Mol-Kelvin
 Total                  110.367             40.456            109.795
 Electronic               0.000              0.000              0.000
 Translational            0.889              2.981             41.176
 Rotational               0.889              2.981             31.129
 Vibrational            108.590             34.494             37.490
 Vibration     1          0.593              1.986              6.890
 Vibration     2          0.596              1.976              4.626
 Vibration     3          0.597              1.973              4.465
 Vibration     4          0.598              1.970              4.263
 Vibration     5          0.606              1.944              3.321
 Vibration     6          0.629              1.869              2.342
 Vibration     7          0.631              1.862              2.293
 Vibration     8          0.697              1.660              1.377
 Vibration     9          0.758              1.490              0.997
 Vibration    10          0.770              1.459              0.943
 Vibration    11          0.827              1.316              0.737
 Vibration    12          0.881              1.192              0.595
 Vibration    13          0.903              1.145              0.550
 Vibration    14          0.911              1.127              0.532
 Vibration    15          0.937              1.075              0.485
 Vibration    16          0.951              1.046              0.461

 Optimization completed.
    -- Stationary point found.
 Normal termination of Gaussian 16 at Wed Dec  9 17:48:12 2020.

 ----------------------------------------------------------------------
 # B3LYP/6-311++G(d,p) empiricaldispersion=gd3bj scf=xqc pop=npa geom=c
 heck
 ----------------------------------------------------------------------

 ---------------------------------------
 CID_102192912_JID_2594_Energie_neutraal
 ---------------------------------------
 Structure from the checkpoint file:  "JID_2594.chk"
 Charge =  0 Multiplicity = 1

 SCF Done:  E(RB3LYP) =  -553.692535810     A.U. after   14 cycles
 Normal termination of Gaussian 16 at Wed Dec  9 17:49:48 2020.

 ----------------------------------------------------------------------
 # B3LYP/6-311++G(d,p) empiricaldispersion=gd3bj scf=xqc pop=npa geom=c
 heck
 ----------------------------------------------------------------------

 -------------------------------------
 CID_102192912_JID_2594_Energie_kation
 -------------------------------------
 Structure from the checkpoint file:  "JID_2594.chk"
 Charge =  1 Multiplicity = 2

 SCF Done:  E(UB3LYP) =  -553.368302587     A.U. after   25 cycles
 Normal termination of Gaussian 16 at Wed Dec  9 17:54:01 2020.
 Gaussian 16:  ES64L-G16RevA.03 25-Dec-2016

 ----------------------------------------------------------------------
 # B3LYP/6-311++G(d,p) empiricaldispersion=gd3bj scf=xqc pop=npa geom=c
 heck
 ----------------------------------------------------------------------

 ------------------------------------
 CID_102192912_JID_2594_Energie_anion
 ------------------------------------
 Structure from the checkpoint file:  "JID_2594.chk"
 Charge = -1 Multiplicity = 2

                         Standard orientation:
 ---------------------------------------------------------------------
 Center     Atomic      Atomic             Coordinates (Angstroms)
 Number     Number       Type             X           Y           Z
 ---------------------------------------------------------------------
      1          6           0        3.937324    0.748764    0.423671
      2          6           0        3.937251   -0.748698    0.423914
      3          6           0        3.064759   -0.000086   -0.575835
      4          6           0        1.639855   -0.000006   -0.410706
      5          6           0        0.440386   -0.000001   -0.263233
      6          7           0       -0.902591   -0.000001   -0.097513
      7          6           0       -1.675307    1.185983   -0.000567
      8          8           0       -1.224066    2.302587   -0.050999
      9          6           0       -3.128385    0.767619    0.173904
     10          6           0       -3.128374   -0.767600    0.174060
     11          6           0       -1.675315   -1.185976   -0.000546
     12          8           0       -1.224097   -2.302584   -0.051115
     13          1           0        4.801925    1.270611    0.024695
     14          1           0        3.426088    1.263808    1.230264
     15          1           0        4.801811   -1.270750    0.025110
     16          1           0        3.425997   -1.263459    1.230676
     17          1           0        3.415299   -0.000277   -1.605798
     18          1           0       -3.714758    1.201654   -0.641512
     19          1           0       -3.505695    1.202129    1.104438
     20          1           0       -3.714915   -1.201844   -0.641121
     21          1           0       -3.505473   -1.201890    1.104784
 ---------------------------------------------------------------------

 SCF Done:  E(UB3LYP) =  -553.681961628     A.U. after   33 cycles
 SCF Done:  E(UB3LYP) =  -553.682007662     a.u. after    4 cycles

 The electronic state is 2-A.
 Alpha  occ. eigenvalues --  -19.02424 -19.02421 -14.29720 -10.20184 -10.20181
 Alpha  occ. eigenvalues --  -10.11082 -10.10274 -10.09728 -10.09706 -10.09099
 Alpha  occ. eigenvalues --  -10.09071 -10.08113  -0.98435  -0.96530  -0.87794
 Alpha  occ. eigenvalues --   -0.78137  -0.72836  -0.65446  -0.60363  -0.56734
 Alpha  occ. eigenvalues --   -0.53001  -0.52070  -0.51788  -0.42931  -0.41235
 Alpha  occ. eigenvalues --   -0.40065  -0.39570  -0.37052  -0.36240  -0.33719
 Alpha  occ. eigenvalues --   -0.32959  -0.32710  -0.31595  -0.31039  -0.28472
 Alpha  occ. eigenvalues --   -0.25616  -0.25249  -0.25078  -0.22898  -0.20187
 Alpha  occ. eigenvalues --   -0.17993  -0.15752  -0.15109   0.04164
 Alpha virt. eigenvalues --    0.05507   0.06657   0.07212   0.08209   0.08355
 Alpha virt. eigenvalues --    0.09063   0.09351   0.09708   0.11849   0.11973
 Alpha virt. eigenvalues --    0.12369   0.12613   0.13938   0.14689   0.15211

  Beta  occ. eigenvalues --  -19.02413 -19.02410 -14.29707 -10.20165 -10.20162
  Beta  occ. eigenvalues --  -10.11074 -10.10257 -10.09681 -10.09660 -10.09077
  Beta  occ. eigenvalues --  -10.09048 -10.08099  -0.98403  -0.96506  -0.87759
  Beta  occ. eigenvalues --   -0.78106  -0.72768  -0.65398  -0.60261  -0.56663
  Beta  occ. eigenvalues --   -0.52936  -0.52023  -0.51719  -0.42886  -0.41137
  Beta  occ. eigenvalues --   -0.40014  -0.39507  -0.36994  -0.36188  -0.33641
  Beta  occ. eigenvalues --   -0.32874  -0.32643  -0.31505  -0.30990  -0.28437
  Beta  occ. eigenvalues --   -0.25542  -0.25231  -0.24999  -0.22848  -0.20158
  Beta  occ. eigenvalues --   -0.17973  -0.15731  -0.15027
  Beta virt. eigenvalues --    0.06498   0.06855   0.07016   0.07959   0.08608
  Beta virt. eigenvalues --    0.08620   0.09655   0.09989   0.10302   0.12083
  Beta virt. eigenvalues --    0.12425   0.12569   0.12952   0.14047   0.14759

 Mulliken charges and spin densities:
               1          2
     1  C    0.562116  -1.025685
     2  C    0.562079  -1.025646
     3  C   -2.921874   2.890841
     4  C    2.147562  -2.058908
     5  C    0.592484  -0.393444
     6  N   -0.103432   0.132670
     7  C   -0.174518   0.354796
     8  O   -0.327359   0.019745
     9  C    0.830956  -1.213804
    10  C    0.831391  -1.214236
    11  C   -0.174554   0.354719
    12  O   -0.327317   0.019676
    13  H   -0.264710   0.409200
    14  H    0.017307   0.131866
    15  H   -0.264590   0.409068
    16  H    0.017173   0.132005
    17  H   -0.445581   0.713197
    18  H   -0.534548   0.747205
    19  H   -0.243900   0.434648
    20  H   -0.534005   0.746633
    21  H   -0.244683   0.435454
 Sum of Mulliken charges =  -1.00000   1.00000

 Dipole moment (field-independent basis, Debye):
    X=              1.6324    Y=             -0.0001    Z=              2.0822  Tot=              2.6458
 Quadrupole moment (field-independent basis, Debye-Ang):
   XX=           -164.0491   YY=           -107.2651   ZZ=            -94.1767
   XY=              0.0012   XZ=              0.3561   YZ=              0.0037

 Summary of Natural Population Analysis:

                                       Natural Population
                Natural  -----------------------------------------------
    Atom  No    Charge         Core      Valence    Rydberg      Total
 -----------------------------------------------------------------------
      C    1   -0.18458      0.99963     2.17667    0.00828     3.18458
      C    2   -0.18458      0.99963     2.17667    0.00828     3.18458
      C    3   -0.15288      0.99957     2.14259    0.01072     3.15288
      C    4    0.00584      0.99923     1.98798    0.00695     2.99416
      C    5    0.08019      0.99915     1.91162    0.00905     2.91981
      N    6   -0.27146      0.99957     2.76184    0.01004     3.77146
      C    7    0.36539      0.99968     1.61234    0.02259     2.63461
      O    8   -0.28415      0.99987     3.27833    0.00595     4.28415
      C    9   -0.23696      0.99961     2.22845    0.00890     3.23696
      C   10   -0.23696      0.99961     2.22845    0.00890     3.23696
      C   11    0.36536      0.99968     1.61238    0.02259     2.63464
      O   12   -0.28417      0.99987     3.27835    0.00595     4.28417
      H   13    0.10532      0.00000     0.39307    0.00161     0.39468
      H   14    0.10555      0.00000     0.39357    0.00088     0.39445
      H   15    0.10532      0.00000     0.39307    0.00162     0.39468
      H   16    0.10555      0.00000     0.39357    0.00088     0.39445
      H   17    0.11598      0.00000     0.38228    0.00174     0.38402
      H   18    0.12322      0.00000     0.37226    0.00453     0.37678
      H   19    0.11741      0.00000     0.38128    0.00131     0.38259
      H   20    0.12321      0.00000     0.37227    0.00452     0.37679
      H   21    0.11742      0.00000     0.38127    0.00131     0.38258
 =======================================================================
   * Total *    0.00000     11.99508    30.85831    0.14661    43.00000

 Normal termination of Gaussian 16 at Wed Dec  9 18:08:06 2020.
