 Gaussian 16, Revision A.03,

 -----------------------------------------------------------
 # opt freq B3LYP/6-31G(d) empiricaldispersion=gd3bj scf=xqc
 -----------------------------------------------------------

 ------------------------------
 CID_60740945_JID_1925_neutraal
 ------------------------------
 Symbolic Z-matrix:
 Charge =  0 Multiplicity = 1

 SCF Done:  E(RB3LYP) =  -519.123251082     A.U. after   14 cycles
 SCF Done:  E(RB3LYP) =  -519.126381245     A.U. after   12 cycles
 SCF Done:  E(RB3LYP) =  -519.126166392     A.U. after   11 cycles
 SCF Done:  E(RB3LYP) =  -519.126852211     A.U. after   11 cycles
 SCF Done:  E(RB3LYP) =  -519.126936104     A.U. after   10 cycles
 SCF Done:  E(RB3LYP) =  -519.126965536     A.U. after   10 cycles
 SCF Done:  E(RB3LYP) =  -519.126986824     A.U. after    9 cycles
 SCF Done:  E(RB3LYP) =  -519.126991184     A.U. after    9 cycles
 SCF Done:  E(RB3LYP) =  -519.126991742     A.U. after    8 cycles
 SCF Done:  E(RB3LYP) =  -519.126991868     A.U. after    7 cycles
 Optimization completed.
    -- Stationary point found.
 Normal termination of Gaussian 16 at Tue Dec  8 21:51:05 2020.

 --------------------------------------------------------------------
 #N Geom=AllCheck Guess=TCheck SCRF=Check GenChk RB3LYP/6-31G(d) Freq
 --------------------------------------------------------------------

 Structure from the checkpoint file:  "JID_1925.chk"
 ------------------------------
 CID_60740945_JID_1925_neutraal
 ------------------------------
 Charge =  0 Multiplicity = 1

 SCF Done:  E(RB3LYP) =  -519.126991868     A.U. after    1 cycles

  Exact polarizability:  98.513   1.190 102.703  -5.418   0.230  77.907
 Approx polarizability: 128.838  -4.288 154.100  -9.764   0.975 116.032

                      1                      2                      3
                      A                      A                      A
 Frequencies --     58.9719                76.1600               112.1695
 Red. masses --      3.1090                 5.5797                 3.0551
 Frc consts  --      0.0064                 0.0191                 0.0226
 IR Inten    --      0.5317                 4.7931                 0.8959

                      4                      5                      6
                      A                      A                      A
 Frequencies --    203.7426               215.9310               251.7168
 Red. masses --      1.0723                 1.1513                 2.0597
 Frc consts  --      0.0262                 0.0316                 0.0769
 IR Inten    --      1.0844                 0.3731                 3.9985

                      7                      8                      9
                      A                      A                      A
 Frequencies --    260.9664               295.1125               302.9398
 Red. masses --      2.9738                 3.2811                 2.9799
 Frc consts  --      0.1193                 0.1684                 0.1611
 IR Inten    --      0.4888                 3.9987                 2.1222

                     10                     11                     12
                      A                      A                      A
 Frequencies --    344.3945               363.0531               415.7143
 Red. masses --      1.1184                 3.3421                 2.3765
 Frc consts  --      0.0782                 0.2595                 0.2420
 IR Inten    --      0.1840                 2.5851                 5.7408

                     13                     14                     15
                      A                      A                      A
 Frequencies --    447.8319               471.6181               525.2875
 Red. masses --      2.7932                 2.8484                 3.2422
 Frc consts  --      0.3301                 0.3733                 0.5271
 IR Inten    --      3.4901                 4.2976                 4.2369

                     16                     17                     18
                      A                      A                      A
 Frequencies --    527.5127               584.2429               596.3743
 Red. masses --      3.4649                 2.9499                 3.2621
 Frc consts  --      0.5681                 0.5933                 0.6836
 IR Inten    --     15.8333                 4.1428                 6.4009

                     19                     20                     21
                      A                      A                      A
 Frequencies --    693.1000               741.7676               804.0380
 Red. masses --      3.1565                 3.1118                 2.7481
 Frc consts  --      0.8934                 1.0088                 1.0467
 IR Inten    --      4.8990                 6.9246                 7.7789

                     22                     23                     24
                      A                      A                      A
 Frequencies --    876.8701               919.3243               927.2562
 Red. masses --      2.0722                 2.0031                 2.0307
 Frc consts  --      0.9388                 0.9975                 1.0287
 IR Inten    --      2.4446                 4.1767                10.0501

                     25                     26                     27
                      A                      A                      A
 Frequencies --    968.4965               988.7074              1001.6805
 Red. masses --      1.4724                 1.9227                 2.0035
 Frc consts  --      0.8137                 1.1074                 1.1844
 IR Inten    --      2.5219                13.7818                 7.2058

                     28                     29                     30
                      A                      A                      A
 Frequencies --   1058.9517              1063.2100              1091.6427
 Red. masses --      1.7887                 1.7284                 2.6258
 Frc consts  --      1.1818                 1.1512                 1.8436
 IR Inten    --     18.2222                 2.6073                58.8291

                     31                     32                     33
                      A                      A                      A
 Frequencies --   1131.3844              1140.8194              1164.6071
 Red. masses --      2.1298                 2.2415                 2.1537
 Frc consts  --      1.6062                 1.7188                 1.7210
 IR Inten    --     10.4468                24.0760                 0.5018

                     34                     35                     36
                      A                      A                      A
 Frequencies --   1173.2996              1182.7450              1227.2444
 Red. masses --      2.4553                 2.5498                 3.4204
 Frc consts  --      1.9915                 2.1016                 3.0352
 IR Inten    --     31.7656                50.2153                 3.4834

                     37                     38                     39
                      A                      A                      A
 Frequencies --   1294.1958              1297.9324              1348.8528
 Red. masses --      1.4990                 1.2364                 1.2466
 Frc consts  --      1.4793                 1.2272                 1.3363
 IR Inten    --    105.5223                24.1656                 2.6492

                     40                     41                     42
                      A                      A                      A
 Frequencies --   1364.9155              1376.6514              1395.1855
 Red. masses --      1.5249                 1.6423                 1.2480
 Frc consts  --      1.6738                 1.8338                 1.4313
 IR Inten    --     26.5767                61.4226                11.1127

                     43                     44                     45
                      A                      A                      A
 Frequencies --   1401.0229              1417.5764              1430.2918
 Red. masses --      1.3837                 1.3002                 1.3907
 Frc consts  --      1.6002                 1.5395                 1.6762
 IR Inten    --     36.9848                29.6119                13.8396

                     46                     47                     48
                      A                      A                      A
 Frequencies --   1438.7485              1444.2713              1483.5656
 Red. masses --      1.2927                 1.2358                 1.3321
 Frc consts  --      1.5766                 1.5188                 1.7275
 IR Inten    --      9.6410                13.2836                67.3515

                     49                     50                     51
                      A                      A                      A
 Frequencies --   1498.7004              1507.4656              1513.2668
 Red. masses --      1.0838                 1.1130                 1.0612
 Frc consts  --      1.4342                 1.4901                 1.4318
 IR Inten    --      5.4320                 5.0482                 4.8181

                     52                     53                     54
                      A                      A                      A
 Frequencies --   1517.6502              1525.8882              1532.2420
 Red. masses --      1.2245                 1.0873                 1.0658
 Frc consts  --      1.6617                 1.4915                 1.4743
 IR Inten    --     34.2784                15.2602                 0.8975

                     55                     56                     57
                      A                      A                      A
 Frequencies --   1542.0881              1547.2219              1742.8045
 Red. masses --      1.0472                 1.0664                 8.9221
 Frc consts  --      1.4672                 1.5041                15.9667
 IR Inten    --     19.2144                 2.3426               258.7588

                     58                     59                     60
                      A                      A                      A
 Frequencies --   2998.1760              3029.5241              3059.4618
 Red. masses --      1.0693                 1.0831                 1.0730
 Frc consts  --      5.6633                 5.8571                 5.9178
 IR Inten    --     29.9870                28.7656                27.9389

                     61                     62                     63
                      A                      A                      A
 Frequencies --   3067.5569              3068.9977              3075.5358
 Red. masses --      1.0370                 1.0380                 1.0831
 Frc consts  --      5.7492                 5.7602                 6.0361
 IR Inten    --     18.9948                 7.5133                50.3653

                     64                     65                     66
                      A                      A                      A
 Frequencies --   3077.8648              3100.1242              3132.7834
 Red. masses --      1.0412                 1.0943                 1.0998
 Frc consts  --      5.8113                 6.1963                 6.3594
 IR Inten    --     14.2579                43.8259                25.5884

                     67                     68                     69
                      A                      A                      A
 Frequencies --   3139.3468              3142.4329              3147.5708
 Red. masses --      1.1035                 1.1012                 1.0970
 Frc consts  --      6.4079                 6.4069                 6.4031
 IR Inten    --     17.1535                34.9543                 8.0731

                     70                     71                     72
                      A                      A                      A
 Frequencies --   3161.6087              3178.9451              3181.3907
 Red. masses --      1.1016                 1.0941                 1.1032
 Frc consts  --      6.4877                 6.5142                 6.5784
 IR Inten    --     26.5123                 4.0407                 8.3827

 - Thermochemistry -
 -------------------
 Temperature   298.150 Kelvin.  Pressure   1.00000 Atm.
 Atom     1 has atomic number  6 and mass  12.00000

 Molecular mass:   157.11028 amu.
 Principal axes and moments of inertia in atomic units:
                           1         2         3
     Eigenvalues --  1278.420391632.006452399.79777
           X            0.98619   0.16536  -0.00944
           Y           -0.16528   0.98621   0.00901
           Z            0.01080  -0.00733   0.99991
 This molecule is an asymmetric top.
 Rotational symmetry number  1.
 Warning -- assumption of classical behavior for rotation
           may cause significant error
 Rotational temperatures (Kelvin)      0.06775     0.05307     0.03609
 Rotational constants (GHZ):           1.41170     1.10584     0.75204
 Zero-point vibrational energy     606451.3 (Joules/Mol)
                                  144.94534 (Kcal/Mol)
 Warning -- explicit consideration of  18 degrees of freedom as
           vibrations may cause significant error
 Vibrational temperatures:     84.85   109.58   161.39   293.14   310.68
          (Kelvin)            362.16   375.47   424.60   435.86   495.51
                              522.35   598.12   644.33   678.55   755.77
                              758.97   840.60   858.05   997.22  1067.24
                             1156.83  1261.62  1322.70  1334.11  1393.45
                             1422.53  1441.19  1523.60  1529.72  1570.63
                             1627.81  1641.38  1675.61  1688.12  1701.71
                             1765.73  1862.06  1867.44  1940.70  1963.81
                             1980.69  2007.36  2015.76  2039.58  2057.87
                             2070.04  2077.98  2134.52  2156.30  2168.91
                             2177.25  2183.56  2195.41  2204.55  2218.72
                             2226.11  2507.51  4313.71  4358.81  4401.88
                             4413.53  4415.60  4425.01  4428.36  4460.39
                             4507.38  4516.82  4521.26  4528.65  4548.85
                             4573.79  4577.31

 Zero-point correction=                           0.230985 (Hartree/Particle)
 Thermal correction to Energy=                    0.242173
 Thermal correction to Enthalpy=                  0.243117
 Thermal correction to Gibbs Free Energy=         0.194538
 Sum of electronic and zero-point Energies=           -518.896007
 Sum of electronic and thermal Energies=              -518.884819
 Sum of electronic and thermal Enthalpies=            -518.883875
 Sum of electronic and thermal Free Energies=         -518.932454

                     E (Thermal)             CV                S
                      KCal/Mol        Cal/Mol-Kelvin    Cal/Mol-Kelvin
 Total                  151.966             43.163            102.243
 Electronic               0.000              0.000              0.000
 Translational            0.889              2.981             41.065
 Rotational               0.889              2.981             29.994
 Vibrational            150.188             37.201             31.184
 Vibration     1          0.596              1.974              4.491
 Vibration     2          0.599              1.965              3.987
 Vibration     3          0.607              1.939              3.231
 Vibration     4          0.639              1.835              2.099
 Vibration     5          0.645              1.817              1.993
 Vibration     6          0.664              1.760              1.719
 Vibration     7          0.669              1.744              1.655
 Vibration     8          0.689              1.683              1.444
 Vibration     9          0.694              1.668              1.401
 Vibration    10          0.723              1.587              1.192
 Vibration    11          0.737              1.548              1.109
 Vibration    12          0.779              1.436              0.907
 Vibration    13          0.807              1.366              0.802
 Vibration    14          0.829              1.313              0.733
 Vibration    15          0.880              1.194              0.598
 Vibration    16          0.882              1.189              0.593
 Vibration    17          0.941              1.065              0.478
 Vibration    18          0.954              1.039              0.456

                           ! Non-Optimized Parameters !
 Normal termination of Gaussian 16 at Tue Dec  8 21:57:15 2020.

 ----------------------------------------------------------------------
 # B3LYP/6-311++G(d,p) empiricaldispersion=gd3bj scf=xqc pop=npa geom=c
 heck
 ----------------------------------------------------------------------

 --------------------------------------
 CID_60740945_JID_1925_Energie_neutraal
 --------------------------------------
 Structure from the checkpoint file:  "JID_1925.chk"
 Charge =  0 Multiplicity = 1

 SCF Done:  E(RB3LYP) =  -519.277504788     A.U. after   13 cycles
 Normal termination of Gaussian 16 at Tue Dec  8 21:59:48 2020.

 ----------------------------------------------------------------------
 # B3LYP/6-311++G(d,p) empiricaldispersion=gd3bj scf=xqc pop=npa geom=c
 heck
 ----------------------------------------------------------------------

 ------------------------------------
 CID_60740945_JID_1925_Energie_kation
 ------------------------------------
 Structure from the checkpoint file:  "JID_1925.chk"
 Charge =  1 Multiplicity = 2

 SCF Done:  E(UB3LYP) =  -518.969125980     A.U. after   22 cycles
 Normal termination of Gaussian 16 at Tue Dec  8 22:05:42 2020.
 Gaussian 16:  ES64L-G16RevA.03 25-Dec-2016

 ----------------------------------------------------------------------
 # B3LYP/6-311++G(d,p) empiricaldispersion=gd3bj scf=xqc pop=npa geom=c
 heck
 ----------------------------------------------------------------------

 -----------------------------------
 CID_60740945_JID_1925_Energie_anion
 -----------------------------------
 Structure from the checkpoint file:  "JID_1925.chk"
 Charge = -1 Multiplicity = 2

                         Standard orientation:
 ---------------------------------------------------------------------
 Center     Atomic      Atomic             Coordinates (Angstroms)
 Number     Number       Type             X           Y           Z
 ---------------------------------------------------------------------
      1          6           0       -1.878337   -1.291415   -1.020043
      2          6           0       -1.950279   -0.412314    0.227814
      3          6           0       -0.787390   -0.639591    1.203142
      4          7           0        0.461016   -0.110021    0.640712
      5          6           0        0.319269    1.343616    0.410980
      6          6           0       -0.836276    1.552679   -0.578579
      7          8           0       -2.045359    0.982743   -0.105686
      8          6           0        1.551252    2.157459    0.027118
      9          6           0        1.323488   -1.035649    0.085131
     10          8           0        1.114398   -2.240805    0.206154
     11          6           0        2.557623   -0.575639   -0.673932
     12          1           0       -1.935326   -2.348511   -0.742936
     13          1           0       -0.942265   -1.152452   -1.567890
     14          1           0       -2.710899   -1.052041   -1.688745
     15          1           0       -2.887571   -0.620084    0.755918
     16          1           0       -0.993082   -0.109599    2.140614
     17          1           0       -0.646737   -1.699325    1.408901
     18          1           0       -0.026898    1.738049    1.376018
     19          1           0       -0.548884    1.140714   -1.559568
     20          1           0       -1.041551    2.620713   -0.704447
     21          1           0        1.284269    3.217279    0.096543
     22          1           0        2.381386    1.980084    0.715578
     23          1           0        1.893340    1.971508   -0.993056
     24          1           0        2.287521   -0.068332   -1.605536
     25          1           0        3.189055    0.097324   -0.090749
     26          1           0        3.122111   -1.475559   -0.919144
 ---------------------------------------------------------------------

 SCF Done:  E(UB3LYP) =  -519.263423061     A.U. after   31 cycles

 The electronic state is 2-A.
 Alpha  occ. eigenvalues --  -19.02345 -18.98155 -14.23872 -10.17042 -10.12576
 Alpha  occ. eigenvalues --  -10.11297 -10.11265 -10.09709 -10.06594 -10.06146
 Alpha  occ. eigenvalues --  -10.05945  -0.94290  -0.93137  -0.82945  -0.70105
 Alpha  occ. eigenvalues --   -0.65599  -0.64019  -0.58813  -0.57952  -0.53402
 Alpha  occ. eigenvalues --   -0.48888  -0.43015  -0.39497  -0.38897  -0.38035
 Alpha  occ. eigenvalues --   -0.37002  -0.35455  -0.33911  -0.32422  -0.31734
 Alpha  occ. eigenvalues --   -0.31031  -0.30245  -0.28955  -0.28699  -0.27222
 Alpha  occ. eigenvalues --   -0.26965  -0.25374  -0.25266  -0.24077  -0.21481
 Alpha  occ. eigenvalues --   -0.17346  -0.15457  -0.13153   0.04701
 Alpha virt. eigenvalues --    0.06996   0.07651   0.08310   0.09664   0.09825
 Alpha virt. eigenvalues --    0.10549   0.10736   0.11114   0.11998   0.12405
 Alpha virt. eigenvalues --    0.12977   0.13561   0.14352   0.14677   0.15130

  Beta  occ. eigenvalues --  -19.02341 -18.98148 -14.23872 -10.17038 -10.12570
  Beta  occ. eigenvalues --  -10.11270 -10.11246 -10.09698 -10.06554 -10.06128
  Beta  occ. eigenvalues --  -10.05881  -0.94275  -0.93123  -0.82933  -0.70070
  Beta  occ. eigenvalues --   -0.65560  -0.63970  -0.58762  -0.57888  -0.53330
  Beta  occ. eigenvalues --   -0.48847  -0.42964  -0.39451  -0.38868  -0.37997
  Beta  occ. eigenvalues --   -0.36947  -0.35415  -0.33878  -0.32379  -0.31696
  Beta  occ. eigenvalues --   -0.30993  -0.30205  -0.28922  -0.28659  -0.27175
  Beta  occ. eigenvalues --   -0.26915  -0.25342  -0.25229  -0.24020  -0.21457
  Beta  occ. eigenvalues --   -0.17329  -0.15437  -0.13135
  Beta virt. eigenvalues --    0.07031   0.07994   0.08494   0.09069   0.10288
  Beta virt. eigenvalues --    0.10505   0.10781   0.11257   0.11410   0.12357
  Beta virt. eigenvalues --    0.12995   0.13405   0.14025   0.14797   0.14980

 Mulliken charges and spin densities:
               1          2
     1  C    0.440488  -0.984280
     2  C   -1.109394   1.167355
     3  C    0.672085  -0.978472
     4  N    0.064325   0.047240
     5  C   -2.036959   1.985803
     6  C    1.334847  -1.755835
     7  O   -0.134271   0.028390
     8  C    2.277091  -2.895448
     9  C   -0.763681   0.792994
    10  O   -0.348292   0.016573
    11  C    1.382800  -1.856861
    12  H    0.079037   0.051333
    13  H   -0.037316   0.227258
    14  H   -0.033548   0.191676
    15  H   -0.262097   0.485380
    16  H   -0.174433   0.332226
    17  H    0.111310   0.108107
    18  H   -0.266077   0.483387
    19  H    0.015859   0.161609
    20  H   -0.239322   0.411828
    21  H   -0.668491   0.842553
    22  H   -0.537126   0.703282
    23  H   -0.438172   0.588135
    24  H   -0.316700   0.488148
    25  H   -0.232956   0.397266
    26  H    0.220994  -0.039643
 Sum of Mulliken charges =  -1.00000   1.00000

 Dipole moment (field-independent basis, Debye):
    X=             -3.0624    Y=             -4.4357    Z=              0.1146  Tot=              5.3914
 Quadrupole moment (field-independent basis, Debye-Ang):
   XX=           -116.4871   YY=           -124.7076   ZZ=           -101.4989
   XY=             -5.9771   XZ=              0.5511   YZ=             -0.4390

 Summary of Natural Population Analysis:

                                       Natural Population
                Natural  -----------------------------------------------
    Atom  No    Charge         Core      Valence    Rydberg      Total
 -----------------------------------------------------------------------
      C    1   -0.29891      0.99964     2.29436    0.00491     3.29891
      C    2    0.06126      0.99955     1.92493    0.01427     2.93874
      C    3   -0.10067      0.99958     2.08972    0.01137     3.10067
      N    4   -0.26505      0.99964     2.75165    0.01375     3.76505
      C    5   -0.01704      0.99957     2.00382    0.01366     3.01704
      C    6   -0.01236      0.99953     1.99926    0.01358     3.01236
      O    7   -0.30398      0.99989     3.29422    0.00987     4.30398
      C    8   -0.29213      0.99964     2.28570    0.00679     3.29213
      C    9    0.34676      0.99965     1.63083    0.02276     2.65324
      O   10   -0.33206      0.99988     3.32655    0.00563     4.33206
      C   11   -0.32841      0.99962     2.32340    0.00539     3.32841
      H   12    0.10381      0.00000     0.39528    0.00091     0.39619
      H   13    0.10208      0.00000     0.39675    0.00117     0.39792
      H   14    0.10099      0.00000     0.39788    0.00114     0.39901
      H   15    0.09096      0.00000     0.40763    0.00141     0.40904
      H   16    0.09804      0.00000     0.40057    0.00139     0.40196
      H   17    0.11861      0.00000     0.38018    0.00121     0.38139
      H   18    0.09818      0.00000     0.39967    0.00215     0.40182
      H   19    0.07997      0.00000     0.41820    0.00182     0.42003
      H   20    0.09671      0.00000     0.40165    0.00163     0.40329
      H   21    0.11028      0.00000     0.38690    0.00282     0.38972
      H   22    0.10720      0.00000     0.39016    0.00264     0.39280
      H   23    0.10276      0.00000     0.39441    0.00283     0.39724
      H   24    0.11080      0.00000     0.38760    0.00160     0.38920
      H   25    0.11166      0.00000     0.38700    0.00134     0.38834
      H   26    0.11056      0.00000     0.38857    0.00087     0.38944
 =======================================================================
   * Total *   -0.00000     10.99619    31.85690    0.14690    43.00000

 Normal termination of Gaussian 16 at Tue Dec  8 22:13:49 2020.
