 Gaussian 16, Revision A.03,

 -----------------------------------------------------------
 # opt freq B3LYP/6-31G(d) empiricaldispersion=gd3bj scf=xqc
 -----------------------------------------------------------

 ------------------------------
 CID_79169231_JID_5227_neutraal
 ------------------------------
 Symbolic Z-matrix:
 Charge =  0 Multiplicity = 1

 SCF Done:  E(RB3LYP) =  -689.979120896     A.U. after   14 cycles
 SCF Done:  E(RB3LYP) =  -689.983773197     A.U. after   12 cycles
 SCF Done:  E(RB3LYP) =  -689.984407866     A.U. after   11 cycles
 SCF Done:  E(RB3LYP) =  -689.984610427     A.U. after   11 cycles
 SCF Done:  E(RB3LYP) =  -689.984792004     A.U. after   11 cycles
 SCF Done:  E(RB3LYP) =  -689.985007574     A.U. after   11 cycles
 SCF Done:  E(RB3LYP) =  -689.985690354     A.U. after   13 cycles
 SCF Done:  E(RB3LYP) =  -689.986221665     A.U. after   12 cycles
 SCF Done:  E(RB3LYP) =  -689.986419524     A.U. after   12 cycles
 SCF Done:  E(RB3LYP) =  -689.986846403     A.U. after   11 cycles
 SCF Done:  E(RB3LYP) =  -689.988660877     A.U. after    9 cycles
 SCF Done:  E(RB3LYP) =  -689.988662217     A.U. after    9 cycles
 SCF Done:  E(RB3LYP) =  -689.988662363     A.U. after    7 cycles
 SCF Done:  E(RB3LYP) =  -689.988662484     A.U. after    8 cycles
 SCF Done:  E(RB3LYP) =  -689.988662491     A.U. after    6 cycles
 Optimization completed.
    -- Stationary point found.
 Normal termination of Gaussian 16 at Thu Dec 10 15:25:28 2020.

 --------------------------------------------------------------------
 #N Geom=AllCheck Guess=TCheck SCRF=Check GenChk RB3LYP/6-31G(d) Freq
 --------------------------------------------------------------------

 Structure from the checkpoint file:  "JID_5227.chk"
 ------------------------------
 CID_79169231_JID_5227_neutraal
 ------------------------------
 Charge =  0 Multiplicity = 1

 SCF Done:  E(RB3LYP) =  -689.988662491     A.U. after    1 cycles

  Exact polarizability: 167.732   6.637 153.227   8.752   3.532  92.325
 Approx polarizability: 221.473   9.151 233.092  16.394   1.312 134.647

                      1                      2                      3
                      A                      A                      A
 Frequencies --     18.7813                44.8577                51.1798
 Red. masses --      4.2865                 3.3540                 2.8781
 Frc consts  --      0.0009                 0.0040                 0.0044
 IR Inten    --      0.4974                 0.5356                 2.3702

                      4                      5                      6
                      A                      A                      A
 Frequencies --     72.7052                83.9737               101.6591
 Red. masses --      1.1206                 2.5836                 2.6488
 Frc consts  --      0.0035                 0.0107                 0.0161
 IR Inten    --      0.0542                 4.4624                 1.2815

                      7                      8                      9
                      A                      A                      A
 Frequencies --    117.0324               139.5743               152.4404
 Red. masses --      4.3241                 3.6418                 3.1439
 Frc consts  --      0.0349                 0.0418                 0.0430
 IR Inten    --      0.3104                 0.6591                 1.9020

                     10                     11                     12
                      A                      A                      A
 Frequencies --    181.1980               222.6423               234.5304
 Red. masses --      3.1217                 2.1394                 1.6934
 Frc consts  --      0.0604                 0.0625                 0.0549
 IR Inten    --      2.0507                 4.3183                 1.9104

                     13                     14                     15
                      A                      A                      A
 Frequencies --    276.0744               304.0018               322.1507
 Red. masses --      2.4469                 2.1027                 2.1565
 Frc consts  --      0.1099                 0.1145                 0.1319
 IR Inten    --      2.6689                10.6241                19.1988

                     16                     17                     18
                      A                      A                      A
 Frequencies --    354.2694               368.3518               384.4306
 Red. masses --      1.3855                 3.7659                 2.7562
 Frc consts  --      0.1025                 0.3011                 0.2400
 IR Inten    --     43.1897                 2.6196                 8.4552

                     19                     20                     21
                      A                      A                      A
 Frequencies --    436.0994               461.8248               481.0316
 Red. masses --      2.6529                 4.3456                 4.0021
 Frc consts  --      0.2973                 0.5461                 0.5456
 IR Inten    --      8.0684                 0.6049                 8.2593

                     22                     23                     24
                      A                      A                      A
 Frequencies --    544.2404               569.5681               584.6398
 Red. masses --      2.6436                 2.9397                 4.5128
 Frc consts  --      0.4613                 0.5619                 0.9088
 IR Inten    --      7.4006                 1.5853                 6.9407

                     25                     26                     27
                      A                      A                      A
 Frequencies --    618.6958               708.9777               746.5536
 Red. masses --      3.3780                 5.1369                 3.9325
 Frc consts  --      0.7618                 1.5213                 1.2913
 IR Inten    --      4.9361                 3.9288                 2.5278

                     28                     29                     30
                      A                      A                      A
 Frequencies --    765.2074               842.0541               868.3550
 Red. masses --      4.0428                 1.3699                 2.3645
 Frc consts  --      1.3947                 0.5723                 1.0505
 IR Inten    --      6.9737                26.0364                19.7498

                     31                     32                     33
                      A                      A                      A
 Frequencies --    882.0755               896.5576               931.9676
 Red. masses --      2.3619                 1.9066                 2.1052
 Frc consts  --      1.0827                 0.9030                 1.0773
 IR Inten    --     19.1450                22.7357                39.0326

                     34                     35                     36
                      A                      A                      A
 Frequencies --    946.5137               957.3452               981.8608
 Red. masses --      1.6722                 1.3074                 2.1190
 Frc consts  --      0.8826                 0.7060                 1.2036
 IR Inten    --     51.8321                10.6393                 1.8238

                     37                     38                     39
                      A                      A                      A
 Frequencies --   1041.4283              1059.5395              1070.7138
 Red. masses --      1.7698                 2.8471                 1.9949
 Frc consts  --      1.1310                 1.8832                 1.3475
 IR Inten    --      3.3681                47.3133                25.2360

                     40                     41                     42
                      A                      A                      A
 Frequencies --   1076.2926              1086.6462              1129.9431
 Red. masses --      1.8298                 3.3091                 2.2891
 Frc consts  --      1.2489                 2.3021                 1.7220
 IR Inten    --      2.6356                21.6261                46.4616

                     43                     44                     45
                      A                      A                      A
 Frequencies --   1133.9923              1152.0778              1177.5491
 Red. masses --      1.9292                 1.5878                 3.7106
 Frc consts  --      1.4617                 1.2417                 3.0315
 IR Inten    --      7.2689                75.7831                99.7358

                     46                     47                     48
                      A                      A                      A
 Frequencies --   1195.1316              1197.1691              1212.7468
 Red. masses --      1.3231                 1.2983                 1.8750
 Frc consts  --      1.1135                 1.0963                 1.6247
 IR Inten    --      7.8566                 2.6517                45.2034

                     49                     50                     51
                      A                      A                      A
 Frequencies --   1240.8013              1248.2343              1274.2645
 Red. masses --      1.6539                 1.2082                 3.7962
 Frc consts  --      1.5002                 1.1092                 3.6318
 IR Inten    --     31.2654                13.5674                26.7237

                     52                     53                     54
                      A                      A                      A
 Frequencies --   1279.9633              1293.3548              1330.9919
 Red. masses --      1.2886                 1.6996                 1.7570
 Frc consts  --      1.2438                 1.6751                 1.8339
 IR Inten    --     53.4754               116.2503                 5.4332

                     55                     56                     57
                      A                      A                      A
 Frequencies --   1361.9199              1369.8405              1400.4500
 Red. masses --      2.0998                 1.1969                 1.6739
 Frc consts  --      2.2947                 1.3232                 1.9342
 IR Inten    --    103.3229                 4.2733                26.1496

                     58                     59                     60
                      A                      A                      A
 Frequencies --   1422.8643              1436.9822              1448.2471
 Red. masses --      1.3135                 1.4200                 1.4552
 Frc consts  --      1.5667                 1.7276                 1.7983
 IR Inten    --     16.6319                 0.6639                21.5266

                     61                     62                     63
                      A                      A                      A
 Frequencies --   1448.7085              1461.5855              1491.9312
 Red. masses --      1.8030                 1.9543                 1.1624
 Frc consts  --      2.2294                 2.4597                 1.5244
 IR Inten    --      6.3458                18.4453                 3.2444

                     64                     65                     66
                      A                      A                      A
 Frequencies --   1501.3726              1506.8760              1508.2023
 Red. masses --      1.2138                 1.9858                 1.1025
 Frc consts  --      1.6120                 2.6566                 1.4776
 IR Inten    --     20.0651               111.2804                19.1678

                     67                     68                     69
                      A                      A                      A
 Frequencies --   1515.2067              1518.8438              1523.7656
 Red. masses --      1.0498                 1.2508                 1.1259
 Frc consts  --      1.4201                 1.7001                 1.5402
 IR Inten    --      7.1936                31.3301                11.4389

                     70                     71                     72
                      A                      A                      A
 Frequencies --   1527.2853              1532.3001              1549.1363
 Red. masses --      1.0684                 1.0886                 1.0947
 Frc consts  --      1.4683                 1.5059                 1.5479
 IR Inten    --     12.3171                 2.9158                 1.1370

                     73                     74                     75
                      A                      A                      A
 Frequencies --   1641.3685              1645.2286              1694.7476
 Red. masses --      5.8188                 6.5151                 1.0857
 Frc consts  --      9.2363                10.3903                 1.8373
 IR Inten    --     58.8382                 1.4434                40.8589

                     76                     77                     78
                      A                      A                      A
 Frequencies --   2971.4919              2973.1958              2997.9028
 Red. masses --      1.0721                 1.0607                 1.0400
 Frc consts  --      5.5772                 5.5245                 5.5069
 IR Inten    --     71.7580                51.4468                90.7581

                     79                     80                     81
                      A                      A                      A
 Frequencies --   3021.0925              3042.2159              3045.2712
 Red. masses --      1.0964                 1.0623                 1.1046
 Frc consts  --      5.8957                 5.7928                 6.0353
 IR Inten    --     37.3839                 9.7600                56.5275

                     82                     83                     84
                      A                      A                      A
 Frequencies --   3050.3000              3060.7365              3066.9923
 Red. masses --      1.0365                 1.0597                 1.0883
 Frc consts  --      5.6820                 5.8490                 6.0316
 IR Inten    --     30.5216                51.7495                66.5526

                     85                     86                     87
                      A                      A                      A
 Frequencies --   3074.8109              3106.6248              3110.3663
 Red. masses --      1.1007                 1.1008                 1.1080
 Frc consts  --      6.1314                 6.2593                 6.3156
 IR Inten    --     21.0172                17.7199                25.7676

                     88                     89                     90
                      A                      A                      A
 Frequencies --   3132.5073              3145.5561              3196.7371
 Red. masses --      1.1023                 1.0973                 1.0907
 Frc consts  --      6.3729                 6.3970                 6.5668
 IR Inten    --     18.6626                23.2309                19.1762

                     91                     92                     93
                      A                      A                      A
 Frequencies --   3248.8480              3454.3032              3541.0670
 Red. masses --      1.0922                 1.0498                 1.0914
 Frc consts  --      6.7922                 7.3801                 8.0633
 IR Inten    --      0.9298                24.2543                 3.4510

 - Thermochemistry -
 -------------------
 Temperature   298.150 Kelvin.  Pressure   1.00000 Atm.
 Atom     1 has atomic number  6 and mass  12.00000

 Molecular mass:   210.13683 amu.
 Principal axes and moments of inertia in atomic units:
                           1         2         3
     Eigenvalues --  2077.137735329.326046709.48898
           X            0.99999   0.00291  -0.00422
           Y           -0.00287   0.99996   0.00900
           Z            0.00424  -0.00899   0.99995
 This molecule is an asymmetric top.
 Rotational symmetry number  1.
 Warning -- assumption of classical behavior for rotation
           may cause significant error
 Rotational temperatures (Kelvin)      0.04170     0.01625     0.01291
 Rotational constants (GHZ):           0.86886     0.33864     0.26898
 Zero-point vibrational energy     751261.7 (Joules/Mol)
                                  179.55585 (Kcal/Mol)
 Warning -- explicit consideration of  25 degrees of freedom as
           vibrations may cause significant error
 Vibrational temperatures:     27.02    64.54    73.64   104.61   120.82
          (Kelvin)            146.26   168.38   200.82   219.33   260.70
                              320.33   337.44   397.21   437.39   463.50
                              509.71   529.98   553.11   627.45   664.46
                              692.10   783.04   819.48   841.17   890.17
                             1020.06  1074.12  1100.96  1211.53  1249.37
                             1269.11  1289.95  1340.89  1361.82  1377.41
                             1412.68  1498.38  1524.44  1540.52  1548.55
                             1563.44  1625.74  1631.56  1657.58  1694.23
                             1719.53  1722.46  1744.87  1785.24  1795.93
                             1833.38  1841.58  1860.85  1915.00  1959.50
                             1970.89  2014.94  2047.18  2067.50  2083.70
                             2084.37  2102.90  2146.56  2160.14  2168.06
                             2169.97  2180.04  2185.28  2192.36  2197.42
                             2204.64  2228.86  2361.56  2367.12  2438.36
                             4275.31  4277.77  4313.31  4346.68  4377.07
                             4381.47  4388.70  4403.72  4412.72  4423.97
                             4469.74  4475.12  4506.98  4525.75  4599.39
                             4674.37  4969.97  5094.81

 Zero-point correction=                           0.286140 (Hartree/Particle)
 Thermal correction to Energy=                    0.302375
 Thermal correction to Enthalpy=                  0.303319
 Thermal correction to Gibbs Free Energy=         0.240636
 Sum of electronic and zero-point Energies=           -689.702522
 Sum of electronic and thermal Energies=              -689.686288
 Sum of electronic and thermal Enthalpies=            -689.685344
 Sum of electronic and thermal Free Energies=         -689.748026

                     E (Thermal)             CV                S
                      KCal/Mol        Cal/Mol-Kelvin    Cal/Mol-Kelvin
 Total                  189.743             58.799            131.926
 Electronic               0.000              0.000              0.000
 Translational            0.889              2.981             41.932
 Rotational               0.889              2.981             32.674
 Vibrational            187.966             52.837             57.321
 Vibration     1          0.593              1.986              6.759
 Vibration     2          0.595              1.979              5.032
 Vibration     3          0.595              1.977              4.771
 Vibration     4          0.599              1.967              4.079
 Vibration     5          0.601              1.960              3.796
 Vibration     6          0.604              1.948              3.422
 Vibration     7          0.608              1.935              3.149
 Vibration     8          0.615              1.914              2.810
 Vibration     9          0.619              1.900              2.642
 Vibration    10          0.630              1.865              2.316
 Vibration    11          0.648              1.807              1.937
 Vibration    12          0.654              1.788              1.844
 Vibration    13          0.678              1.718              1.558
 Vibration    14          0.695              1.666              1.395
 Vibration    15          0.707              1.631              1.299
 Vibration    16          0.730              1.566              1.147
 Vibration    17          0.741              1.537              1.087
 Vibration    18          0.753              1.503              1.022
 Vibration    19          0.797              1.392              0.839
 Vibration    20          0.820              1.335              0.761
 Vibration    21          0.837              1.292              0.707
 Vibration    22          0.899              1.152              0.556
 Vibration    23          0.926              1.097              0.505
 Vibration    24          0.942              1.065              0.477
 Vibration    25          0.979              0.992              0.419

 Optimization completed.
    -- Stationary point found.
 Normal termination of Gaussian 16 at Thu Dec 10 15:36:05 2020.

 ----------------------------------------------------------------------
 # B3LYP/6-311++G(d,p) empiricaldispersion=gd3bj scf=xqc pop=npa geom=c
 heck
 ----------------------------------------------------------------------

 --------------------------------------
 CID_79169231_JID_5227_Energie_neutraal
 --------------------------------------
 Structure from the checkpoint file:  "JID_5227.chk"
 Charge =  0 Multiplicity = 1

 SCF Done:  E(RB3LYP) =  -690.188837438     A.U. after   15 cycles
 Normal termination of Gaussian 16 at Thu Dec 10 15:41:33 2020.

 ----------------------------------------------------------------------
 # B3LYP/6-311++G(d,p) empiricaldispersion=gd3bj scf=xqc pop=npa geom=c
 heck
 ----------------------------------------------------------------------

 ------------------------------------
 CID_79169231_JID_5227_Energie_kation
 ------------------------------------
 Structure from the checkpoint file:  "JID_5227.chk"
 Charge =  1 Multiplicity = 2

 SCF Done:  E(UB3LYP) =  -689.905027293     A.U. after   24 cycles
 Normal termination of Gaussian 16 at Thu Dec 10 15:53:33 2020.
 Gaussian 16:  ES64L-G16RevA.03 25-Dec-2016

 ----------------------------------------------------------------------
 # B3LYP/6-311++G(d,p) empiricaldispersion=gd3bj scf=xqc pop=npa geom=c
 heck
 ----------------------------------------------------------------------

 -----------------------------------
 CID_79169231_JID_5227_Energie_anion
 -----------------------------------
 Structure from the checkpoint file:  "JID_5227.chk"
 Charge = -1 Multiplicity = 2

                         Standard orientation:
 ---------------------------------------------------------------------
 Center     Atomic      Atomic             Coordinates (Angstroms)
 Number     Number       Type             X           Y           Z
 ---------------------------------------------------------------------
      1          6           0        2.732828    2.911615   -0.011169
      2          6           0        1.652419    1.870918   -0.156206
      3          7           0        2.042473    0.586387   -0.059310
      4          6           0        1.150125   -0.397989   -0.178213
      5          6           0       -0.218648   -0.125629   -0.397766
      6          6           0       -0.638762    1.196955   -0.487672
      7          6           0        0.318612    2.206909   -0.370857
      8          8           0       -1.028363   -1.225519   -0.499332
      9          6           0       -2.306320   -1.125324   -1.121021
     10          6           0       -3.439980   -0.956148   -0.125103
     11          8           0       -3.472215    0.372125    0.351757
     12          6           0       -4.426629    0.565600    1.374607
     13          6           0        1.624589   -1.830768   -0.075174
     14          6           0        3.142823   -1.995397   -0.011152
     15          7           0        3.667136   -1.514734    1.272058
     16          1           0        3.201356    2.848248    0.978092
     17          1           0        3.524354    2.751256   -0.751953
     18          1           0        2.336454    3.923316   -0.139670
     19          1           0       -1.687784    1.438064   -0.601989
     20          1           0        0.019084    3.248931   -0.433664
     21          1           0       -2.319474   -0.317018   -1.861587
     22          1           0       -2.447649   -2.076266   -1.645714
     23          1           0       -4.392788   -1.209819   -0.622950
     24          1           0       -3.295506   -1.666739    0.704373
     25          1           0       -5.447634    0.349734    1.021632
     26          1           0       -4.216705   -0.072481    2.246671
     27          1           0       -4.366937    1.613907    1.675986
     28          1           0        1.180554   -2.291814    0.817095
     29          1           0        1.222975   -2.388460   -0.931243
     30          1           0        3.373056   -3.064780   -0.092994
     31          1           0        3.588710   -1.498385   -0.890240
     32          1           0        4.671814   -1.684597    1.304891
     33          1           0        3.547139   -0.501959    1.272982
 ---------------------------------------------------------------------

 SCF Done:  E(UB3LYP) =  -690.175329708     A.U. after   33 cycles
 SCF Done:  E(UB3LYP) =  -690.175329708     a.u. after    1 cycles

 The electronic state is 2-A.
 Alpha  occ. eigenvalues --  -19.05899 -19.03507 -14.21017 -14.19319 -10.13935
 Alpha  occ. eigenvalues --  -10.13491 -10.12428 -10.11603 -10.11544 -10.11241
 Alpha  occ. eigenvalues --  -10.09790 -10.08424 -10.08146 -10.07587 -10.07406
 Alpha  occ. eigenvalues --   -0.97627  -0.94772  -0.85012  -0.78579  -0.70924
 Alpha  occ. eigenvalues --   -0.70448  -0.66940  -0.64314  -0.60869  -0.57749
 Alpha  occ. eigenvalues --   -0.54835  -0.53316  -0.49571  -0.49006  -0.44521
 Alpha  occ. eigenvalues --   -0.42170  -0.40204  -0.39316  -0.38705  -0.38220
 Alpha  occ. eigenvalues --   -0.37131  -0.36583  -0.34110  -0.34054  -0.33577
 Alpha  occ. eigenvalues --   -0.32515  -0.31455  -0.30386  -0.29800  -0.29355
 Alpha  occ. eigenvalues --   -0.28703  -0.27060  -0.26604  -0.26106  -0.24686
 Alpha  occ. eigenvalues --   -0.23539  -0.22608  -0.18369  -0.17256  -0.16558
 Alpha  occ. eigenvalues --   -0.14908  -0.13006   0.04244
 Alpha virt. eigenvalues --    0.05813   0.06424   0.06536   0.07132   0.07943
 Alpha virt. eigenvalues --    0.08386   0.08573   0.09179   0.09410   0.10134
 Alpha virt. eigenvalues --    0.10422   0.10948   0.11222   0.11558   0.12547

  Beta  occ. eigenvalues --  -19.05901 -19.03493 -14.20996 -14.19310 -10.13930
  Beta  occ. eigenvalues --  -10.13469 -10.12391 -10.11604 -10.11499 -10.11228
  Beta  occ. eigenvalues --  -10.09785 -10.08402 -10.08139 -10.07569 -10.07401
  Beta  occ. eigenvalues --   -0.97619  -0.94752  -0.84984  -0.78565  -0.70891
  Beta  occ. eigenvalues --   -0.70420  -0.66900  -0.64289  -0.60824  -0.57686
  Beta  occ. eigenvalues --   -0.54800  -0.53245  -0.49518  -0.48982  -0.44500
  Beta  occ. eigenvalues --   -0.42137  -0.40146  -0.39275  -0.38674  -0.38198
  Beta  occ. eigenvalues --   -0.37096  -0.36555  -0.34067  -0.34025  -0.33547
  Beta  occ. eigenvalues --   -0.32476  -0.31425  -0.30346  -0.29775  -0.29319
  Beta  occ. eigenvalues --   -0.28675  -0.27042  -0.26569  -0.26093  -0.24647
  Beta  occ. eigenvalues --   -0.23498  -0.22540  -0.18297  -0.17218  -0.16531
  Beta  occ. eigenvalues --   -0.14896  -0.12961
  Beta virt. eigenvalues --    0.06000   0.06641   0.06857   0.06966   0.07856
  Beta virt. eigenvalues --    0.08312   0.08552   0.08906   0.09278   0.09900
  Beta virt. eigenvalues --    0.10377   0.10948   0.11299   0.11505   0.11790

 Mulliken charges and spin densities:
               1          2
     1  C    1.566560  -1.989189
     2  C   -0.514043   0.606860
     3  N    0.045801   0.091290
     4  C   -0.411310   0.224026
     5  C   -0.576674   0.350957
     6  C    0.913836  -0.786629
     7  C   -0.621060   0.093134
     8  O   -0.028878   0.031112
     9  C    0.135959  -0.425561
    10  C    0.628266  -0.766788
    11  O   -0.228877   0.098850
    12  C    0.766411  -1.037898
    13  C   -0.394824   0.126212
    14  C   -0.305511  -0.326663
    15  N   -0.380651   0.017841
    16  H   -0.001485   0.151883
    17  H    0.017828   0.133388
    18  H   -0.133349   0.282921
    19  H    0.323355  -0.015555
    20  H   -0.479457   0.642208
    21  H    0.056929   0.102895
    22  H   -0.694420   0.900403
    23  H   -0.478925   0.624741
    24  H    0.081999   0.073083
    25  H   -0.398803   0.539394
    26  H   -0.238741   0.367155
    27  H   -0.321608   0.458255
    28  H    0.144797   0.064987
    29  H    0.086015   0.058823
    30  H    0.053250   0.101570
    31  H    0.037270   0.093244
    32  H    0.134558   0.079839
    33  H    0.215783   0.033212
 Sum of Mulliken charges =  -1.00000   1.00000

 Dipole moment (field-independent basis, Debye):
    X=              6.8189    Y=             -0.0948    Z=             -1.0631  Tot=              6.9020
 Quadrupole moment (field-independent basis, Debye-Ang):
   XX=           -185.0766   YY=           -139.9753   ZZ=           -125.0968
   XY=             -7.0047   XZ=             -3.0539   YZ=             -2.4135

 Summary of Natural Population Analysis:

                                       Natural Population
                Natural  -----------------------------------------------
    Atom  No    Charge         Core      Valence    Rydberg      Total
 -----------------------------------------------------------------------
      C    1   -0.29422      0.99964     2.28935    0.00523     3.29422
      C    2    0.09657      0.99954     1.89070    0.01319     2.90343
      N    3   -0.25691      0.99964     2.74546    0.01180     3.75691
      C    4    0.10281      0.99951     1.88437    0.01331     2.89719
      C    5    0.14391      0.99932     1.84371    0.01306     2.85609
      C    6   -0.11256      0.99952     2.10336    0.00968     3.11256
      C    7   -0.11778      0.99952     2.10927    0.00899     3.11778
      O    8   -0.27939      0.99986     3.26971    0.00983     4.27939
      C    9   -0.01901      0.99955     2.00609    0.01338     3.01901
      C   10   -0.01907      0.99958     2.00718    0.01231     3.01907
      O   11   -0.30254      0.99988     3.29126    0.01139     4.30254
      C   12   -0.09538      0.99962     2.08672    0.00904     3.09538
      C   13   -0.20964      0.99959     2.20161    0.00844     3.20964
      C   14   -0.08675      0.99964     2.07722    0.00989     3.08675
      N   15   -0.42745      0.99977     2.91803    0.00965     3.92745
      H   16    0.10446      0.00000     0.39419    0.00136     0.39554
      H   17    0.10391      0.00000     0.39485    0.00125     0.39609
      H   18    0.10003      0.00000     0.39899    0.00098     0.39997
      H   19    0.11864      0.00000     0.37931    0.00205     0.38136
      H   20    0.10299      0.00000     0.39594    0.00108     0.39701
      H   21    0.08945      0.00000     0.40868    0.00187     0.41055
      H   22    0.09658      0.00000     0.40175    0.00166     0.40342
      H   23    0.08627      0.00000     0.41015    0.00358     0.41373
      H   24    0.08385      0.00000     0.41442    0.00174     0.41615
      H   25    0.08146      0.00000     0.41622    0.00232     0.41854
      H   26    0.07925      0.00000     0.41923    0.00152     0.42075
      H   27    0.09168      0.00000     0.40692    0.00141     0.40832
      H   28    0.11042      0.00000     0.38778    0.00180     0.38958
      H   29    0.10808      0.00000     0.39026    0.00166     0.39192
      H   30    0.08681      0.00000     0.41192    0.00127     0.41319
      H   31    0.08084      0.00000     0.41735    0.00181     0.41916
      H   32    0.16742      0.00000     0.33073    0.00185     0.33258
      H   33    0.18529      0.00000     0.31226    0.00245     0.31471
 =======================================================================
   * Total *    0.00000     14.99418    41.81497    0.19085    57.00000

 Normal termination of Gaussian 16 at Thu Dec 10 16:10:30 2020.
