 Gaussian 16, Revision A.03,

 -----------------------------------------------------------
 # opt freq B3LYP/6-31G(d) empiricaldispersion=gd3bj scf=xqc
 -----------------------------------------------------------

 -------------------------------
 CID_134586525_JID_3191_neutraal
 -------------------------------
 Symbolic Z-matrix:
 Charge =  0 Multiplicity = 1

 SCF Done:  E(RB3LYP) =  -647.294286079     A.U. after   15 cycles
 SCF Done:  E(RB3LYP) =  -647.300365302     A.U. after   12 cycles
 SCF Done:  E(RB3LYP) =  -647.301079640     A.U. after   11 cycles
 SCF Done:  E(RB3LYP) =  -647.301276695     A.U. after   11 cycles
 SCF Done:  E(RB3LYP) =  -647.301308210     A.U. after    9 cycles
 SCF Done:  E(RB3LYP) =  -647.301312865     A.U. after    8 cycles
 SCF Done:  E(RB3LYP) =  -647.301312695     A.U. after    8 cycles
 SCF Done:  E(RB3LYP) =  -647.301313835     A.U. after    8 cycles
 Optimization completed.
    -- Stationary point found.
 Normal termination of Gaussian 16 at Wed Dec  9 22:24:47 2020.

 --------------------------------------------------------------------
 #N Geom=AllCheck Guess=TCheck SCRF=Check GenChk RB3LYP/6-31G(d) Freq
 --------------------------------------------------------------------

 Structure from the checkpoint file:  "JID_3191.chk"
 -------------------------------
 CID_134586525_JID_3191_neutraal
 -------------------------------
 Charge =  0 Multiplicity = 1

 SCF Done:  E(RB3LYP) =  -647.301313835     A.U. after    1 cycles

  Exact polarizability: 138.579   7.193 103.429  -0.008   0.009  66.561
 Approx polarizability: 179.754   9.781 169.110  -0.041   0.015  94.336

                      1                      2                      3
                      A                      A                      A
 Frequencies --     27.5438                32.8175                83.9738
 Red. masses --      4.1638                 4.9450                 4.6822
 Frc consts  --      0.0019                 0.0031                 0.0195
 IR Inten    --      0.1197                 2.7340                 1.0274

                      4                      5                      6
                      A                      A                      A
 Frequencies --    101.5064               114.0041               203.0879
 Red. masses --      6.0505                 4.1449                 1.0538
 Frc consts  --      0.0367                 0.0317                 0.0256
 IR Inten    --      0.1198                 0.0012                 0.0003

                      7                      8                      9
                      A                      A                      A
 Frequencies --    207.4205               257.3393               266.0708
 Red. masses --      4.1505                 1.0676                 1.0743
 Frc consts  --      0.1052                 0.0417                 0.0448
 IR Inten    --      3.1841                 0.1333                 0.0240

                     10                     11                     12
                      A                      A                      A
 Frequencies --    276.8435               301.4511               323.8955
 Red. masses --      4.4919                 7.4454                 3.1229
 Frc consts  --      0.2028                 0.3986                 0.1930
 IR Inten    --      4.2702                 0.7279                 8.6177

                     13                     14                     15
                      A                      A                      A
 Frequencies --    349.8431               402.3273               446.8810
 Red. masses --      2.5098                 3.5394                 3.0701
 Frc consts  --      0.1810                 0.3375                 0.3612
 IR Inten    --      1.8081                 1.4950                13.5288

                     16                     17                     18
                      A                      A                      A
 Frequencies --    461.0140               466.0543               542.4253
 Red. masses --      2.9252                 4.1710                 1.1307
 Frc consts  --      0.3663                 0.5338                 0.1960
 IR Inten    --      3.0233                 1.7781                92.0871

                     19                     20                     21
                      A                      A                      A
 Frequencies --    612.7270               666.7091               692.9767
 Red. masses --      3.5300                 4.6089                 1.3976
 Frc consts  --      0.7808                 1.2070                 0.3954
 IR Inten    --      7.9710                 1.7477                37.7329

                     22                     23                     24
                      A                      A                      A
 Frequencies --    734.0415               755.4934               791.1841
 Red. masses --      5.1138                10.3285                 5.4087
 Frc consts  --      1.6234                 3.4733                 1.9948
 IR Inten    --      3.8379                30.6538                 5.1875

                     25                     26                     27
                      A                      A                      A
 Frequencies --    820.0449               858.5904               886.4817
 Red. masses --      4.2546                 1.2984                 4.7072
 Frc consts  --      1.6857                 0.5639                 2.1795
 IR Inten    --      3.6922                 7.0352                31.1167

                     28                     29                     30
                      A                      A                      A
 Frequencies --    933.3568               938.9793               941.1128
 Red. masses --      7.0500                 1.6272                 1.6702
 Frc consts  --      3.6185                 0.8453                 0.8716
 IR Inten    --     16.3852                 0.1006                 1.0475

                     31                     32                     33
                      A                      A                      A
 Frequencies --    985.2851               993.9310              1062.0566
 Red. masses --      1.1983                 4.0467                 2.0772
 Frc consts  --      0.6854                 2.3554                 1.3805
 IR Inten    --      0.2037                 0.5554                27.0628

                     34                     35                     36
                      A                      A                      A
 Frequencies --   1068.2775              1086.8106              1100.0023
 Red. masses --      1.4080                 2.5601                 4.4287
 Frc consts  --      0.9467                 1.7816                 3.1573
 IR Inten    --      0.3637                41.7473                 8.0070

                     37                     38                     39
                      A                      A                      A
 Frequencies --   1141.8070              1185.3229              1220.4170
 Red. masses --      2.0066                 1.8308                 2.2663
 Frc consts  --      1.5413                 1.5156                 1.9887
 IR Inten    --      2.6298                30.4858               317.7026

                     40                     41                     42
                      A                      A                      A
 Frequencies --   1236.3508              1288.6682              1299.7204
 Red. masses --      3.3892                 2.6881                 2.8374
 Frc consts  --      3.0524                 2.6301                 2.8240
 IR Inten    --      0.9894                16.9659                46.3669

                     43                     44                     45
                      A                      A                      A
 Frequencies --   1357.5829              1381.1199              1425.1471
 Red. masses --      1.7466                 4.9539                 1.2830
 Frc consts  --      1.8966                 5.5675                 1.5353
 IR Inten    --     11.0537               725.9093                17.8412

                     46                     47                     48
                      A                      A                      A
 Frequencies --   1429.2443              1454.4076              1499.3814
 Red. masses --      1.2904                 1.2368                 1.0464
 Frc consts  --      1.5530                 1.5414                 1.3860
 IR Inten    --     35.6877                16.1066                 0.4549

                     49                     50                     51
                      A                      A                      A
 Frequencies --   1517.7639              1519.8051              1525.7919
 Red. masses --      1.0463                 1.0530                 1.0668
 Frc consts  --      1.4201                 1.4330                 1.4632
 IR Inten    --      0.4045                 0.3835                17.9245

                     52                     53                     54
                      A                      A                      A
 Frequencies --   1533.7657              1538.2793              1556.5468
 Red. masses --      1.0524                 2.3315                 1.0641
 Frc consts  --      1.4587                 3.2506                 1.5190
 IR Inten    --      0.9749               181.6198                27.9405

                     55                     56                     57
                      A                      A                      A
 Frequencies --   1592.0529              1666.3714              1816.2100
 Red. masses --      4.4946                11.2001                 8.5341
 Frc consts  --      6.7120                18.3238                16.5860
 IR Inten    --     19.7639               275.9771               490.0962

                     58                     59                     60
                      A                      A                      A
 Frequencies --   3061.8039              3062.0928              3069.8128
 Red. masses --      1.0377                 1.0360                 1.0373
 Frc consts  --      5.7314                 5.7232                 5.7595
 IR Inten    --     21.8378                 5.8873                18.4258

                     61                     62                     63
                      A                      A                      A
 Frequencies --   3125.3476              3127.2401              3141.1688
 Red. masses --      1.1025                 1.1024                 1.1027
 Frc consts  --      6.3452                 6.3519                 6.4103
 IR Inten    --      8.7637                17.7512                45.1289

                     64                     65                     66
                      A                      A                      A
 Frequencies --   3144.5964              3170.0089              3173.0456
 Red. masses --      1.1033                 1.1005                 1.0998
 Frc consts  --      6.4281                 6.5156                 6.5242
 IR Inten    --     22.6343                 0.8939                11.6998

                     67                     68                     69
                      A                      A                      A
 Frequencies --   3279.5970              3327.4527              3640.0223
 Red. masses --      1.0939                 1.1050                 1.0768
 Frc consts  --      6.9324                 7.2087                 8.4064
 IR Inten    --      6.9591                 0.7201                73.4478

 - Thermochemistry -
 -------------------
 Temperature   298.150 Kelvin.  Pressure   1.00000 Atm.
 Atom     1 has atomic number  6 and mass  12.00000

 Molecular mass:   184.08479 amu.
 Principal axes and moments of inertia in atomic units:
                           1         2         3
     Eigenvalues --  1078.310843944.166224618.46251
           X            0.99995  -0.00956   0.00001
           Y            0.00956   0.99995   0.00002
           Z           -0.00001  -0.00002   1.00000
 This molecule is an asymmetric top.
 Rotational symmetry number  1.
 Warning -- assumption of classical behavior for rotation
           may cause significant error
 Rotational temperatures (Kelvin)      0.08032     0.02196     0.01875
 Rotational constants (GHZ):           1.67367     0.45757     0.39077
 Zero-point vibrational energy     534135.6 (Joules/Mol)
                                  127.66148 (Kcal/Mol)
 Warning -- explicit consideration of  19 degrees of freedom as
           vibrations may cause significant error
 Vibrational temperatures:     39.63    47.22   120.82   146.05   164.03
          (Kelvin)            292.20   298.43   370.25   382.82   398.32
                              433.72   466.01   503.35   578.86   642.96
                              663.30   670.55   780.43   881.58   959.25
                              997.04  1056.12  1086.99  1138.34  1179.86
                             1235.32  1275.45  1342.89  1350.98  1354.05
                             1417.61  1430.05  1528.06  1537.01  1563.68
                             1582.66  1642.81  1705.42  1755.91  1778.83
                             1854.11  1870.01  1953.26  1987.12  2050.47
                             2056.36  2092.57  2157.28  2183.72  2186.66
                             2195.27  2206.75  2213.24  2239.52  2290.61
                             2397.54  2613.12  4405.25  4405.67  4416.78
                             4496.68  4499.40  4519.44  4524.37  4560.94
                             4565.30  4718.61  4787.46  5237.18

 Zero-point correction=                           0.203442 (Hartree/Particle)
 Thermal correction to Energy=                    0.216526
 Thermal correction to Enthalpy=                  0.217470
 Thermal correction to Gibbs Free Energy=         0.162717
 Sum of electronic and zero-point Energies=           -647.097872
 Sum of electronic and thermal Energies=              -647.084788
 Sum of electronic and thermal Enthalpies=            -647.083844
 Sum of electronic and thermal Free Energies=         -647.138597

                     E (Thermal)             CV                S
                      KCal/Mol        Cal/Mol-Kelvin    Cal/Mol-Kelvin
 Total                  135.872             48.335            115.238
 Electronic               0.000              0.000              0.000
 Translational            0.889              2.981             41.537
 Rotational               0.889              2.981             31.352
 Vibrational            134.095             42.374             42.349
 Vibration     1          0.593              1.984              5.999
 Vibration     2          0.594              1.983              5.651
 Vibration     3          0.601              1.960              3.796
 Vibration     4          0.604              1.948              3.425
 Vibration     5          0.607              1.938              3.200
 Vibration     6          0.639              1.836              2.105
 Vibration     7          0.641              1.829              2.066
 Vibration     8          0.667              1.750              1.680
 Vibration     9          0.672              1.735              1.622
 Vibration    10          0.678              1.716              1.553
 Vibration    11          0.693              1.671              1.409
 Vibration    12          0.708              1.628              1.290
 Vibration    13          0.727              1.576              1.167
 Vibration    14          0.768              1.465              0.954
 Vibration    15          0.806              1.368              0.805
 Vibration    16          0.819              1.337              0.763
 Vibration    17          0.823              1.325              0.749
 Vibration    18          0.898              1.156              0.560
 Vibration    19          0.972              1.005              0.428

                           ! Non-Optimized Parameters !
 Normal termination of Gaussian 16 at Wed Dec  9 22:30:46 2020.

 ----------------------------------------------------------------------
 # B3LYP/6-311++G(d,p) empiricaldispersion=gd3bj scf=xqc pop=npa geom=c
 heck
 ----------------------------------------------------------------------

 ---------------------------------------
 CID_134586525_JID_3191_Energie_neutraal
 ---------------------------------------
 Structure from the checkpoint file:  "JID_3191.chk"
 Charge =  0 Multiplicity = 1

 SCF Done:  E(RB3LYP) =  -647.490347169     A.U. after   13 cycles
 Normal termination of Gaussian 16 at Wed Dec  9 22:33:10 2020.

 ----------------------------------------------------------------------
 # B3LYP/6-311++G(d,p) empiricaldispersion=gd3bj scf=xqc pop=npa geom=c
 heck
 ----------------------------------------------------------------------

 -------------------------------------
 CID_134586525_JID_3191_Energie_kation
 -------------------------------------
 Structure from the checkpoint file:  "JID_3191.chk"
 Charge =  1 Multiplicity = 2

 SCF Done:  E(UB3LYP) =  -647.178542042     A.U. after   20 cycles
 Normal termination of Gaussian 16 at Wed Dec  9 22:38:24 2020.
 Gaussian 16:  ES64L-G16RevA.03 25-Dec-2016

 ----------------------------------------------------------------------
 # B3LYP/6-311++G(d,p) empiricaldispersion=gd3bj scf=xqc pop=npa geom=c
 heck
 ----------------------------------------------------------------------

 ------------------------------------
 CID_134586525_JID_3191_Energie_anion
 ------------------------------------
 Structure from the checkpoint file:  "JID_3191.chk"
 Charge = -1 Multiplicity = 2

                         Standard orientation:
 ---------------------------------------------------------------------
 Center     Atomic      Atomic             Coordinates (Angstroms)
 Number     Number       Type             X           Y           Z
 ---------------------------------------------------------------------
      1          6           0       -2.234908    2.025074   -0.002708
      2          6           0       -2.294337    0.498938   -0.000216
      3          6           0       -2.958499   -0.025725    1.272994
      4          6           0       -2.963285   -0.029743   -1.269250
      5          8           0       -0.865723    0.134488   -0.002304
      6          6           0       -0.484752   -1.138572   -0.000309
      7          8           0       -1.181238   -2.136590    0.002100
      8          7           0        0.904219   -1.250182   -0.001175
      9          6           0        1.876694   -0.273231   -0.000368
     10          7           0        1.797137    1.021661    0.001138
     11          6           0        3.132604    1.430335    0.001181
     12          6           0        3.948217    0.352671   -0.000266
     13          8           0        3.143009   -0.774825   -0.001323
     14          1           0       -3.248754    2.438138   -0.001101
     15          1           0       -1.707201    2.385741   -0.890369
     16          1           0       -1.703203    2.388429    0.881456
     17          1           0       -3.986041    0.349642    1.327523
     18          1           0       -2.981068   -1.116345    1.284258
     19          1           0       -2.417494    0.330253    2.155969
     20          1           0       -2.425444    0.323223   -2.155362
     21          1           0       -2.986080   -1.120384   -1.276872
     22          1           0       -3.990936    0.345694   -1.321245
     23          1           0        1.232734   -2.205885    0.000287
     24          1           0        3.393974    2.478652    0.002287
     25          1           0        5.011234    0.179423   -0.000714
 ---------------------------------------------------------------------

 SCF Done:  E(UB3LYP) =  -647.474646767     A.U. after   32 cycles

 The electronic state is 2-A.
 Alpha  occ. eigenvalues --  -19.11097 -19.07275 -19.01545 -14.27924 -14.21463
 Alpha  occ. eigenvalues --  -10.24583 -10.21161 -10.15475 -10.13271 -10.10808
 Alpha  occ. eigenvalues --  -10.06804 -10.06804 -10.06669  -1.05039  -1.02541
 Alpha  occ. eigenvalues --   -0.93784  -0.86842  -0.82963  -0.72514  -0.67122
 Alpha  occ. eigenvalues --   -0.60514  -0.60439  -0.58128  -0.53583  -0.53353
 Alpha  occ. eigenvalues --   -0.46851  -0.44992  -0.42191  -0.40647  -0.40005
 Alpha  occ. eigenvalues --   -0.38168  -0.38140  -0.35835  -0.34996  -0.34674
 Alpha  occ. eigenvalues --   -0.32615  -0.31400  -0.30132  -0.29840  -0.27840
 Alpha  occ. eigenvalues --   -0.27220  -0.26691  -0.25157  -0.24675  -0.22485
 Alpha  occ. eigenvalues --   -0.21433  -0.20198  -0.19557  -0.13637   0.04357
 Alpha virt. eigenvalues --    0.05763   0.07386   0.07940   0.08121   0.08442
 Alpha virt. eigenvalues --    0.09040   0.09517   0.10941   0.11397   0.11565
 Alpha virt. eigenvalues --    0.12131   0.12365   0.13137   0.14093   0.14203

  Beta  occ. eigenvalues --  -19.11090 -19.07265 -19.01539 -14.27905 -14.21457
  Beta  occ. eigenvalues --  -10.24582 -10.21162 -10.15472 -10.13242 -10.10799
  Beta  occ. eigenvalues --  -10.06776 -10.06776 -10.06641  -1.05027  -1.02527
  Beta  occ. eigenvalues --   -0.93772  -0.86820  -0.82946  -0.72494  -0.67086
  Beta  occ. eigenvalues --   -0.60465  -0.60394  -0.58099  -0.53544  -0.53318
  Beta  occ. eigenvalues --   -0.46828  -0.44946  -0.42160  -0.40627  -0.39933
  Beta  occ. eigenvalues --   -0.38145  -0.38119  -0.35803  -0.34976  -0.34633
  Beta  occ. eigenvalues --   -0.32589  -0.31373  -0.30098  -0.29799  -0.27812
  Beta  occ. eigenvalues --   -0.27192  -0.26665  -0.25136  -0.24661  -0.22472
  Beta  occ. eigenvalues --   -0.21420  -0.20187  -0.19546  -0.13618
  Beta virt. eigenvalues --    0.06532   0.07373   0.07993   0.08064   0.08765
  Beta virt. eigenvalues --    0.09100   0.09514   0.10204   0.11154   0.11461
  Beta virt. eigenvalues --    0.11607   0.12321   0.12597   0.13363   0.14182

 Mulliken charges and spin densities:
               1          2
     1  C    0.161678  -0.575352
     2  C   -1.396368   1.250695
     3  C    0.662736  -1.092237
     4  C    0.663335  -1.093333
     5  O    0.160986  -0.038799
     6  C    0.724927  -0.591640
     7  O   -0.301296   0.030525
     8  N   -0.387021  -0.086243
     9  C    0.836230  -0.900936
    10  N   -0.281336   0.063421
    11  C    0.575719  -0.546110
    12  C    0.493523  -0.503471
    13  O   -0.080410   0.054454
    14  H   -0.132983   0.279163
    15  H   -0.061950   0.228265
    16  H   -0.060708   0.227177
    17  H   -0.287820   0.452296
    18  H    0.079601   0.099458
    19  H   -0.020440   0.167641
    20  H   -0.020395   0.167469
    21  H    0.079808   0.099389
    22  H   -0.287688   0.452148
    23  H    0.033674   0.321142
    24  H   -0.516485   0.689057
    25  H   -1.637315   1.845824
 Sum of Mulliken charges =  -1.00000   1.00000

 Dipole moment (field-independent basis, Debye):
    X=             -3.1735    Y=             -1.8828    Z=             -0.0025  Tot=              3.6900
 Quadrupole moment (field-independent basis, Debye-Ang):
   XX=           -188.2594   YY=           -114.9921   ZZ=           -102.9787
   XY=              0.2091   XZ=              0.0120   YZ=              0.0046

 Summary of Natural Population Analysis:

                                       Natural Population
                Natural  -----------------------------------------------
    Atom  No    Charge         Core      Valence    Rydberg      Total
 -----------------------------------------------------------------------
      C    1   -0.28942      0.99960     2.28250    0.00731     3.28942
      C    2    0.13626      0.99954     1.85032    0.01389     2.86374
      C    3   -0.30254      0.99960     2.29648    0.00646     3.30254
      C    4   -0.30252      0.99960     2.29647    0.00646     3.30252
      O    5   -0.28258      0.99984     3.27217    0.01057     4.28258
      C    6    0.47235      0.99970     1.50332    0.02463     2.52765
      O    7   -0.32639      0.99987     3.32116    0.00536     4.32639
      N    8   -0.32315      0.99963     2.81408    0.00943     3.82315
      C    9    0.34956      0.99961     1.63067    0.02016     2.65044
      N   10   -0.25989      0.99968     2.75013    0.01008     3.75989
      C   11   -0.03872      0.99956     2.02599    0.01316     3.03872
      C   12    0.03567      0.99950     1.95103    0.01381     2.96433
      O   13   -0.24584      0.99986     3.23735    0.00862     4.24584
      H   14    0.10309      0.00000     0.39554    0.00137     0.39691
      H   15    0.10596      0.00000     0.39296    0.00108     0.39404
      H   16    0.10600      0.00000     0.39291    0.00109     0.39400
      H   17    0.10604      0.00000     0.39268    0.00128     0.39396
      H   18    0.11266      0.00000     0.38641    0.00093     0.38734
      H   19    0.10291      0.00000     0.39611    0.00098     0.39709
      H   20    0.10290      0.00000     0.39613    0.00098     0.39710
      H   21    0.11266      0.00000     0.38641    0.00093     0.38734
      H   22    0.10604      0.00000     0.39268    0.00128     0.39396
      H   23    0.20989      0.00000     0.28751    0.00260     0.29011
      H   24    0.10356      0.00000     0.39507    0.00136     0.39644
      H   25    0.10548      0.00000     0.38614    0.00837     0.39452
 =======================================================================
   * Total *   -0.00000     12.99559    35.83223    0.17218    49.00000

 Normal termination of Gaussian 16 at Wed Dec  9 22:46:48 2020.
