 Gaussian 16, Revision A.03,

 -----------------------------------------------------------
 # opt freq B3LYP/6-31G(d) empiricaldispersion=gd3bj scf=xqc
 -----------------------------------------------------------

 ------------------------------
 CID_96247173_JID_7646_neutraal
 ------------------------------
 Symbolic Z-matrix:
 Charge =  0 Multiplicity = 1

 SCF Done:  E(RB3LYP) =  -1147.32489239     A.U. after   15 cycles
 SCF Done:  E(RB3LYP) =  -1147.32975131     A.U. after   12 cycles
 SCF Done:  E(RB3LYP) =  -1147.33038528     A.U. after   12 cycles
 SCF Done:  E(RB3LYP) =  -1147.33069500     A.U. after   12 cycles
 SCF Done:  E(RB3LYP) =  -1147.33084862     A.U. after   10 cycles
 SCF Done:  E(RB3LYP) =  -1147.33087136     A.U. after   10 cycles
 SCF Done:  E(RB3LYP) =  -1147.33088010     A.U. after   10 cycles
 SCF Done:  E(RB3LYP) =  -1147.33088285     A.U. after    8 cycles
 SCF Done:  E(RB3LYP) =  -1147.33088438     A.U. after    8 cycles
 SCF Done:  E(RB3LYP) =  -1147.33088478     A.U. after    8 cycles
 SCF Done:  E(RB3LYP) =  -1147.33089848     A.U. after    7 cycles
 SCF Done:  E(RB3LYP) =  -1147.33089852     A.U. after    8 cycles
 SCF Done:  E(RB3LYP) =  -1147.33089853     A.U. after    8 cycles
 SCF Done:  E(RB3LYP) =  -1147.33089854     A.U. after    6 cycles
 SCF Done:  E(RB3LYP) =  -1147.33089854     A.U. after    6 cycles
 Optimization completed.
    -- Stationary point found.
 Normal termination of Gaussian 16 at Fri Dec 11 13:15:05 2020.

 --------------------------------------------------------------------
 #N Geom=AllCheck Guess=TCheck SCRF=Check GenChk RB3LYP/6-31G(d) Freq
 --------------------------------------------------------------------

 Structure from the checkpoint file:  "JID_7646.chk"
 ------------------------------
 CID_96247173_JID_7646_neutraal
 ------------------------------
 Charge =  0 Multiplicity = 1

 SCF Done:  E(RB3LYP) =  -1147.33089854     A.U. after    1 cycles

  Exact polarizability: 199.862 -12.700 122.480   2.031   2.059 147.503
 Approx polarizability: 267.671 -22.630 180.787   8.717   2.908 251.873

                      1                      2                      3
                      A                      A                      A
 Frequencies --     10.0673                32.5426                33.2359
 Red. masses --      1.0344                 4.5248                 3.6013
 Frc consts  --      0.0001                 0.0028                 0.0023
 IR Inten    --      0.2532                 1.5478                 0.3845

                      4                      5                      6
                      A                      A                      A
 Frequencies --     41.0664                49.5213                57.1193
 Red. masses --      3.2615                 4.1591                 3.7680
 Frc consts  --      0.0032                 0.0060                 0.0072
 IR Inten    --      1.5292                 0.3176                 1.5080

                      7                      8                      9
                      A                      A                      A
 Frequencies --    100.9492               134.4005               143.9372
 Red. masses --      2.4647                 4.6228                 3.7447
 Frc consts  --      0.0148                 0.0492                 0.0457
 IR Inten    --      0.8152                 3.4109                 0.8710

                     10                     11                     12
                      A                      A                      A
 Frequencies --    169.2717               179.2472               208.4624
 Red. masses --      2.9862                 2.8830                 3.9413
 Frc consts  --      0.0504                 0.0546                 0.1009
 IR Inten    --      1.2358                 0.9041                 2.4190

                     13                     14                     15
                      A                      A                      A
 Frequencies --    219.2108               255.6672               277.7359
 Red. masses --      2.0915                 2.5222                 3.4318
 Frc consts  --      0.0592                 0.0971                 0.1560
 IR Inten    --      0.6967                 0.1970                 2.9456

                     16                     17                     18
                      A                      A                      A
 Frequencies --    287.1757               330.0908               343.0236
 Red. masses --      2.8575                 2.8496                 3.9449
 Frc consts  --      0.1388                 0.1829                 0.2735
 IR Inten    --      6.8490                 0.2296                 4.6580

                     19                     20                     21
                      A                      A                      A
 Frequencies --    364.5142               408.6454               422.0099
 Red. masses --      2.8718                 1.5364                 2.2189
 Frc consts  --      0.2248                 0.1512                 0.2328
 IR Inten    --      1.0474                44.1317                40.3277

                     22                     23                     24
                      A                      A                      A
 Frequencies --    427.7249               437.5117               465.4970
 Red. masses --      2.2143                 4.3015                 2.7535
 Frc consts  --      0.2387                 0.4851                 0.3515
 IR Inten    --     31.1618                18.2753                 2.5765

                     25                     26                     27
                      A                      A                      A
 Frequencies --    480.4381               512.4489               543.4416
 Red. masses --      4.4259                 4.5804                 3.8438
 Frc consts  --      0.6019                 0.7087                 0.6688
 IR Inten    --     11.6599                 7.5262                31.3115

                     28                     29                     30
                      A                      A                      A
 Frequencies --    559.4042               638.9162               665.6500
 Red. masses --      3.7861                 3.9136                 5.8780
 Frc consts  --      0.6981                 0.9413                 1.5345
 IR Inten    --     41.7687                 4.7081                 3.4769

                     31                     32                     33
                      A                      A                      A
 Frequencies --    698.1530               739.3608               786.4999
 Red. masses --      3.8125                 3.0437                 2.4120
 Frc consts  --      1.0949                 0.9803                 0.8791
 IR Inten    --     66.4956                22.6574                44.1009

                     34                     35                     36
                      A                      A                      A
 Frequencies --    813.9463               830.6085               848.8714
 Red. masses --      1.6680                 2.2513                 1.8966
 Frc consts  --      0.6511                 0.9151                 0.8052
 IR Inten    --     27.0092                 2.8778                15.3488

                     37                     38                     39
                      A                      A                      A
 Frequencies --    853.2672               855.9057               906.5180
 Red. masses --      1.5814                 1.6679                 2.5290
 Frc consts  --      0.6783                 0.7199                 1.2245
 IR Inten    --      7.9935                24.6170                28.3254

                     40                     41                     42
                      A                      A                      A
 Frequencies --    913.9313               953.5457               971.9886
 Red. masses --      1.7293                 1.4277                 1.4964
 Frc consts  --      0.8510                 0.7648                 0.8330
 IR Inten    --      3.0091                10.4212                11.6829

                     43                     44                     45
                      A                      A                      A
 Frequencies --    988.0470              1021.1086              1043.5459
 Red. masses --      1.8269                 1.4211                 2.9830
 Frc consts  --      1.0508                 0.8730                 1.9140
 IR Inten    --     23.4883                 1.3967                10.0099

                     46                     47                     48
                      A                      A                      A
 Frequencies --   1061.0594              1075.0690              1077.7667
 Red. masses --      1.8891                 2.6811                 1.7774
 Frc consts  --      1.2531                 1.8257                 1.2164
 IR Inten    --      4.4894                27.7292                26.5659

                     49                     50                     51
                      A                      A                      A
 Frequencies --   1091.2111              1093.5310              1118.6135
 Red. masses --      2.3368                 1.6950                 1.8036
 Frc consts  --      1.6394                 1.1942                 1.3297
 IR Inten    --     36.7996                37.4671                 3.1490

                     52                     53                     54
                      A                      A                      A
 Frequencies --   1122.8202              1133.7993              1146.2400
 Red. masses --      4.3158                 3.8249                 1.3059
 Frc consts  --      3.2057                 2.8969                 1.0109
 IR Inten    --     93.6621                65.1090                 4.2988

                     55                     56                     57
                      A                      A                      A
 Frequencies --   1211.2367              1233.9180              1239.3645
 Red. masses --      1.1764                 1.3406                 1.2924
 Frc consts  --      1.0169                 1.2026                 1.1697
 IR Inten    --      1.5472                12.6412                10.1200

                     58                     59                     60
                      A                      A                      A
 Frequencies --   1244.5698              1257.1305              1300.4786
 Red. masses --      2.8428                 2.4342                 1.4959
 Frc consts  --      2.5944                 2.2665                 1.4906
 IR Inten    --      3.1356                16.7579                21.7223

                     61                     62                     63
                      A                      A                      A
 Frequencies --   1317.2827              1329.8875              1339.6634
 Red. masses --      2.1788                 1.8912                 1.7097
 Frc consts  --      2.2276                 1.9707                 1.8078
 IR Inten    --     79.7032                68.5910                 2.0142

                     64                     65                     66
                      A                      A                      A
 Frequencies --   1351.2691              1359.8362              1399.3197
 Red. masses --      2.9590                 1.3220                 1.3996
 Frc consts  --      3.1833                 1.4403                 1.6147
 IR Inten    --      2.1905                12.3248                 2.3118

                     67                     68                     69
                      A                      A                      A
 Frequencies --   1405.0225              1417.1042              1440.3842
 Red. masses --      1.3486                 1.2278                 1.2555
 Frc consts  --      1.5685                 1.4527                 1.5346
 IR Inten    --      9.7528                 8.0875                 4.6171

                     70                     71                     72
                      A                      A                      A
 Frequencies --   1443.6073              1448.5858              1455.7642
 Red. masses --      1.2499                 1.2569                 2.6038
 Frc consts  --      1.5347                 1.5539                 3.2512
 IR Inten    --      0.8686                35.0740                 2.2279

                     73                     74                     75
                      A                      A                      A
 Frequencies --   1480.9144              1513.5034              1514.9319
 Red. masses --      1.0902                 1.0861                 1.0442
 Frc consts  --      1.4086                 1.4659                 1.4119
 IR Inten    --      5.5690                 8.7303                 5.4206

                     76                     77                     78
                      A                      A                      A
 Frequencies --   1518.2914              1523.4320              1524.0248
 Red. masses --      1.0734                 1.0910                 1.1037
 Frc consts  --      1.4579                 1.4918                 1.5103
 IR Inten    --      4.2552                 1.1733                 7.1933

                     79                     80                     81
                      A                      A                      A
 Frequencies --   1526.0871              1542.6490              1560.4287
 Red. masses --      1.0491                 1.0551                 2.4788
 Frc consts  --      1.4395                 1.4793                 3.5561
 IR Inten    --      5.8380                 5.9613                57.9549

                     82                     83                     84
                      A                      A                      A
 Frequencies --   1634.2825              1669.9935              3010.9470
 Red. masses --      5.9109                 5.8219                 1.0691
 Frc consts  --      9.3016                 9.5664                 5.7106
 IR Inten    --      2.8120                 0.1688                45.2209

                     85                     86                     87
                      A                      A                      A
 Frequencies --   3048.1596              3051.5490              3054.6128
 Red. masses --      1.0374                 1.0443                 1.0648
 Frc consts  --      5.6792                 5.7296                 5.8535
 IR Inten    --     29.1965                26.0569                28.7532

                     88                     89                     90
                      A                      A                      A
 Frequencies --   3059.5012              3084.2525              3100.0486
 Red. masses --      1.0612                 1.0615                 1.0963
 Frc consts  --      5.8526                 5.9493                 6.2077
 IR Inten    --     13.7113                 5.2817                46.0089

                     91                     92                     93
                      A                      A                      A
 Frequencies --   3101.3870              3101.8543              3114.0262
 Red. masses --      1.0945                 1.1008                 1.1009
 Frc consts  --      6.2027                 6.2400                 6.2899
 IR Inten    --      4.3987                15.9972                30.3967

                     94                     95                     96
                      A                      A                      A
 Frequencies --   3117.7105              3131.3749              3137.8426
 Red. masses --      1.0996                 1.1013                 1.1043
 Frc consts  --      6.2972                 6.3626                 6.4064
 IR Inten    --     27.7789                15.7018                10.0687

                     97                     98                     99
                      A                      A                      A
 Frequencies --   3156.4895              3186.9705              3189.7601
 Red. masses --      1.0990                 1.0890                 1.0889
 Frc consts  --      6.4512                 6.5170                 6.5276
 IR Inten    --     20.9598                14.8798                15.7039

                    100                    101                    102
                      A                      A                      A
 Frequencies --   3214.8546              3217.6031              3739.7363
 Red. masses --      1.0937                 1.0935                 1.0655
 Frc consts  --      6.6597                 6.6703                 8.7801
 IR Inten    --      3.8452                 5.5331                74.0300

 - Thermochemistry -
 -------------------
 Temperature   298.150 Kelvin.  Pressure   1.00000 Atm.
 Atom     1 has atomic number  6 and mass  12.00000

 Molecular mass:   257.10857 amu.
 Principal axes and moments of inertia in atomic units:
                           1         2         3
     Eigenvalues --  2853.344506180.618246694.26287
           X            0.99962  -0.02360  -0.01406
           Y            0.02336   0.99958  -0.01691
           Z            0.01446   0.01658   0.99976
 This molecule is an asymmetric top.
 Rotational symmetry number  1.
 Warning -- assumption of classical behavior for rotation
           may cause significant error
 Rotational temperatures (Kelvin)      0.03036     0.01401     0.01294
 Rotational constants (GHZ):           0.63250     0.29200     0.26960
 Zero-point vibrational energy     795313.2 (Joules/Mol)
                                  190.08441 (Kcal/Mol)
 Warning -- explicit consideration of  28 degrees of freedom as
           vibrations may cause significant error
 Vibrational temperatures:     14.48    46.82    47.82    59.09    71.25
          (Kelvin)             82.18   145.24   193.37   207.09   243.54
                              257.90   299.93   315.40   367.85   399.60
                              413.18   474.93   493.53   524.45   587.95
                              607.18   615.40   629.48   669.75   691.24
                              737.30   781.89   804.86   919.26   957.72
                             1004.49  1063.78  1131.60  1171.09  1195.06
                             1221.34  1227.66  1231.46  1304.28  1314.94
                             1371.94  1398.47  1421.58  1469.15  1501.43
                             1526.63  1546.78  1550.67  1570.01  1573.35
                             1609.44  1615.49  1631.28  1649.18  1742.70
                             1775.33  1783.17  1790.66  1808.73  1871.10
                             1895.28  1913.41  1927.48  1944.17  1956.50
                             2013.31  2021.51  2038.90  2072.39  2077.03
                             2084.19  2094.52  2130.71  2177.59  2179.65
                             2184.48  2191.88  2192.73  2195.70  2219.53
                             2245.11  2351.37  2402.75  4332.08  4385.62
                             4390.50  4394.91  4401.94  4437.55  4460.28
                             4462.20  4462.88  4480.39  4485.69  4505.35
                             4514.66  4541.48  4585.34  4589.35  4625.46
                             4629.41  5380.65

 Zero-point correction=                           0.302919 (Hartree/Particle)
 Thermal correction to Energy=                    0.321596
 Thermal correction to Enthalpy=                  0.322540
 Thermal correction to Gibbs Free Energy=         0.252855
 Sum of electronic and zero-point Energies=          -1147.027980
 Sum of electronic and thermal Energies=             -1147.009303
 Sum of electronic and thermal Enthalpies=           -1147.008358
 Sum of electronic and thermal Free Energies=        -1147.078044

                     E (Thermal)             CV                S
                      KCal/Mol        Cal/Mol-Kelvin    Cal/Mol-Kelvin
 Total                  201.805             68.248            146.665
 Electronic               0.000              0.000              0.000
 Translational            0.889              2.981             42.533
 Rotational               0.889              2.981             33.134
 Vibrational            200.027             62.286             70.998
 Vibration     1          0.593              1.987              7.998
 Vibration     2          0.594              1.983              5.668
 Vibration     3          0.594              1.983              5.626
 Vibration     4          0.594              1.981              5.207
 Vibration     5          0.595              1.978              4.836
 Vibration     6          0.596              1.975              4.554
 Vibration     7          0.604              1.948              3.436
 Vibration     8          0.613              1.919              2.882
 Vibration     9          0.616              1.909              2.751
 Vibration    10          0.625              1.880              2.444
 Vibration    11          0.629              1.868              2.336
 Vibration    12          0.642              1.828              2.057
 Vibration    13          0.647              1.812              1.966
 Vibration    14          0.666              1.753              1.691
 Vibration    15          0.679              1.715              1.548
 Vibration    16          0.684              1.698              1.491
 Vibration    17          0.713              1.615              1.260
 Vibration    18          0.722              1.589              1.198
 Vibration    19          0.738              1.545              1.103
 Vibration    20          0.773              1.451              0.931
 Vibration    21          0.784              1.422              0.885
 Vibration    22          0.789              1.410              0.866
 Vibration    23          0.798              1.388              0.834
 Vibration    24          0.823              1.327              0.750
 Vibration    25          0.837              1.293              0.709
 Vibration    26          0.868              1.222              0.628
 Vibration    27          0.899              1.154              0.558
 Vibration    28          0.915              1.119              0.525

 Optimization completed on the basis of negligible forces.
    -- Stationary point found.
 Normal termination of Gaussian 16 at Fri Dec 11 13:28:53 2020.

 ----------------------------------------------------------------------
 # B3LYP/6-311++G(d,p) empiricaldispersion=gd3bj scf=xqc pop=npa geom=c
 heck
 ----------------------------------------------------------------------

 --------------------------------------
 CID_96247173_JID_7646_Energie_neutraal
 --------------------------------------
 Structure from the checkpoint file:  "JID_7646.chk"
 Charge =  0 Multiplicity = 1

 SCF Done:  E(RB3LYP) =  -1147.57662515     A.U. after   16 cycles
 Normal termination of Gaussian 16 at Fri Dec 11 13:35:28 2020.

 ----------------------------------------------------------------------
 # B3LYP/6-311++G(d,p) empiricaldispersion=gd3bj scf=xqc pop=npa geom=c
 heck
 ----------------------------------------------------------------------

 ------------------------------------
 CID_96247173_JID_7646_Energie_kation
 ------------------------------------
 Structure from the checkpoint file:  "JID_7646.chk"
 Charge =  1 Multiplicity = 2

 SCF Done:  E(UB3LYP) =  -1147.26088619     A.U. after   31 cycles
 Normal termination of Gaussian 16 at Fri Dec 11 13:52:26 2020.
 Gaussian 16:  ES64L-G16RevA.03 25-Dec-2016

 ----------------------------------------------------------------------
 # B3LYP/6-311++G(d,p) empiricaldispersion=gd3bj scf=xqc pop=npa geom=c
 heck
 ----------------------------------------------------------------------

 -----------------------------------
 CID_96247173_JID_7646_Energie_anion
 -----------------------------------
 Structure from the checkpoint file:  "JID_7646.chk"
 Charge = -1 Multiplicity = 2

                         Standard orientation:
 ---------------------------------------------------------------------
 Center     Atomic      Atomic             Coordinates (Angstroms)
 Number     Number       Type             X           Y           Z
 ---------------------------------------------------------------------
      1          6           0       -2.770735    0.646039    2.248800
      2          6           0       -3.262533   -0.625626    1.553760
      3          6           0       -3.208202   -0.577781    0.024960
      4         16           0       -1.591048   -0.972212   -0.702958
      5          8           0       -1.040980   -2.136689   -0.005135
      6          8           0       -1.772220   -0.989833   -2.162476
      7          7           0       -0.613280    0.366675   -0.249579
      8          6           0       -0.847143    1.586925   -1.052583
      9          6           0       -0.305969    2.835178   -0.351599
     10          8           0        1.099520    2.985370   -0.429015
     11          6           0        0.771656    0.006325   -0.050679
     12          6           0        1.595878   -0.344519   -1.126221
     13          6           0        2.933744   -0.647908   -0.902617
     14          6           0        3.481851   -0.606156    0.388491
     15          6           0        2.643089   -0.261717    1.453286
     16          6           0        1.295632    0.036084    1.241027
     17          6           0        4.939112   -0.925952    0.612046
     18          1           0       -1.722585    0.842772    2.013877
     19          1           0       -2.873112    0.554330    3.335167
     20          1           0       -3.355546    1.518321    1.931101
     21          1           0       -2.694472   -1.497585    1.895198
     22          1           0       -4.308690   -0.808767    1.828998
     23          1           0       -3.845472   -1.345808   -0.425320
     24          1           0       -3.522284    0.388527   -0.380444
     25          1           0       -0.407829    1.502966   -2.054084
     26          1           0       -1.928564    1.700196   -1.175550
     27          1           0       -0.723924    3.712784   -0.855849
     28          1           0       -0.664564    2.844927    0.689580
     29          1           0        1.501956    2.259683    0.073508
     30          1           0        1.179550   -0.384184   -2.127865
     31          1           0        3.566807   -0.922397   -1.742576
     32          1           0        3.044825   -0.231652    2.462552
     33          1           0        0.643419    0.290420    2.070028
     34          1           0        5.586987   -0.211963    0.089046
     35          1           0        5.196666   -0.895759    1.674800
     36          1           0        5.187723   -1.924286    0.233196
 ---------------------------------------------------------------------

 SCF Done:  E(UB3LYP) =  -1147.56929224     A.U. after   33 cycles
 SCF Done:  E(UB3LYP) =  -1147.56929224     a.u. after    1 cycles

 The electronic state is 2-A.
 Alpha  occ. eigenvalues --  -88.94652 -19.02371 -19.00962 -19.00932 -14.24010
 Alpha  occ. eigenvalues --  -10.12340 -10.10901 -10.10497 -10.09877 -10.08145
 Alpha  occ. eigenvalues --  -10.07877 -10.07690 -10.07540 -10.07426 -10.07224
 Alpha  occ. eigenvalues --  -10.07116 -10.05908  -8.00983  -5.97251  -5.97216
 Alpha  occ. eigenvalues --   -5.97036  -1.00890  -0.92820  -0.90026  -0.83751
 Alpha  occ. eigenvalues --   -0.75555  -0.70949  -0.67820  -0.64973  -0.64695
 Alpha  occ. eigenvalues --   -0.62339  -0.58886  -0.54405  -0.52524  -0.51554
 Alpha  occ. eigenvalues --   -0.49648  -0.46598  -0.43012  -0.42102  -0.40583
 Alpha  occ. eigenvalues --   -0.39235  -0.37495  -0.36983  -0.36140  -0.35426
 Alpha  occ. eigenvalues --   -0.34490  -0.33630  -0.33470  -0.33236  -0.32560
 Alpha  occ. eigenvalues --   -0.31762  -0.31450  -0.30508  -0.29487  -0.26929
 Alpha  occ. eigenvalues --   -0.26578  -0.26088  -0.25619  -0.24969  -0.24885
 Alpha  occ. eigenvalues --   -0.24626  -0.23343  -0.21753  -0.20575  -0.19673
 Alpha  occ. eigenvalues --   -0.18316  -0.16044  -0.15853  -0.14541   0.04328
 Alpha virt. eigenvalues --    0.06315   0.06426   0.07487   0.07890   0.08025
 Alpha virt. eigenvalues --    0.08783   0.09100   0.09994   0.10272   0.10536
 Alpha virt. eigenvalues --    0.10837   0.11476   0.11899   0.12348   0.13192

  Beta  occ. eigenvalues --  -88.94624 -19.02369 -19.00953 -19.00922 -14.24003
  Beta  occ. eigenvalues --  -10.12326 -10.10882 -10.10447 -10.09700 -10.08161
  Beta  occ. eigenvalues --  -10.07854 -10.07587 -10.07466 -10.07424 -10.07204
  Beta  occ. eigenvalues --  -10.07037 -10.05879  -8.00950  -5.97198  -5.97194
  Beta  occ. eigenvalues --   -5.97015  -1.00836  -0.92813  -0.89997  -0.83605
  Beta  occ. eigenvalues --   -0.75362  -0.70875  -0.67599  -0.64847  -0.64618
  Beta  occ. eigenvalues --   -0.62245  -0.58769  -0.54319  -0.52414  -0.51492
  Beta  occ. eigenvalues --   -0.49439  -0.46469  -0.42945  -0.42068  -0.40527
  Beta  occ. eigenvalues --   -0.39173  -0.37400  -0.36877  -0.36075  -0.35343
  Beta  occ. eigenvalues --   -0.34443  -0.33583  -0.33289  -0.33113  -0.32524
  Beta  occ. eigenvalues --   -0.31708  -0.31406  -0.30439  -0.29415  -0.26816
  Beta  occ. eigenvalues --   -0.26404  -0.25938  -0.25546  -0.24911  -0.24827
  Beta  occ. eigenvalues --   -0.24543  -0.23250  -0.21729  -0.20548  -0.19624
  Beta  occ. eigenvalues --   -0.18278  -0.15844  -0.15530  -0.13781
  Beta virt. eigenvalues --    0.06318   0.07092   0.07705   0.07985   0.08184
  Beta virt. eigenvalues --    0.08364   0.08909   0.09267   0.10369   0.10538
  Beta virt. eigenvalues --    0.10685   0.11200   0.11623   0.12016   0.12467

 Mulliken charges and spin densities:
               1          2
     1  C    0.719115  -1.251186
     2  C   -0.757898   0.650249
     3  C    0.041256  -0.655698
     4  S    1.006664  -0.554865
     5  O   -0.107544   0.004549
     6  O   -0.085247   0.035341
     7  N    0.642377  -0.020729
     8  C   -0.002540  -0.010973
     9  C   -0.131369  -0.431321
    10  O   -0.239401   0.007438
    11  C   -1.793424   0.371256
    12  C    0.140789   0.019474
    13  C   -0.299753  -0.060678
    14  C    0.339320   0.110898
    15  C   -0.520165  -0.183035
    16  C    0.398910   0.076361
    17  C   -0.536845  -0.132647
    18  H    0.340870  -0.240442
    19  H   -0.118041   0.257687
    20  H   -0.309207   0.462219
    21  H    0.087477   0.099457
    22  H   -0.487503   0.658450
    23  H   -0.055269   0.300199
    24  H   -0.429200   0.657403
    25  H    0.237184  -0.020221
    26  H   -0.061550   0.215175
    27  H   -0.217640   0.399822
    28  H    0.142777   0.017676
    29  H    0.303048  -0.005396
    30  H    0.123386   0.019243
    31  H    0.163267  -0.003364
    32  H    0.118711   0.044638
    33  H   -0.000920   0.085960
    34  H    0.150217   0.004728
    35  H    0.116225   0.004057
    36  H    0.081924   0.068272
 Sum of Mulliken charges =  -1.00000   1.00000

 Dipole moment (field-independent basis, Debye):
    X=              7.1446    Y=             -0.4299    Z=              0.4279  Tot=              7.1703
 Quadrupole moment (field-independent basis, Debye-Ang):
   XX=           -178.3615   YY=           -155.2423   ZZ=           -139.3796
   XY=              2.7492   XZ=              4.4845   YZ=             -0.0044

 Summary of Natural Population Analysis:

                                       Natural Population
                Natural  -----------------------------------------------
    Atom  No    Charge         Core      Valence    Rydberg      Total
 -----------------------------------------------------------------------
      C    1   -0.28769      0.99965     2.28188    0.00616     3.28769
      C    2   -0.20235      0.99963     2.19265    0.01007     3.20235
      C    3   -0.28350      0.99957     2.27129    0.01265     3.28350
      S    4    1.09812      4.99923     1.80352    0.09913     6.90188
      O    5   -0.45940      0.99990     3.45421    0.00528     4.45940
      O    6   -0.46878      0.99991     3.46385    0.00502     4.46878
      N    7   -0.37711      0.99969     2.86055    0.01686     3.87711
      C    8   -0.09777      0.99959     2.08648    0.01171     3.09777
      C    9   -0.01613      0.99959     2.00284    0.01370     3.01613
      O   10   -0.37126      0.99990     3.36548    0.00588     4.37126
      C   11    0.07295      0.99946     1.90864    0.01894     2.92705
      C   12   -0.09589      0.99946     2.08696    0.00947     3.09589
      C   13   -0.09601      0.99947     2.08691    0.00963     3.09601
      C   14    0.01808      0.99942     1.97355    0.00895     2.98192
      C   15   -0.11503      0.99948     2.10394    0.01161     3.11503
      C   16   -0.07669      0.99950     2.06849    0.00869     3.07669
      C   17   -0.28984      0.99960     2.28585    0.00439     3.28984
      H   18    0.10232      0.00000     0.39575    0.00193     0.39768
      H   19    0.09752      0.00000     0.40158    0.00090     0.40248
      H   20    0.09833      0.00000     0.39973    0.00194     0.40167
      H   21    0.10679      0.00000     0.39179    0.00142     0.39321
      H   22    0.10254      0.00000     0.39580    0.00167     0.39746
      H   23    0.11896      0.00000     0.37966    0.00138     0.38104
      H   24    0.11518      0.00000     0.38258    0.00224     0.38482
      H   25    0.09604      0.00000     0.40273    0.00123     0.40396
      H   26    0.10525      0.00000     0.39303    0.00171     0.39475
      H   27    0.08882      0.00000     0.41004    0.00114     0.41118
      H   28    0.08006      0.00000     0.41849    0.00144     0.41994
      H   29    0.23765      0.00000     0.25967    0.00268     0.26235
      H   30    0.10662      0.00000     0.39233    0.00105     0.39338
      H   31    0.09454      0.00000     0.40402    0.00144     0.40546
      H   32    0.09612      0.00000     0.40293    0.00095     0.40388
      H   33    0.10146      0.00000     0.39606    0.00248     0.39854
      H   34    0.10129      0.00000     0.39773    0.00098     0.39871
      H   35    0.09749      0.00000     0.40138    0.00113     0.40251
      H   36    0.10151      0.00000     0.39660    0.00189     0.39849
 =======================================================================
   * Total *    0.00019     20.99306    47.71900    0.28776    68.99981

 Normal termination of Gaussian 16 at Fri Dec 11 14:11:03 2020.
