 Gaussian 16, Revision A.03,

 -----------------------------------------------------------
 # opt freq B3LYP/6-31G(d) empiricaldispersion=gd3bj scf=xqc
 -----------------------------------------------------------

 ------------------------------
 CID_84325500_JID_6558_neutraal
 ------------------------------
 Symbolic Z-matrix:
 Charge =  0 Multiplicity = 1

 SCF Done:  E(RB3LYP) =  -1110.42909064     A.U. after   15 cycles
 SCF Done:  E(RB3LYP) =  -1110.43550557     A.U. after   13 cycles
 SCF Done:  E(RB3LYP) =  -1110.43606406     A.U. after   13 cycles
 SCF Done:  E(RB3LYP) =  -1110.43735837     A.U. after   12 cycles
 SCF Done:  E(RB3LYP) =  -1110.43767088     A.U. after   12 cycles
 SCF Done:  E(RB3LYP) =  -1110.43776417     A.U. after   11 cycles
 SCF Done:  E(RB3LYP) =  -1110.43779198     A.U. after   11 cycles
 SCF Done:  E(RB3LYP) =  -1110.43779996     A.U. after    9 cycles
 SCF Done:  E(RB3LYP) =  -1110.43780457     A.U. after   10 cycles
 SCF Done:  E(RB3LYP) =  -1110.43780948     A.U. after    9 cycles
 SCF Done:  E(RB3LYP) =  -1110.43909146     A.U. after   11 cycles
 SCF Done:  E(RB3LYP) =  -1110.43911590     A.U. after   10 cycles
 SCF Done:  E(RB3LYP) =  -1110.43911771     A.U. after    8 cycles
 SCF Done:  E(RB3LYP) =  -1110.43911799     A.U. after    8 cycles
 SCF Done:  E(RB3LYP) =  -1110.43911802     A.U. after    6 cycles
 Optimization completed.
    -- Stationary point found.
 Normal termination of Gaussian 16 at Thu Dec 10 23:58:06 2020.

 --------------------------------------------------------------------
 #N Geom=AllCheck Guess=TCheck SCRF=Check GenChk RB3LYP/6-31G(d) Freq
 --------------------------------------------------------------------

 Structure from the checkpoint file:  "JID_6558.chk"
 ------------------------------
 CID_84325500_JID_6558_neutraal
 ------------------------------
 Charge =  0 Multiplicity = 1

 SCF Done:  E(RB3LYP) =  -1110.43911802     A.U. after    2 cycles

  Exact polarizability: 186.666  -7.123 137.700   1.981  -1.187 117.820
 Approx polarizability: 227.519 -10.298 221.481   1.632  -6.885 191.210

                      1                      2                      3
                      A                      A                      A
 Frequencies --     29.8335                32.9397                44.3173
 Red. masses --      4.7158                 4.2817                 3.1562
 Frc consts  --      0.0025                 0.0027                 0.0037
 IR Inten    --      0.5795                 0.2956                 0.3035

                      4                      5                      6
                      A                      A                      A
 Frequencies --     63.2942                67.4731                84.1955
 Red. masses --      5.0200                 3.3931                 4.8588
 Frc consts  --      0.0118                 0.0091                 0.0203
 IR Inten    --      2.2797                 0.6771                 3.0556

                      7                      8                      9
                      A                      A                      A
 Frequencies --     98.2061               106.3514               132.0912
 Red. masses --      3.4787                 3.0673                 2.8090
 Frc consts  --      0.0198                 0.0204                 0.0289
 IR Inten    --      3.6208                 1.2097                 3.3629

                     10                     11                     12
                      A                      A                      A
 Frequencies --    161.4029               173.1162               199.1573
 Red. masses --      4.5258                 3.7014                 3.1136
 Frc consts  --      0.0695                 0.0654                 0.0728
 IR Inten    --      1.1395                 2.8237                 2.1760

                     13                     14                     15
                      A                      A                      A
 Frequencies --    220.0334               239.1519               272.1118
 Red. masses --      1.6316                 2.6947                 4.9628
 Frc consts  --      0.0465                 0.0908                 0.2165
 IR Inten    --      0.6180                 1.2398                 4.5424

                     16                     17                     18
                      A                      A                      A
 Frequencies --    295.4459               311.8610               343.7368
 Red. masses --      1.7396                 2.7150                 3.3686
 Frc consts  --      0.0895                 0.1556                 0.2345
 IR Inten    --      0.1903                 0.5549                 2.7121

                     19                     20                     21
                      A                      A                      A
 Frequencies --    364.7079               388.5267               411.7921
 Red. masses --      2.5239                 1.9906                 3.0696
 Frc consts  --      0.1978                 0.1770                 0.3067
 IR Inten    --      9.3272                 1.5038                14.5161

                     22                     23                     24
                      A                      A                      A
 Frequencies --    435.9590               450.4723               468.6476
 Red. masses --      2.1623                 2.1447                 3.5328
 Frc consts  --      0.2421                 0.2564                 0.4572
 IR Inten    --      0.5198                13.1213                11.1333

                     25                     26                     27
                      A                      A                      A
 Frequencies --    497.8748               526.0424               563.0086
 Red. masses --      2.6192                 2.5929                 2.9569
 Frc consts  --      0.3825                 0.4227                 0.5522
 IR Inten    --      2.8633                32.5986                51.8174

                     28                     29                     30
                      A                      A                      A
 Frequencies --    601.6163               623.9394               665.5255
 Red. masses --      2.2737                 2.9454                 1.9006
 Frc consts  --      0.4849                 0.6756                 0.4960
 IR Inten    --     53.9838                18.0202                38.9092

                     31                     32                     33
                      A                      A                      A
 Frequencies --    718.4802               750.9074               762.2727
 Red. masses --      1.3274                 2.0712                 1.9211
 Frc consts  --      0.4037                 0.6881                 0.6577
 IR Inten    --     17.8880                11.8354                 5.3876

                     34                     35                     36
                      A                      A                      A
 Frequencies --    802.1589               832.6274               841.4923
 Red. masses --      3.1011                 1.8098                 2.6433
 Frc consts  --      1.1757                 0.7393                 1.1028
 IR Inten    --     13.7852                 1.1766                11.2081

                     37                     38                     39
                      A                      A                      A
 Frequencies --    873.6231               905.8281               911.1700
 Red. masses --      2.7336                 1.7234                 1.7015
 Frc consts  --      1.2292                 0.8331                 0.8323
 IR Inten    --      3.9383                31.8300                 2.7862

                     40                     41                     42
                      A                      A                      A
 Frequencies --    931.5317               959.4041               966.9652
 Red. masses --      1.8519                 1.9249                 2.2172
 Frc consts  --      0.9468                 1.0439                 1.2215
 IR Inten    --      4.4853                 2.5031                 0.5883

                     43                     44                     45
                      A                      A                      A
 Frequencies --    976.8351               981.9752              1033.9805
 Red. masses --      1.3802                 1.6624                 1.5558
 Frc consts  --      0.7760                 0.9444                 0.9800
 IR Inten    --     43.0337                 8.9208                 2.8580

                     46                     47                     48
                      A                      A                      A
 Frequencies --   1037.1536              1053.2429              1083.3269
 Red. masses --      1.0855                 1.5611                 1.7710
 Frc consts  --      0.6880                 1.0203                 1.2246
 IR Inten    --     26.4035                 0.8844                20.7833

                     49                     50                     51
                      A                      A                      A
 Frequencies --   1093.8432              1109.9372              1128.2470
 Red. masses --      3.1882                 1.6403                 2.1423
 Frc consts  --      2.2475                 1.1906                 1.6067
 IR Inten    --     79.0880                29.1697                20.3015

                     52                     53                     54
                      A                      A                      A
 Frequencies --   1148.9569              1173.9706              1179.9319
 Red. masses --      2.0806                 2.3463                 1.3995
 Frc consts  --      1.6182                 1.9053                 1.1480
 IR Inten    --      4.3983                 4.5176                69.1979

                     55                     56                     57
                      A                      A                      A
 Frequencies --   1223.7844              1248.4334              1251.7459
 Red. masses --      1.2771                 1.3872                 1.4683
 Frc consts  --      1.1269                 1.2738                 1.3555
 IR Inten    --      5.2262                 1.0781                23.0762

                     58                     59                     60
                      A                      A                      A
 Frequencies --   1258.8169              1286.1389              1298.0002
 Red. masses --      1.6117                 1.4585                 1.2525
 Frc consts  --      1.5048                 1.4214                 1.2433
 IR Inten    --     45.4524                30.7594                 4.7912

                     61                     62                     63
                      A                      A                      A
 Frequencies --   1319.1014              1323.2643              1346.7243
 Red. masses --      1.2468                 2.4044                 1.3814
 Frc consts  --      1.2782                 2.4805                 1.4761
 IR Inten    --     12.3399                96.0114                25.5354

                     64                     65                     66
                      A                      A                      A
 Frequencies --   1349.7353              1375.5436              1393.0667
 Red. masses --      1.1030                 1.4553                 1.4809
 Frc consts  --      1.1839                 1.6223                 1.6932
 IR Inten    --      0.9516               100.1058                 1.6283

                     67                     68                     69
                      A                      A                      A
 Frequencies --   1396.8252              1420.4267              1423.6700
 Red. masses --      1.4680                 1.4689                 1.4316
 Frc consts  --      1.6876                 1.7462                 1.7095
 IR Inten    --     40.8594                18.0885                 4.9895

                     70                     71                     72
                      A                      A                      A
 Frequencies --   1439.6022              1444.7385              1455.5501
 Red. masses --      1.4413                 1.2692                 1.1228
 Frc consts  --      1.7599                 1.5608                 1.4016
 IR Inten    --     39.8186                 4.9318                 9.3694

                     73                     74                     75
                      A                      A                      A
 Frequencies --   1481.1809              1487.7779              1498.5151
 Red. masses --      1.1961                 1.1656                 1.7966
 Frc consts  --      1.5460                 1.5202                 2.3769
 IR Inten    --      8.5768                18.6719               103.2141

                     76                     77                     78
                      A                      A                      A
 Frequencies --   1508.7131              1518.2195              1526.5786
 Red. masses --      1.0847                 1.1044                 1.0963
 Frc consts  --      1.4547                 1.4999                 1.5052
 IR Inten    --      2.2714                 2.9421                10.0942

                     79                     80                     81
                      A                      A                      A
 Frequencies --   1528.5271              1533.4520              1540.5482
 Red. masses --      1.0653                 1.0758                 1.1126
 Frc consts  --      1.4665                 1.4905                 1.5557
 IR Inten    --      7.2866                 0.9761                23.4065

                     82                     83                     84
                      A                      A                      A
 Frequencies --   1543.4120              1720.6962              1763.1605
 Red. masses --      1.0744                 4.2831                 7.3257
 Frc consts  --      1.5079                 7.4717                13.4178
 IR Inten    --      3.1275                 9.3756               403.1237

                     85                     86                     87
                      A                      A                      A
 Frequencies --   3014.6153              3032.5223              3046.9402
 Red. masses --      1.0658                 1.0647                 1.0377
 Frc consts  --      5.7070                 5.7687                 5.6759
 IR Inten    --     39.2588                24.5233                22.9292

                     88                     89                     90
                      A                      A                      A
 Frequencies --   3051.2461              3051.5072              3063.1256
 Red. masses --      1.0787                 1.0770                 1.0829
 Frc consts  --      5.9173                 5.9086                 5.9864
 IR Inten    --     15.9614                14.8226                28.8528

                     91                     92                     93
                      A                      A                      A
 Frequencies --   3071.2808              3074.0205              3089.6561
 Red. masses --      1.0821                 1.0631                 1.0630
 Frc consts  --      6.0141                 5.9190                 5.9788
 IR Inten    --     58.9546                40.9936                 3.3328

                     94                     95                     96
                      A                      A                      A
 Frequencies --   3097.6864              3106.2195              3111.7391
 Red. masses --      1.1011                 1.1016                 1.1017
 Frc consts  --      6.2252                 6.2623                 6.2853
 IR Inten    --     49.7814                 5.5371                44.5333

                     97                     98                     99
                      A                      A                      A
 Frequencies --   3119.1525              3121.1800              3124.5059
 Red. masses --      1.1016                 1.0658                 1.0909
 Frc consts  --      6.3148                 6.1173                 6.2750
 IR Inten    --     57.7525                 8.2771                21.5561

                    100                    101                    102
                      A                      A                      A
 Frequencies --   3166.8113              3172.5878              3184.6289
 Red. masses --      1.0624                 1.0972                 1.1069
 Frc consts  --      6.2773                 6.5066                 6.6144
 IR Inten    --      3.5047                 6.3724                 1.2290

                    103                    104                    105
                      A                      A                      A
 Frequencies --   3194.4306              3255.8014              3592.6183
 Red. masses --      1.0939                 1.1172                 1.0757
 Frc consts  --      6.5768                 6.9774                 8.1805
 IR Inten    --      5.5895                 7.9965                27.2841

 - Thermochemistry -
 -------------------
 Temperature   298.150 Kelvin.  Pressure   1.00000 Atm.
 Atom     1 has atomic number  6 and mass  12.00000

 Molecular mass:   247.12422 amu.
 Principal axes and moments of inertia in atomic units:
                           1         2         3
     Eigenvalues --  1770.102638350.377139130.82847
           X            0.99995  -0.01028  -0.00029
           Y            0.01028   0.99980   0.01723
           Z            0.00011  -0.01724   0.99985
 This molecule is an asymmetric top.
 Rotational symmetry number  1.
 Warning -- assumption of classical behavior for rotation
           may cause significant error
 Rotational temperatures (Kelvin)      0.04893     0.01037     0.00949
 Rotational constants (GHZ):           1.01957     0.21613     0.19765
 Zero-point vibrational energy     842044.9 (Joules/Mol)
                                  201.25357 (Kcal/Mol)
 Warning -- explicit consideration of  28 degrees of freedom as
           vibrations may cause significant error
 Vibrational temperatures:     42.92    47.39    63.76    91.07    97.08
          (Kelvin)            121.14   141.30   153.02   190.05   232.22
                              249.08   286.54   316.58   344.09   391.51
                              425.08   448.70   494.56   524.73   559.00
                              592.48   627.25   648.13   674.28   716.33
                              756.86   810.04   865.59   897.71   957.54
                             1033.73  1080.39  1096.74  1154.13  1197.97
                             1210.72  1256.95  1303.28  1310.97  1340.27
                             1380.37  1391.25  1405.45  1412.84  1487.67
                             1492.23  1515.38  1558.67  1573.80  1596.95
                             1623.30  1653.09  1689.08  1697.66  1760.75
                             1796.22  1800.98  1811.16  1850.47  1867.53
                             1897.89  1903.88  1937.64  1941.97  1979.10
                             2004.31  2009.72  2043.68  2048.34  2071.27
                             2078.66  2094.21  2131.09  2140.58  2156.03
                             2170.70  2184.38  2196.41  2199.21  2206.30
                             2216.51  2220.63  2475.70  2536.79  4337.36
                             4363.12  4383.87  4390.06  4390.44  4407.15
                             4418.89  4422.83  4445.33  4456.88  4469.16
                             4477.10  4487.76  4490.68  4495.47  4556.34
                             4564.65  4581.97  4596.07  4684.37  5168.98

 Zero-point correction=                           0.320718 (Hartree/Particle)
 Thermal correction to Energy=                    0.339283
 Thermal correction to Enthalpy=                  0.340227
 Thermal correction to Gibbs Free Energy=         0.272469
 Sum of electronic and zero-point Energies=          -1110.118400
 Sum of electronic and thermal Energies=             -1110.099835
 Sum of electronic and thermal Enthalpies=           -1110.098891
 Sum of electronic and thermal Free Energies=        -1110.166649

                     E (Thermal)             CV                S
                      KCal/Mol        Cal/Mol-Kelvin    Cal/Mol-Kelvin
 Total                  212.903             68.079            142.608
 Electronic               0.000              0.000              0.000
 Translational            0.889              2.981             42.415
 Rotational               0.889              2.981             33.267
 Vibrational            211.126             62.117             66.926
 Vibration     1          0.594              1.984              5.840
 Vibration     2          0.594              1.983              5.644
 Vibration     3          0.595              1.980              5.056
 Vibration     4          0.597              1.972              4.352
 Vibration     5          0.598              1.970              4.226
 Vibration     6          0.601              1.960              3.791
 Vibration     7          0.604              1.950              3.490
 Vibration     8          0.605              1.944              3.334
 Vibration     9          0.612              1.921              2.915
 Vibration    10          0.622              1.890              2.533
 Vibration    11          0.627              1.876              2.401
 Vibration    12          0.637              1.841              2.141
 Vibration    13          0.647              1.811              1.959
 Vibration    14          0.657              1.781              1.809
 Vibration    15          0.675              1.725              1.583
 Vibration    16          0.690              1.682              1.443
 Vibration    17          0.700              1.651              1.352
 Vibration    18          0.722              1.588              1.195
 Vibration    19          0.738              1.545              1.102
 Vibration    20          0.757              1.495              1.006
 Vibration    21          0.776              1.445              0.920
 Vibration    22          0.796              1.392              0.839
 Vibration    23          0.809              1.360              0.794
 Vibration    24          0.826              1.320              0.741
 Vibration    25          0.853              1.255              0.663
 Vibration    26          0.881              1.192              0.596
 Vibration    27          0.919              1.111              0.518
 Vibration    28          0.960              1.028              0.447

 Optimization completed.
    -- Stationary point found.
 Normal termination of Gaussian 16 at Fri Dec 11 00:10:28 2020.

 ----------------------------------------------------------------------
 # B3LYP/6-311++G(d,p) empiricaldispersion=gd3bj scf=xqc pop=npa geom=c
 heck
 ----------------------------------------------------------------------

 --------------------------------------
 CID_84325500_JID_6558_Energie_neutraal
 --------------------------------------
 Structure from the checkpoint file:  "JID_6558.chk"
 Charge =  0 Multiplicity = 1

 SCF Done:  E(RB3LYP) =  -1110.67756477     A.U. after   15 cycles
 Normal termination of Gaussian 16 at Fri Dec 11 00:17:27 2020.

 ----------------------------------------------------------------------
 # B3LYP/6-311++G(d,p) empiricaldispersion=gd3bj scf=xqc pop=npa geom=c
 heck
 ----------------------------------------------------------------------

 ------------------------------------
 CID_84325500_JID_6558_Energie_kation
 ------------------------------------
 Structure from the checkpoint file:  "JID_6558.chk"
 Charge =  1 Multiplicity = 2

 SCF Done:  E(UB3LYP) =  -1110.34170763     A.U. after   25 cycles
 Normal termination of Gaussian 16 at Fri Dec 11 00:33:33 2020.
 Gaussian 16:  ES64L-G16RevA.03 25-Dec-2016

 ----------------------------------------------------------------------
 # B3LYP/6-311++G(d,p) empiricaldispersion=gd3bj scf=xqc pop=npa geom=c
 heck
 ----------------------------------------------------------------------

 -----------------------------------
 CID_84325500_JID_6558_Energie_anion
 -----------------------------------
 Structure from the checkpoint file:  "JID_6558.chk"
 Charge = -1 Multiplicity = 2

                         Standard orientation:
 ---------------------------------------------------------------------
 Center     Atomic      Atomic             Coordinates (Angstroms)
 Number     Number       Type             X           Y           Z
 ---------------------------------------------------------------------
      1          6           0        5.607428   -1.009075   -0.178452
      2          6           0        4.963311    0.369886   -0.008451
      3          6           0        3.737846    0.596707   -0.907146
      4          6           0        2.579970   -0.391890   -0.698924
      5          6           0        2.030997   -0.468649    0.731244
      6          6           0        1.561634    0.879657    1.295568
      7          7           0        0.634305    1.609641    0.430073
      8          6           0       -0.682772    1.385516    0.195990
      9          8           0       -1.304942    2.007332   -0.665515
     10          6           0       -1.391040    0.343121    1.044455
     11         16           0       -1.887427   -1.109277    0.047094
     12          8           0       -0.728170   -1.524199   -0.763064
     13          8           0       -2.520318   -2.054712    0.980238
     14          6           0       -3.157467   -0.447701   -1.087985
     15          6           0       -4.370934    0.025798   -0.353121
     16          6           0       -4.632069    1.319361   -0.151839
     17          1           0        4.928364   -1.813907    0.123469
     18          1           0        6.515495   -1.098221    0.427903
     19          1           0        5.884775   -1.186227   -1.224833
     20          1           0        4.685932    0.512884    1.045020
     21          1           0        5.707282    1.146094   -0.230242
     22          1           0        3.380038    1.626565   -0.759627
     23          1           0        4.053760    0.543617   -1.957864
     24          1           0        1.755770   -0.132743   -1.373190
     25          1           0        2.896435   -1.398258   -0.996227
     26          1           0        1.196658   -1.176384    0.732826
     27          1           0        2.789613   -0.865081    1.418897
     28          1           0        1.102252    0.743373    2.280228
     29          1           0        2.415230    1.545823    1.451388
     30          1           0        1.034458    2.267984   -0.227890
     31          1           0       -0.802841   -0.085565    1.856409
     32          1           0       -2.314599    0.766188    1.444181
     33          1           0       -2.660318    0.351459   -1.639512
     34          1           0       -3.357372   -1.296488   -1.750649
     35          1           0       -5.027565   -0.744728    0.043574
     36          1           0       -5.517819    1.639459    0.389639
     37          1           0       -3.960835    2.091345   -0.518831
 ---------------------------------------------------------------------

 SCF Done:  E(UB3LYP) =  -1110.67075688     A.U. after   33 cycles
 SCF Done:  E(UB3LYP) =  -1110.67075688     a.u. after    1 cycles

 The electronic state is 2-A.
 Alpha  occ. eigenvalues --  -88.94425 -19.01985 -19.01836 -18.99859 -14.24862
 Alpha  occ. eigenvalues --  -10.19075 -10.11738 -10.11478 -10.11357 -10.08556
 Alpha  occ. eigenvalues --  -10.07144 -10.06996 -10.06973 -10.06877 -10.06630
 Alpha  occ. eigenvalues --  -10.06543  -8.01023  -5.97261  -5.97161  -5.97103
 Alpha  occ. eigenvalues --   -1.01047  -0.95105  -0.90767  -0.83606  -0.72622
 Alpha  occ. eigenvalues --   -0.71419  -0.68720  -0.66952  -0.62980  -0.61844
 Alpha  occ. eigenvalues --   -0.57142  -0.53658  -0.51514  -0.48823  -0.46887
 Alpha  occ. eigenvalues --   -0.45563  -0.42488  -0.41441  -0.40443  -0.39168
 Alpha  occ. eigenvalues --   -0.38367  -0.37539  -0.37153  -0.36102  -0.34023
 Alpha  occ. eigenvalues --   -0.33922  -0.33486  -0.33138  -0.32092  -0.30825
 Alpha  occ. eigenvalues --   -0.30258  -0.29721  -0.29205  -0.27115  -0.26939
 Alpha  occ. eigenvalues --   -0.26640  -0.25425  -0.24022  -0.23033  -0.22851
 Alpha  occ. eigenvalues --   -0.22282  -0.21994  -0.21503  -0.20857  -0.17394
 Alpha  occ. eigenvalues --   -0.17171  -0.16682   0.04034
 Alpha virt. eigenvalues --    0.05738   0.06944   0.07280   0.07373   0.07588
 Alpha virt. eigenvalues --    0.08409   0.08983   0.09353   0.09886   0.10376
 Alpha virt. eigenvalues --    0.10549   0.11133   0.11360   0.12249   0.12492

  Beta  occ. eigenvalues --  -88.94385 -19.01978 -19.01813 -18.99819 -14.24845
  Beta  occ. eigenvalues --  -10.19050 -10.11686 -10.11437 -10.11328 -10.08466
  Beta  occ. eigenvalues --  -10.07021 -10.06973 -10.06951 -10.06868 -10.06608
  Beta  occ. eigenvalues --  -10.06539  -8.00973  -5.97228  -5.97112  -5.97054
  Beta  occ. eigenvalues --   -1.00981  -0.95038  -0.90718  -0.83557  -0.72427
  Beta  occ. eigenvalues --   -0.71385  -0.68573  -0.66904  -0.62792  -0.61788
  Beta  occ. eigenvalues --   -0.57082  -0.53519  -0.51427  -0.48645  -0.46737
  Beta  occ. eigenvalues --   -0.45496  -0.42425  -0.41353  -0.40366  -0.39085
  Beta  occ. eigenvalues --   -0.38290  -0.37487  -0.37113  -0.36024  -0.33935
  Beta  occ. eigenvalues --   -0.33860  -0.33431  -0.33078  -0.32045  -0.30783
  Beta  occ. eigenvalues --   -0.30189  -0.29619  -0.29162  -0.27039  -0.26884
  Beta  occ. eigenvalues --   -0.26593  -0.25391  -0.23926  -0.22997  -0.22837
  Beta  occ. eigenvalues --   -0.22246  -0.21959  -0.21337  -0.20717  -0.17345
  Beta  occ. eigenvalues --   -0.16679  -0.16542
  Beta virt. eigenvalues --    0.06305   0.06996   0.07407   0.07668   0.07862
  Beta virt. eigenvalues --    0.08052   0.08756   0.09084   0.09715   0.10160
  Beta virt. eigenvalues --    0.10511   0.10846   0.11327   0.11530   0.12200

 Mulliken charges and spin densities:
               1          2
     1  C    0.336371  -0.960458
     2  C   -0.019630  -0.173296
     3  C   -0.074341  -0.122880
     4  C   -0.109112  -0.280843
     5  C   -0.191966   0.287853
     6  C    1.036113  -1.687622
     7  N   -0.269011   0.135462
     8  C   -0.435645   0.232656
     9  O   -0.322787   0.022380
    10  C    0.153260  -0.517495
    11  S    0.078830   0.049372
    12  O   -0.090961  -0.000190
    13  O   -0.163979   0.010935
    14  C   -0.612993  -0.016995
    15  C    0.216165   0.092426
    16  C   -0.550168   0.045673
    17  H   -0.028483   0.167521
    18  H   -0.238031   0.376279
    19  H    0.062961   0.064013
    20  H   -0.019787   0.141808
    21  H   -0.428028   0.584374
    22  H   -0.080499   0.188380
    23  H   -0.031711   0.182254
    24  H    0.220550  -0.018504
    25  H    0.074479   0.093346
    26  H    0.254026  -0.019031
    27  H   -0.017677   0.199138
    28  H   -0.482896   0.687501
    29  H   -0.440700   0.631768
    30  H    0.151905   0.171794
    31  H    0.175316   0.048580
    32  H   -0.004751   0.300361
    33  H    0.262665   0.012708
    34  H    0.186158   0.024204
    35  H    0.165225   0.020293
    36  H    0.065586   0.031048
    37  H    0.173545  -0.004809
 Sum of Mulliken charges =  -1.00000   1.00000

 Dipole moment (field-independent basis, Debye):
    X=             -4.6929    Y=             -1.2710    Z=             -2.9943  Tot=              5.7100
 Quadrupole moment (field-independent basis, Debye-Ang):
   XX=           -199.2050   YY=           -146.6857   ZZ=           -139.9646
   XY=             -5.2559   XZ=             -3.1541   YZ=              0.1101

 Summary of Natural Population Analysis:

                                       Natural Population
                Natural  -----------------------------------------------
    Atom  No    Charge         Core      Valence    Rydberg      Total
 -----------------------------------------------------------------------
      C    1   -0.28803      0.99967     2.28206    0.00630     3.28803
      C    2   -0.19255      0.99964     2.18470    0.00821     3.19255
      C    3   -0.19020      0.99963     2.18152    0.00906     3.19020
      C    4   -0.19402      0.99962     2.18692    0.00747     3.19402
      C    5   -0.20194      0.99961     2.19376    0.00857     3.20194
      C    6   -0.09222      0.99961     2.08038    0.01223     3.09222
      N    7   -0.30802      0.99967     2.79747    0.01088     3.80802
      C    8    0.33740      0.99965     1.63850    0.02445     2.66260
      O    9   -0.32957      0.99988     3.32395    0.00574     4.32957
      C   10   -0.33489      0.99954     2.32291    0.01244     3.33489
      S   11    1.02754      4.99929     1.87967    0.09350     6.97246
      O   12   -0.46862      0.99991     3.46282    0.00589     4.46862
      O   13   -0.46974      0.99991     3.46404    0.00579     4.46974
      C   14   -0.30024      0.99956     2.28861    0.01206     3.30024
      C   15   -0.10235      0.99957     2.09179    0.01099     3.10235
      C   16   -0.15799      0.99957     2.15064    0.00778     3.15799
      H   17    0.09625      0.00000     0.40292    0.00083     0.40375
      H   18    0.09944      0.00000     0.39969    0.00087     0.40056
      H   19    0.09393      0.00000     0.40523    0.00085     0.40607
      H   20    0.09464      0.00000     0.40371    0.00165     0.40536
      H   21    0.09633      0.00000     0.40226    0.00141     0.40367
      H   22    0.09271      0.00000     0.40598    0.00132     0.40729
      H   23    0.09515      0.00000     0.40394    0.00090     0.40485
      H   24    0.10463      0.00000     0.39417    0.00121     0.39537
      H   25    0.09809      0.00000     0.40089    0.00102     0.40191
      H   26    0.10803      0.00000     0.39033    0.00164     0.39197
      H   27    0.09810      0.00000     0.40072    0.00118     0.40190
      H   28    0.10100      0.00000     0.39672    0.00228     0.39900
      H   29    0.10297      0.00000     0.39507    0.00196     0.39703
      H   30    0.19636      0.00000     0.30133    0.00231     0.30364
      H   31    0.12270      0.00000     0.37598    0.00132     0.37730
      H   32    0.13214      0.00000     0.36678    0.00109     0.36786
      H   33    0.12965      0.00000     0.36902    0.00133     0.37035
      H   34    0.11528      0.00000     0.38347    0.00125     0.38472
      H   35    0.09697      0.00000     0.40192    0.00111     0.40303
      H   36    0.09016      0.00000     0.40892    0.00092     0.40984
      H   37    0.10089      0.00000     0.39788    0.00123     0.39911
 =======================================================================
   * Total *    0.00000     19.99431    46.73665    0.26904    67.00000

 Normal termination of Gaussian 16 at Fri Dec 11 00:55:54 2020.
