 Gaussian 16, Revision A.03,

 -----------------------------------------------------------
 # opt freq B3LYP/6-31G(d) empiricaldispersion=gd3bj scf=xqc
 -----------------------------------------------------------

 ------------------------------
 CID_139525672_JID_816_neutraal
 ------------------------------
 Symbolic Z-matrix:
 Charge =  0 Multiplicity = 1

 SCF Done:  E(RB3LYP) =  -474.696971398     A.U. after   18 cycles
 SCF Done:  E(RB3LYP) =  -474.707345316     A.U. after   14 cycles
 SCF Done:  E(RB3LYP) =  -474.709651308     A.U. after   14 cycles
 SCF Done:  E(RB3LYP) =  -474.710743201     A.U. after   14 cycles
 SCF Done:  E(RB3LYP) =  -474.710444349     A.U. after   13 cycles
 SCF Done:  E(RB3LYP) =  -474.711827620     A.U. after   13 cycles
 SCF Done:  E(RB3LYP) =  -474.712186590     A.U. after   13 cycles
 SCF Done:  E(RB3LYP) =  -474.712522398     A.U. after   13 cycles
 SCF Done:  E(RB3LYP) =  -474.712803026     A.U. after   12 cycles
 SCF Done:  E(RB3LYP) =  -474.713028261     A.U. after   13 cycles
 SCF Done:  E(RB3LYP) =  -474.714722202     A.U. after   10 cycles
 SCF Done:  E(RB3LYP) =  -474.714725402     A.U. after   10 cycles
 SCF Done:  E(RB3LYP) =  -474.714727688     A.U. after    9 cycles
 SCF Done:  E(RB3LYP) =  -474.714729035     A.U. after    9 cycles
 SCF Done:  E(RB3LYP) =  -474.714729537     A.U. after    8 cycles
 Optimization completed.
    -- Stationary point found.
 Normal termination of Gaussian 16 at Tue Dec  8 13:32:21 2020.

 --------------------------------------------------------------------
 #N Geom=AllCheck Guess=TCheck SCRF=Check GenChk RB3LYP/6-31G(d) Freq
 --------------------------------------------------------------------

 Structure from the checkpoint file:  "JID_816.chk"
 ------------------------------
 CID_139525672_JID_816_neutraal
 ------------------------------
 Charge =  0 Multiplicity = 1

 SCF Done:  E(RB3LYP) =  -474.714729537     A.U. after    1 cycles

  Exact polarizability: 125.129  -6.181  75.748   0.059   0.592  59.311
 Approx polarizability: 161.456  -7.369 108.894   0.073   3.644  96.724

                      1                      2                      3
                      A                      A                      A
 Frequencies --     36.7546                63.2741                77.3416
 Red. masses --      3.9359                 3.3237                 4.4348
 Frc consts  --      0.0031                 0.0078                 0.0156
 IR Inten    --      0.5751                 1.7502                 2.3636

                      4                      5                      6
                      A                      A                      A
 Frequencies --     96.2277               149.7574               222.1004
 Red. masses --      3.4374                 3.7547                 1.2588
 Frc consts  --      0.0188                 0.0496                 0.0366
 IR Inten    --     11.9103                 4.5728                 1.0058

                      7                      8                      9
                      A                      A                      A
 Frequencies --    238.3965               283.7855               301.3028
 Red. masses --      3.5934                 3.4222                 3.3532
 Frc consts  --      0.1203                 0.1624                 0.1794
 IR Inten    --     18.2681                 1.7800                 9.2002

                     10                     11                     12
                      A                      A                      A
 Frequencies --    354.4540               408.8356               448.0452
 Red. masses --      2.6041                 2.1018                 1.1341
 Frc consts  --      0.1928                 0.2070                 0.1341
 IR Inten    --      2.2801                 4.9868                56.8484

                     13                     14                     15
                      A                      A                      A
 Frequencies --    494.2675               510.3269               578.7945
 Red. masses --      1.9172                 2.7898                 2.5509
 Frc consts  --      0.2760                 0.4281                 0.5035
 IR Inten    --     17.1585                11.4361                 9.8926

                     16                     17                     18
                      A                      A                      A
 Frequencies --    588.2059               636.4279               680.5026
 Red. masses --      2.8412                 1.8238                 1.2054
 Frc consts  --      0.5792                 0.4352                 0.3289
 IR Inten    --      6.2389               107.5383                10.3804

                     19                     20                     21
                      A                      A                      A
 Frequencies --    712.8868               764.9183               805.5614
 Red. masses --      1.6584                 2.0567                 2.3592
 Frc consts  --      0.4966                 0.7090                 0.9020
 IR Inten    --     54.7323                21.0879                67.4615

                     22                     23                     24
                      A                      A                      A
 Frequencies --    832.4745               890.4047               981.3762
 Red. masses --      1.9778                 4.8181                 2.6408
 Frc consts  --      0.8075                 2.2506                 1.4985
 IR Inten    --    115.2043                 8.1764                 8.5644

                     25                     26                     27
                      A                      A                      A
 Frequencies --    989.7997              1061.4237              1088.1680
 Red. masses --      1.7049                 1.9185                 1.3619
 Frc consts  --      0.9841                 1.2735                 0.9501
 IR Inten    --     10.6971                91.7044                15.8698

                     28                     29                     30
                      A                      A                      A
 Frequencies --   1146.4332              1159.8209              1165.1980
 Red. masses --      2.4361                 1.5468                 1.5500
 Frc consts  --      1.8864                 1.2259                 1.2399
 IR Inten    --     73.5409                49.9864                74.8393

                     31                     32                     33
                      A                      A                      A
 Frequencies --   1221.8453              1233.1523              1301.4951
 Red. masses --      1.5385                 1.5451                 2.8634
 Frc consts  --      1.3533                 1.3843                 2.8577
 IR Inten    --     28.0074                15.0632                36.5486

                     34                     35                     36
                      A                      A                      A
 Frequencies --   1330.3335              1398.2932              1438.2490
 Red. masses --      1.5728                 1.6638                 1.9140
 Frc consts  --      1.6401                 1.9167                 2.3327
 IR Inten    --      5.1395                24.2347                55.3216

                     37                     38                     39
                      A                      A                      A
 Frequencies --   1461.4231              1471.2619              1506.0929
 Red. masses --      1.2202                 1.1776                 1.2447
 Frc consts  --      1.5355                 1.5019                 1.6635
 IR Inten    --     27.6800                15.5924                27.0721

                     40                     41                     42
                      A                      A                      A
 Frequencies --   1520.7702              1524.8203              1549.6660
 Red. masses --      1.0983                 1.1706                 1.0871
 Frc consts  --      1.4966                 1.6036                 1.5381
 IR Inten    --      6.4377                23.4727                19.3489

                     43                     44                     45
                      A                      A                      A
 Frequencies --   1665.4542              1723.1568              1744.0396
 Red. masses --      1.2330                 3.9906                 6.6101
 Frc consts  --      2.0151                 6.9814                11.8460
 IR Inten    --    197.8114               214.3213               116.3155

                     46                     47                     48
                      A                      A                      A
 Frequencies --   1796.4222              2985.6552              3049.5377
 Red. masses --      9.3446                 1.0573                 1.0603
 Frc consts  --     17.7675                 5.5528                 5.8098
 IR Inten    --    126.6943                73.9506                23.3103

                     49                     50                     51
                      A                      A                      A
 Frequencies --   3070.8333              3088.2367              3099.1385
 Red. masses --      1.0589                 1.0814                 1.0986
 Frc consts  --      5.8832                 6.0764                 6.2171
 IR Inten    --     30.2939                29.3801                12.9415

                     52                     53                     54
                      A                      A                      A
 Frequencies --   3139.6551              3179.3190              3194.9718
 Red. masses --      1.1025                 1.1138                 1.0605
 Frc consts  --      6.4033                 6.6332                 6.3784
 IR Inten    --     16.2311                25.3157                 1.9360

                     55                     56                     57
                      A                      A                      A
 Frequencies --   3278.1040              3495.9662              3628.3576
 Red. masses --      1.1148                 1.0530                 1.0924
 Frc consts  --      7.0582                 7.5822                 8.4731
 IR Inten    --     14.5289                35.9748                18.6327

 - Thermochemistry -
 -------------------
 Temperature   298.150 Kelvin.  Pressure   1.00000 Atm.
 Atom     1 has atomic number  6 and mass  12.00000

 Molecular mass:   141.09021 amu.
 Principal axes and moments of inertia in atomic units:
                           1         2         3
     Eigenvalues --   636.584852337.283502709.97975
           X            0.99999  -0.00454   0.00036
           Y            0.00455   0.99983  -0.01771
           Z           -0.00028   0.01771   0.99984
 This molecule is an asymmetric top.
 Rotational symmetry number  1.
 Warning -- assumption of classical behavior for rotation
           may cause significant error
 Rotational temperatures (Kelvin)      0.13606     0.03706     0.03196
 Rotational constants (GHZ):           2.83504     0.77215     0.66596
 Zero-point vibrational energy     459745.9 (Joules/Mol)
                                  109.88191 (Kcal/Mol)
 Warning -- explicit consideration of  16 degrees of freedom as
           vibrations may cause significant error
 Vibrational temperatures:     52.88    91.04   111.28   138.45   215.47
          (Kelvin)            319.55   343.00   408.30   433.51   509.98
                              588.22   644.64   711.14   734.25   832.76
                              846.30   915.68   979.09  1025.69  1100.55
                             1159.02  1197.75  1281.09  1411.98  1424.10
                             1527.15  1565.63  1649.46  1668.72  1676.46
                             1757.96  1774.23  1872.56  1914.05  2011.83
                             2069.32  2102.66  2116.82  2166.93  2188.05
                             2193.88  2229.62  2396.22  2479.24  2509.28
                             2584.65  4295.69  4387.60  4418.24  4443.28
                             4458.97  4517.26  4574.33  4596.85  4716.46
                             5029.92  5220.40

 Zero-point correction=                           0.175108 (Hartree/Particle)
 Thermal correction to Energy=                    0.186326
 Thermal correction to Enthalpy=                  0.187270
 Thermal correction to Gibbs Free Energy=         0.137479
 Sum of electronic and zero-point Energies=           -474.539622
 Sum of electronic and thermal Energies=              -474.528404
 Sum of electronic and thermal Enthalpies=            -474.527459
 Sum of electronic and thermal Free Energies=         -474.577251

                     E (Thermal)             CV                S
                      KCal/Mol        Cal/Mol-Kelvin    Cal/Mol-Kelvin
 Total                  116.921             40.324            104.794
 Electronic               0.000              0.000              0.000
 Translational            0.889              2.981             40.744
 Rotational               0.889              2.981             29.779
 Vibrational            115.144             34.362             34.271
 Vibration     1          0.594              1.982              5.427
 Vibration     2          0.597              1.972              4.352
 Vibration     3          0.599              1.964              3.957
 Vibration     4          0.603              1.952              3.529
 Vibration     5          0.618              1.903              2.675
 Vibration     6          0.648              1.807              1.942
 Vibration     7          0.656              1.782              1.815
 Vibration     8          0.682              1.704              1.511
 Vibration     9          0.693              1.671              1.410
 Vibration    10          0.730              1.566              1.146
 Vibration    11          0.773              1.451              0.931
 Vibration    12          0.807              1.365              0.802
 Vibration    13          0.850              1.263              0.673
 Vibration    14          0.865              1.227              0.633
 Vibration    15          0.935              1.077              0.488
 Vibration    16          0.945              1.057              0.470

 Optimization completed.
    -- Stationary point found.
 Normal termination of Gaussian 16 at Tue Dec  8 13:37:57 2020.

 ----------------------------------------------------------------------
 # B3LYP/6-311++G(d,p) empiricaldispersion=gd3bj scf=xqc pop=npa geom=c
 heck
 ----------------------------------------------------------------------

 --------------------------------------
 CID_139525672_JID_816_Energie_neutraal
 --------------------------------------
 Structure from the checkpoint file:  "JID_816.chk"
 Charge =  0 Multiplicity = 1

 SCF Done:  E(RB3LYP) =  -474.862137465     A.U. after   14 cycles
 Normal termination of Gaussian 16 at Tue Dec  8 13:42:50 2020.

 ----------------------------------------------------------------------
 # B3LYP/6-311++G(d,p) empiricaldispersion=gd3bj scf=xqc pop=npa geom=c
 heck
 ----------------------------------------------------------------------

 ------------------------------------
 CID_139525672_JID_816_Energie_kation
 ------------------------------------
 Structure from the checkpoint file:  "JID_816.chk"
 Charge =  1 Multiplicity = 2

 SCF Done:  E(UB3LYP) =  -474.593465257     A.U. after   18 cycles
 Normal termination of Gaussian 16 at Tue Dec  8 13:46:50 2020.
 Gaussian 16:  ES64L-G16RevA.03 25-Dec-2016

 ----------------------------------------------------------------------
 # B3LYP/6-311++G(d,p) empiricaldispersion=gd3bj scf=xqc pop=npa geom=c
 heck
 ----------------------------------------------------------------------

 -----------------------------------
 CID_139525672_JID_816_Energie_anion
 -----------------------------------
 Structure from the checkpoint file:  "JID_816.chk"
 Charge = -1 Multiplicity = 2

                         Standard orientation:
 ---------------------------------------------------------------------
 Center     Atomic      Atomic             Coordinates (Angstroms)
 Number     Number       Type             X           Y           Z
 ---------------------------------------------------------------------
      1          6           0        1.228671    1.943172   -0.380213
      2          7           0        0.913019    0.579590   -0.010328
      3          6           0       -0.280548    0.375907    0.782143
      4          6           0       -1.415251   -0.296169    0.010447
      5          8           0       -1.250013   -1.047904   -0.931315
      6          7           0       -2.681298   -0.060659    0.589066
      7          6           0       -3.638315    0.318578   -0.153921
      8          6           0        1.946657   -0.360781    0.054031
      9          6           0        3.258029   -0.050618   -0.018586
     10          7           0        1.457369   -1.665192    0.218856
     11          1           0        0.311884    2.459055   -0.682078
     12          1           0        1.915508    1.933472   -1.230546
     13          1           0        1.698682    2.518576    0.435176
     14          1           0       -0.074855   -0.272569    1.643761
     15          1           0       -0.641123    1.328663    1.185642
     16          1           0       -3.523245    0.513222   -1.226909
     17          1           0       -4.628843    0.459476    0.281075
     18          1           0        3.999971   -0.835957   -0.107282
     19          1           0        3.615730    0.968508    0.036836
     20          1           0        0.714103   -1.885007   -0.441466
     21          1           0        2.193209   -2.360909    0.209757
 ---------------------------------------------------------------------

 SCF Done:  E(UB3LYP) =  -474.863953603     A.U. after   33 cycles
 SCF Done:  E(UB3LYP) =  -474.863953603     a.u. after    1 cycles

 The electronic state is 2-A.
 Alpha  occ. eigenvalues --  -18.93407 -14.20513 -14.18753 -14.12839 -10.11685
 Alpha  occ. eigenvalues --  -10.09135 -10.08716 -10.06801 -10.02339 -10.01685
 Alpha  occ. eigenvalues --   -0.88352  -0.84027  -0.76349  -0.73992  -0.62471
 Alpha  occ. eigenvalues --   -0.60063  -0.55330  -0.48736  -0.43567  -0.40211
 Alpha  occ. eigenvalues --   -0.38074  -0.37152  -0.34374  -0.33729  -0.31334
 Alpha  occ. eigenvalues --   -0.30289  -0.29675  -0.28294  -0.27887  -0.26692
 Alpha  occ. eigenvalues --   -0.25844  -0.22162  -0.20286  -0.16500  -0.13335
 Alpha  occ. eigenvalues --   -0.12272  -0.08517  -0.07540   0.06043
 Alpha virt. eigenvalues --    0.07681   0.08675   0.10279   0.11046   0.11290
 Alpha virt. eigenvalues --    0.12217   0.12812   0.13178   0.13567   0.14597
 Alpha virt. eigenvalues --    0.15186   0.15889   0.16083   0.17812   0.18714

  Beta  occ. eigenvalues --  -18.93096 -14.20515 -14.18740 -14.12546 -10.11686
  Beta  occ. eigenvalues --  -10.08871 -10.08714 -10.06808 -10.01824 -10.01674
  Beta  occ. eigenvalues --   -0.87772  -0.83986  -0.76326  -0.73167  -0.62383
  Beta  occ. eigenvalues --   -0.60024  -0.55107  -0.47846  -0.43404  -0.40136
  Beta  occ. eigenvalues --   -0.37740  -0.36924  -0.34187  -0.33470  -0.31220
  Beta  occ. eigenvalues --   -0.30142  -0.29147  -0.28020  -0.27697  -0.26509
  Beta  occ. eigenvalues --   -0.25600  -0.21834  -0.19209  -0.14650  -0.12514
  Beta  occ. eigenvalues --   -0.11923  -0.08148  -0.07421
  Beta virt. eigenvalues --    0.07813   0.08784   0.10304   0.11063   0.11108
  Beta virt. eigenvalues --    0.12011   0.12762   0.13099   0.13307   0.13486
  Beta virt. eigenvalues --    0.14773   0.15594   0.15858   0.16344   0.18375

 Mulliken charges and spin densities:
               1          2
     1  C   -0.215416  -0.174334
     2  N    0.174631   0.003654
     3  C   -0.266488  -0.206374
     4  C   -0.147540   0.210326
     5  O   -0.392028   0.107455
     6  N   -0.036660   0.077555
     7  C   -0.385472   0.572760
     8  C    0.022573   0.019095
     9  C   -0.266343  -0.351721
    10  N   -0.373532   0.054672
    11  H    0.157553  -0.012552
    12  H    0.138839   0.002687
    13  H    0.073392   0.058081
    14  H    0.028078   0.198984
    15  H    0.186283  -0.016248
    16  H    0.043757  -0.026775
    17  H    0.078648   0.012295
    18  H   -0.151985   0.225680
    19  H    0.015531   0.062534
    20  H    0.220074   0.038827
    21  H    0.096102   0.143399
 Sum of Mulliken charges =  -1.00000   1.00000

 Dipole moment (field-independent basis, Debye):
    X=              4.5633    Y=              2.8287    Z=             -0.1553  Tot=              5.3712
 Quadrupole moment (field-independent basis, Debye-Ang):
   XX=           -113.9587   YY=            -71.8409   ZZ=            -76.7823
   XY=             -1.7349   XZ=             -1.1011   YZ=             -1.7302

 Summary of Natural Population Analysis:

                                       Natural Population
                Natural  -----------------------------------------------
    Atom  No    Charge         Core      Valence    Rydberg      Total
 -----------------------------------------------------------------------
      C    1   -0.17124      0.99966     2.16531    0.00627     3.17124
      N    2   -0.26053      0.99964     2.75064    0.01024     3.76053
      C    3   -0.13124      0.99957     2.11973    0.01194     3.13124
      C    4    0.36737      0.99968     1.60725    0.02569     2.63263
      O    5   -0.29567      0.99986     3.28942    0.00638     4.29567
      N    6   -0.23789      0.99964     2.72521    0.01304     3.73789
      C    7    0.08171      0.99967     1.90256    0.01606     2.91829
      C    8    0.19971      0.99952     1.78618    0.01460     2.80029
      C    9   -0.31614      0.99955     2.30858    0.00801     3.31614
      N   10   -0.41819      0.99972     2.90830    0.01018     3.91819
      H   11    0.09638      0.00000     0.40280    0.00082     0.40362
      H   12    0.09866      0.00000     0.39990    0.00145     0.40134
      H   13    0.07944      0.00000     0.41804    0.00252     0.42056
      H   14    0.11505      0.00000     0.38311    0.00184     0.38495
      H   15    0.10162      0.00000     0.39738    0.00099     0.39838
      H   16    0.05833      0.00000     0.43988    0.00179     0.44167
      H   17    0.06238      0.00000     0.43623    0.00139     0.43762
      H   18    0.09247      0.00000     0.40646    0.00107     0.40753
      H   19    0.09487      0.00000     0.40416    0.00097     0.40513
      H   20    0.20357      0.00000     0.29436    0.00207     0.29643
      H   21    0.17934      0.00000     0.31904    0.00162     0.32066
 =======================================================================
   * Total *   -0.00000      9.99651    27.86453    0.13896    38.00000

 Normal termination of Gaussian 16 at Tue Dec  8 13:54:03 2020.
