 Gaussian 16, Revision A.03,

 -----------------------------------------------------------
 # opt freq B3LYP/6-31G(d) empiricaldispersion=gd3bj scf=xqc
 -----------------------------------------------------------

 -------------------------------
 CID_130655118_JID_4338_neutraal
 -------------------------------
 Symbolic Z-matrix:
 Charge =  0 Multiplicity = 1

 SCF Done:  E(RB3LYP) =  -626.913658342     A.U. after   14 cycles
 SCF Done:  E(RB3LYP) =  -626.921948504     A.U. after   12 cycles
 SCF Done:  E(RB3LYP) =  -626.924516998     A.U. after   12 cycles
 SCF Done:  E(RB3LYP) =  -626.927310160     A.U. after   13 cycles
 SCF Done:  E(RB3LYP) =  -626.928380797     A.U. after   12 cycles
 SCF Done:  E(RB3LYP) =  -626.928790504     A.U. after   11 cycles
 SCF Done:  E(RB3LYP) =  -626.928939243     A.U. after   11 cycles
 SCF Done:  E(RB3LYP) =  -626.928975708     A.U. after   10 cycles
 SCF Done:  E(RB3LYP) =  -626.928981137     A.U. after    9 cycles
 SCF Done:  E(RB3LYP) =  -626.928982577     A.U. after    9 cycles
 SCF Done:  E(RB3LYP) =  -626.928983502     A.U. after    8 cycles
 SCF Done:  E(RB3LYP) =  -626.928984120     A.U. after    8 cycles
 SCF Done:  E(RB3LYP) =  -626.928984377     A.U. after    7 cycles
 SCF Done:  E(RB3LYP) =  -626.928984526     A.U. after    7 cycles
 Optimization completed.
    -- Stationary point found.

 1\1\GINC-NODE111\FOpt\RB3LYP\6-31G(d)\C9H17N5\VSC10255\10-Dec-2020\0\\
 # opt freq B3LYP/6-31G(d) empiricaldispersion=gd3bj scf=xqc\\CID_13065
 5118_JID_4338_neutraal\\0,1\C,0.9863120007,0.0471380694,0.0459877782\C
 ,0.1599447242,0.0002966989,-1.2564114997\C,0.3885617299,-1.3571706707,
 -1.9595957742\C,-1.3518139531,0.16139775,-0.994974543\C,-2.0998883914,
 -0.8605793051,-0.0954874525\C,-2.9969891752,0.3076025621,0.3937671405\
 C,-1.9143107064,1.3001551374,-0.1061035038\C,0.5912495375,1.1231959441
 ,-2.1699965856\N,-0.1902285092,2.0391531257,-2.6891534064\N,0.58163478

 Normal termination of Gaussian 16 at Thu Dec 10 09:26:36 2020.

 --------------------------------------------------------------------
 #N Geom=AllCheck Guess=TCheck SCRF=Check GenChk RB3LYP/6-31G(d) Freq
 --------------------------------------------------------------------

 Structure from the checkpoint file:  "JID_4338.chk"
 -------------------------------
 CID_130655118_JID_4338_neutraal
 -------------------------------
 Charge =  0 Multiplicity = 1

 SCF Done:  E(RB3LYP) =  -626.928984526     A.U. after    1 cycles

  Exact polarizability: 153.855   0.550 117.717  -3.580   3.908  92.938
 Approx polarizability: 194.970  -1.631 189.218  -6.208  13.454 142.339

                      1                      2                      3
                      A                      A                      A
 Frequencies --     55.4831                70.0191               101.1147
 Red. masses --      4.4653                 3.0347                 3.2618
 Frc consts  --      0.0081                 0.0088                 0.0196
 IR Inten    --      5.3795                 0.2209                 2.8544

                      4                      5                      6
                      A                      A                      A
 Frequencies --    113.4790               151.3750               197.1703
 Red. masses --      2.6633                 2.3901                 2.5409
 Frc consts  --      0.0202                 0.0323                 0.0582
 IR Inten    --      0.9152                 0.9725                 1.3646

                      7                      8                      9
                      A                      A                      A
 Frequencies --    206.0410               218.9663               246.7151
 Red. masses --      1.1700                 3.5511                 1.5910
 Frc consts  --      0.0293                 0.1003                 0.0571
 IR Inten    --     25.0139                 4.0450                 7.1371

                     10                     11                     12
                      A                      A                      A
 Frequencies --    264.6235               273.2174               275.9514
 Red. masses --      1.5659                 2.1318                 1.4535
 Frc consts  --      0.0646                 0.0938                 0.0652
 IR Inten    --      7.6208                 1.8805                 5.7399

                     13                     14                     15
                      A                      A                      A
 Frequencies --    289.9655               310.0525               317.3149
 Red. masses --      1.8458                 1.7349                 2.7646
 Frc consts  --      0.0914                 0.0983                 0.1640
 IR Inten    --     17.9859                27.4877                 1.1572

                     16                     17                     18
                      A                      A                      A
 Frequencies --    329.7891               374.7030               435.3127
 Red. masses --      2.6051                 2.9183                 3.5327
 Frc consts  --      0.1669                 0.2414                 0.3944
 IR Inten    --      6.9805                 2.2870                 1.5336

                     19                     20                     21
                      A                      A                      A
 Frequencies --    488.7660               552.1195               597.2526
 Red. masses --      3.5696                 2.9918                 2.9769
 Frc consts  --      0.5024                 0.5373                 0.6256
 IR Inten    --      1.3850                17.6415                 7.7601

                     22                     23                     24
                      A                      A                      A
 Frequencies --    665.2684               680.9531               714.6379
 Red. masses --      2.8162                 6.2364                 3.3361
 Frc consts  --      0.7344                 1.7038                 1.0038
 IR Inten    --      1.6764                10.7177                16.2587

                     25                     26                     27
                      A                      A                      A
 Frequencies --    735.2483               759.8840               797.8233
 Red. masses --      7.5433                 2.1008                 3.5388
 Frc consts  --      2.4026                 0.7147                 1.3271
 IR Inten    --      0.9871                 2.6710                15.3497

                     28                     29                     30
                      A                      A                      A
 Frequencies --    801.1004               867.3644               885.3324
 Red. masses --      1.2566                 1.5032                 2.3335
 Frc consts  --      0.4752                 0.6663                 1.0776
 IR Inten    --      1.9126               183.1243                 1.4738

                     31                     32                     33
                      A                      A                      A
 Frequencies --    919.6016               942.3478               955.9660
 Red. masses --      2.1332                 2.3626                 1.6331
 Frc consts  --      1.0629                 1.2361                 0.8793
 IR Inten    --      2.5689                 1.0618                 2.1026

                     34                     35                     36
                      A                      A                      A
 Frequencies --    966.7282               972.2582               983.7478
 Red. masses --      1.8768                 2.0191                 1.3701
 Frc consts  --      1.0334                 1.1246                 0.7812
 IR Inten    --     53.8024                10.3949                 4.7433

                     37                     38                     39
                      A                      A                      A
 Frequencies --   1028.1394              1039.8364              1057.0793
 Red. masses --      1.3823                 4.2025                 2.0721
 Frc consts  --      0.8609                 2.6772                 1.3642
 IR Inten    --      0.9922                41.2628                 4.5272

                     40                     41                     42
                      A                      A                      A
 Frequencies --   1079.5614              1090.8169              1118.6017
 Red. masses --      2.1793                 2.8765                 2.4136
 Frc consts  --      1.4964                 2.0166                 1.7794
 IR Inten    --      3.0763                22.7049                 1.5477

                     43                     44                     45
                      A                      A                      A
 Frequencies --   1170.7870              1193.9980              1202.8969
 Red. masses --      1.6514                 2.2886                 1.9850
 Frc consts  --      1.3337                 1.9224                 1.6922
 IR Inten    --     10.5006                 1.1572                13.2946

                     46                     47                     48
                      A                      A                      A
 Frequencies --   1221.0261              1254.8726              1264.7564
 Red. masses --      1.7820                 1.4016                 2.3605
 Frc consts  --      1.5653                 1.3004                 2.2247
 IR Inten    --      3.9980                 0.6500                 7.5549

                     49                     50                     51
                      A                      A                      A
 Frequencies --   1269.7329              1276.3009              1295.6708
 Red. masses --      1.3374                 1.2173                 1.7090
 Frc consts  --      1.2704                 1.1683                 1.6904
 IR Inten    --      0.3740                 0.6045                 1.8320

                     52                     53                     54
                      A                      A                      A
 Frequencies --   1305.3846              1315.2292              1356.9674
 Red. masses --      2.1535                 1.8889                 1.2770
 Frc consts  --      2.1621                 1.9252                 1.3854
 IR Inten    --      0.6423                 5.4383                 3.1490

                     55                     56                     57
                      A                      A                      A
 Frequencies --   1403.4181              1409.9793              1419.0604
 Red. masses --      1.8403                 2.6013                 1.2209
 Frc consts  --      2.1356                 3.0470                 1.4485
 IR Inten    --      1.3370                 4.7679                 7.0201

                     58                     59                     60
                      A                      A                      A
 Frequencies --   1443.8205              1507.0575              1510.0253
 Red. masses --      1.2497                 4.0668                 1.1474
 Frc consts  --      1.5348                 5.4421                 1.5415
 IR Inten    --      6.8450                54.8931                 5.2454

                     61                     62                     63
                      A                      A                      A
 Frequencies --   1513.8807              1518.5296              1533.7723
 Red. masses --      1.0644                 1.0713                 1.0611
 Frc consts  --      1.4373                 1.4555                 1.4707
 IR Inten    --      0.9874                 0.9146                 0.9860

                     64                     65                     66
                      A                      A                      A
 Frequencies --   1535.6610              1544.8585              1545.4885
 Red. masses --      1.0975                 1.3339                 1.2824
 Frc consts  --      1.5249                 1.8756                 1.8048
 IR Inten    --     12.4889                 4.0534                 0.5866

                     67                     68                     69
                      A                      A                      A
 Frequencies --   1563.6158              1603.8920              1688.3261
 Red. masses --      2.4796                 3.7918                 1.2887
 Frc consts  --      3.5718                 5.7470                 2.1644
 IR Inten    --     15.5850                73.2434                76.8096

                     70                     71                     72
                      A                      A                      A
 Frequencies --   1722.0264              3054.2673              3061.8905
 Red. masses --      1.1113                 1.0357                 1.0480
 Frc consts  --      1.9416                 5.6923                 5.7886
 IR Inten    --     42.6179                19.6909                20.8198

                     73                     74                     75
                      A                      A                      A
 Frequencies --   3066.3298              3070.2755              3076.2338
 Red. masses --      1.0495                 1.0595                 1.0724
 Frc consts  --      5.8138                 5.8843                 5.9795
 IR Inten    --     38.5257                58.2366                 5.1561

                     76                     77                     78
                      A                      A                      A
 Frequencies --   3083.1419              3107.6383              3120.0933
 Red. masses --      1.0734                 1.1066                 1.1025
 Frc consts  --      6.0117                 6.2965                 6.3238
 IR Inten    --     16.9434                19.3404                21.2506

                     79                     80                     81
                      A                      A                      A
 Frequencies --   3123.0260              3132.8619              3142.2514
 Red. masses --      1.1056                 1.1017                 1.1017
 Frc consts  --      6.3533                 6.3711                 6.4092
 IR Inten    --     66.0161                32.3301                 6.6414

                     82                     83                     84
                      A                      A                      A
 Frequencies --   3145.4059              3148.2207              3443.0657
 Red. masses --      1.1013                 1.1035                 1.0467
 Frc consts  --      6.4198                 6.4441                 7.3106
 IR Inten    --     37.1221                26.4453                 3.7648

                     85                     86                     87
                      A                      A                      A
 Frequencies --   3482.6113              3531.0042              3588.3615
 Red. masses --      1.0527                 1.0969                 1.0901
 Frc consts  --      7.5229                 8.0575                 8.2703
 IR Inten    --      4.4165                 7.0719                26.0889

 - Thermochemistry -
 -------------------
 Temperature   298.150 Kelvin.  Pressure   1.00000 Atm.
 Atom     1 has atomic number  6 and mass  12.00000

 Molecular mass:   195.14840 amu.
 Principal axes and moments of inertia in atomic units:
                           1         2         3
     Eigenvalues --  1251.882604114.667924799.53806
           X            0.99996  -0.00846  -0.00326
           Y            0.00843   0.99991  -0.01030
           Z            0.00335   0.01028   0.99994
 This molecule is an asymmetric top.
 Rotational symmetry number  1.
 Warning -- assumption of classical behavior for rotation
           may cause significant error
 Rotational temperatures (Kelvin)      0.06919     0.02105     0.01805
 Rotational constants (GHZ):           1.44162     0.43861     0.37602
 Zero-point vibrational energy     711176.6 (Joules/Mol)
                                  169.97529 (Kcal/Mol)
 Warning -- explicit consideration of  21 degrees of freedom as
           vibrations may cause significant error
 Vibrational temperatures:     79.83   100.74   145.48   163.27   217.79
          (Kelvin)            283.68   296.45   315.04   354.97   380.73
                              393.10   397.03   417.20   446.10   456.55
                              474.49   539.11   626.32   703.23   794.38
                              859.31   957.17   979.74  1028.20  1057.86
                             1093.30  1147.89  1152.60  1247.94  1273.80
                             1323.10  1355.83  1375.42  1390.91  1398.86
                             1415.39  1479.26  1496.09  1520.90  1553.25
                             1569.44  1609.42  1684.50  1717.90  1730.70
                             1756.78  1805.48  1819.70  1826.86  1836.31
                             1864.18  1878.16  1892.32  1952.37  2019.21
                             2028.65  2041.71  2077.34  2168.32  2172.59
                             2178.14  2184.83  2206.76  2209.47  2222.71
                             2223.61  2249.69  2307.64  2429.12  2477.61
                             4394.41  4405.38  4411.76  4417.44  4426.01
                             4435.95  4471.20  4489.12  4493.34  4507.49
                             4521.00  4525.54  4529.59  4953.80  5010.70
                             5080.33  5162.85

 Zero-point correction=                           0.270873 (Hartree/Particle)
 Thermal correction to Energy=                    0.285221
 Thermal correction to Enthalpy=                  0.286165
 Thermal correction to Gibbs Free Energy=         0.230597
 Sum of electronic and zero-point Energies=           -626.658112
 Sum of electronic and thermal Energies=              -626.643764
 Sum of electronic and thermal Enthalpies=            -626.642819
 Sum of electronic and thermal Free Energies=         -626.698387

                     E (Thermal)             CV                S
                      KCal/Mol        Cal/Mol-Kelvin    Cal/Mol-Kelvin
 Total                  178.979             55.108            116.952
 Electronic               0.000              0.000              0.000
 Translational            0.889              2.981             41.711
 Rotational               0.889              2.981             31.581
 Vibrational            177.201             49.147             43.661
 Vibration     1          0.596              1.975              4.612
 Vibration     2          0.598              1.968              4.153
 Vibration     3          0.604              1.948              3.433
 Vibration     4          0.607              1.938              3.209
 Vibration     5          0.619              1.901              2.655
 Vibration     6          0.637              1.844              2.159
 Vibration     7          0.641              1.831              2.078
 Vibration     8          0.647              1.812              1.968
 Vibration     9          0.661              1.768              1.754
 Vibration    10          0.671              1.738              1.631
 Vibration    11          0.676              1.723              1.576
 Vibration    12          0.678              1.718              1.559
 Vibration    13          0.686              1.692              1.474
 Vibration    14          0.699              1.655              1.362
 Vibration    15          0.704              1.641              1.324
 Vibration    16          0.713              1.616              1.261
 Vibration    17          0.746              1.524              1.060
 Vibration    18          0.796              1.393              0.841
 Vibration    19          0.845              1.275              0.687
 Vibration    20          0.907              1.135              0.540
 Vibration    21          0.955              1.038              0.454

                           ! Non-Optimized Parameters !

 1\1\GINC-NODE111\Freq\RB3LYP\6-31G(d)\C9H17N5\VSC10255\10-Dec-2020\0\\
 #N Geom=AllCheck Guess=TCheck SCRF=Check GenChk RB3LYP/6-31G(d) Freq\\
 CID_130655118_JID_4338_neutraal\\0,1\C,0.9863120007,0.0471380694,0.045
 9877782\C,0.1599447242,0.0002966989,-1.2564114997\C,0.3885617299,-1.35
 71706707,-1.9595957742\C,-1.3518139531,0.16139775,-0.994974543\C,-2.09
 98883914,-0.8605793051,-0.0954874525\C,-2.9969891752,0.3076025621,0.39
 37671405\C,-1.9143107064,1.3001551374,-0.1061035038\C,0.5912495375,1.1
 231959441,-2.1699965856\N,-0.1902285092,2.0391531257,-2.6891534064\N,0

 Normal termination of Gaussian 16 at Thu Dec 10 09:36:59 2020.

 ----------------------------------------------------------------------
 # B3LYP/6-311++G(d,p) empiricaldispersion=gd3bj scf=xqc pop=npa geom=c
 heck
 ----------------------------------------------------------------------

 ---------------------------------------
 CID_130655118_JID_4338_Energie_neutraal
 ---------------------------------------
 Structure from the checkpoint file:  "JID_4338.chk"
 Charge =  0 Multiplicity = 1

 SCF Done:  E(RB3LYP) =  -627.110198731     A.U. after   14 cycles
 Normal termination of Gaussian 16 at Thu Dec 10 09:41:32 2020.

 ----------------------------------------------------------------------
 # B3LYP/6-311++G(d,p) empiricaldispersion=gd3bj scf=xqc pop=npa geom=c
 heck
 ----------------------------------------------------------------------

 -------------------------------------
 CID_130655118_JID_4338_Energie_kation
 -------------------------------------
 Structure from the checkpoint file:  "JID_4338.chk"
 Charge =  1 Multiplicity = 2

 SCF Done:  E(UB3LYP) =  -626.800497112     A.U. after   25 cycles
 Normal termination of Gaussian 16 at Thu Dec 10 09:53:09 2020.
 Gaussian 16:  ES64L-G16RevA.03 25-Dec-2016

 ------------------------------------
 CID_130655118_JID_4338_Energie_anion
 ------------------------------------
 Structure from the checkpoint file:  "JID_4338.chk"
 Charge = -1 Multiplicity = 2

                         Standard orientation:
 ---------------------------------------------------------------------
 Center     Atomic      Atomic             Coordinates (Angstroms)
 Number     Number       Type             X           Y           Z
 ---------------------------------------------------------------------
      1          6           0        0.827812    1.416376    1.261423
      2          6           0        0.716191    0.701040   -0.101352
      3          6           0        0.684382    1.754741   -1.231906
      4          6           0        1.902212   -0.250849   -0.360155
      5          6           0        3.352396    0.304611   -0.399616
      6          6           0        3.825126   -1.033844    0.227977
      7          6           0        2.367218   -1.288224    0.693830
      8          6           0       -0.550439   -0.121025   -0.139070
      9          7           0       -0.630454   -1.403971   -0.397633
     10          7           0       -1.967813   -1.797396   -0.325618
     11          6           0       -2.657512   -0.730444   -0.021078
     12          7           0       -1.827422    0.358679    0.115683
     13          7           0       -2.224891    1.693269    0.290095
     14          7           0       -4.045752   -0.590943    0.044717
     15          1           0        1.778889    1.953142    1.334454
     16          1           0        0.773005    0.706697    2.092605
     17          1           0        0.024427    2.148478    1.376957
     18          1           0        1.605389    2.347747   -1.212698
     19          1           0        0.613473    1.267679   -2.210603
     20          1           0       -0.165356    2.432366   -1.115426
     21          1           0        1.699510   -0.782904   -1.295155
     22          1           0        3.759856    0.589306   -1.374940
     23          1           0        3.498152    1.140437    0.293195
     24          1           0        4.604291   -0.983418    0.994938
     25          1           0        4.136103   -1.751181   -0.538498
     26          1           0        2.212165   -0.936105    1.719000
     27          1           0        1.953724   -2.294358    0.601765
     28          1           0       -2.536088    1.818595    1.253225
     29          1           0       -3.032135    1.843551   -0.316093
     30          1           0       -4.477010   -1.460994   -0.255762
     31          1           0       -4.378388   -0.370792    0.982008
 ---------------------------------------------------------------------

 SCF Done:  E(UB3LYP) =  -627.108000813     A.U. after   28 cycles

 The electronic state is 2-A.
 Alpha  occ. eigenvalues --  -14.28377 -14.23767 -14.21356 -14.20387 -14.19911
 Alpha  occ. eigenvalues --  -10.14669 -10.12003 -10.09793 -10.08006 -10.07740
 Alpha  occ. eigenvalues --  -10.07644 -10.06765 -10.06225 -10.06012  -0.96017
 Alpha  occ. eigenvalues --   -0.86045  -0.80913  -0.76348  -0.71957  -0.69775
 Alpha  occ. eigenvalues --   -0.66358  -0.59236  -0.57009  -0.56433  -0.52669
 Alpha  occ. eigenvalues --   -0.50460  -0.46966  -0.44517  -0.43167  -0.41892
 Alpha  occ. eigenvalues --   -0.39636  -0.38930  -0.37593  -0.35989  -0.35192
 Alpha  occ. eigenvalues --   -0.33943  -0.31754  -0.30543  -0.30178  -0.28829
 Alpha  occ. eigenvalues --   -0.27385  -0.26243  -0.25547  -0.24842  -0.21999
 Alpha  occ. eigenvalues --   -0.21664  -0.21646  -0.20698  -0.19878  -0.18978
 Alpha  occ. eigenvalues --   -0.16810  -0.14102  -0.12095   0.04208
 Alpha virt. eigenvalues --    0.06396   0.07823   0.07943   0.08825   0.09623
 Alpha virt. eigenvalues --    0.09736   0.10622   0.11074   0.11783   0.11909
 Alpha virt. eigenvalues --    0.12789   0.13178   0.13626   0.14100   0.14117

  Beta  occ. eigenvalues --  -14.28368 -14.23657 -14.21257 -14.20382 -14.19905
  Beta  occ. eigenvalues --  -10.14667 -10.12003 -10.09791 -10.08004 -10.07734
  Beta  occ. eigenvalues --  -10.07644 -10.06763 -10.06215 -10.05991  -0.95976
  Beta  occ. eigenvalues --   -0.85961  -0.80793  -0.76338  -0.71911  -0.69653
  Beta  occ. eigenvalues --   -0.66322  -0.59207  -0.56996  -0.56422  -0.52650
  Beta  occ. eigenvalues --   -0.50403  -0.46899  -0.44454  -0.43070  -0.41794
  Beta  occ. eigenvalues --   -0.39592  -0.38916  -0.37509  -0.35944  -0.35166
  Beta  occ. eigenvalues --   -0.33914  -0.31735  -0.30513  -0.30166  -0.28815
  Beta  occ. eigenvalues --   -0.27367  -0.26228  -0.25534  -0.24832  -0.21984
  Beta  occ. eigenvalues --   -0.21633  -0.21613  -0.20680  -0.19839  -0.18927
  Beta  occ. eigenvalues --   -0.16765  -0.14064  -0.12059
  Beta virt. eigenvalues --    0.06268   0.07612   0.07900   0.08292   0.09389
  Beta virt. eigenvalues --    0.09924   0.10226   0.10848   0.11181   0.12075
  Beta virt. eigenvalues --    0.12558   0.13130   0.13400   0.13729   0.14138

 Mulliken charges and spin densities:
               1          2
     1  C    0.231602  -1.045277
     2  C    0.320721   0.314380
     3  C   -0.449862  -0.244861
     4  C   -0.146492   0.012476
     5  C   -0.356614  -0.110867
     6  C   -0.312418  -0.089556
     7  C   -0.347770   0.037043
     8  C    0.293756  -0.556392
     9  N   -0.193081   0.053868
    10  N    0.083236  -0.086806
    11  C    0.732323  -0.389206
    12  N   -0.140699   0.098922
    13  N    0.047781  -0.532119
    14  N   -0.537362   0.199317
    15  H    0.048315   0.078465
    16  H   -0.180648   0.346813
    17  H    0.016482   0.154545
    18  H    0.064870   0.077692
    19  H    0.069241   0.076341
    20  H    0.099476   0.099377
    21  H    0.276600  -0.016093
    22  H    0.079822   0.048536
    23  H    0.095724   0.016744
    24  H    0.108229   0.033213
    25  H    0.096456   0.009315
    26  H    0.144977  -0.042634
    27  H    0.166391   0.013595
    28  H   -0.364583   0.655621
    29  H   -0.148817   0.425769
    30  H   -0.135938   0.417343
    31  H   -0.661720   0.944437
 Sum of Mulliken charges =  -1.00000   1.00000

 Dipole moment (field-independent basis, Debye):
    X=             11.0324    Y=             -0.4930    Z=             -3.2938  Tot=             11.5242
 Quadrupole moment (field-independent basis, Debye-Ang):
   XX=           -161.0546   YY=           -124.1261   ZZ=           -114.2746
   XY=              4.6473   XZ=             13.1825   YZ=             -6.0784

 Summary of Natural Population Analysis:

                                       Natural Population
                Natural  -----------------------------------------------
    Atom  No    Charge         Core      Valence    Rydberg      Total
 -----------------------------------------------------------------------
      C    1   -0.28614      0.99963     2.27878    0.00772     3.28614
      C    2   -0.06164      0.99951     2.05017    0.01196     3.06164
      C    3   -0.28145      0.99963     2.27640    0.00542     3.28145
      C    4   -0.10116      0.99959     2.08931    0.01227     3.10116
      C    5   -0.18877      0.99963     2.18236    0.00678     3.18877
      C    6   -0.19129      0.99966     2.18426    0.00738     3.19129
      C    7   -0.18469      0.99963     2.17779    0.00728     3.18469
      C    8    0.19612      0.99954     1.78449    0.01984     2.80388
      N    9   -0.17238      0.99967     2.66130    0.01141     3.67238
      N   10   -0.19100      0.99967     2.67833    0.01301     3.69100
      C   11    0.26722      0.99957     1.71451    0.01869     2.73278
      N   12   -0.14293      0.99952     2.62806    0.01535     3.64293
      N   13   -0.31570      0.99976     2.80277    0.01318     3.81570
      N   14   -0.41232      0.99973     2.90215    0.01044     3.91232
      H   15    0.09536      0.00000     0.40373    0.00092     0.40464
      H   16    0.10200      0.00000     0.39690    0.00110     0.39800
      H   17    0.11233      0.00000     0.38636    0.00131     0.38767
      H   18    0.09580      0.00000     0.40340    0.00080     0.40420
      H   19    0.09916      0.00000     0.40003    0.00081     0.40084
      H   20    0.11293      0.00000     0.38601    0.00106     0.38707
      H   21    0.10794      0.00000     0.39083    0.00123     0.39206
      H   22    0.09367      0.00000     0.40524    0.00110     0.40633
      H   23    0.09451      0.00000     0.40411    0.00138     0.40549
      H   24    0.09130      0.00000     0.40741    0.00129     0.40870
      H   25    0.09265      0.00000     0.40617    0.00118     0.40735
      H   26    0.09494      0.00000     0.40382    0.00124     0.40506
      H   27    0.10538      0.00000     0.39356    0.00106     0.39462
      H   28    0.19103      0.00000     0.28981    0.01916     0.30897
      H   29    0.18704      0.00000     0.30863    0.00432     0.31296
      H   30    0.19119      0.00000     0.30625    0.00256     0.30881
      H   31    0.19891      0.00000     0.27887    0.02222     0.30109
 =======================================================================
   * Total *    0.00000     13.99474    38.78180    0.22345    53.00000

 Normal termination of Gaussian 16 at Thu Dec 10 10:06:15 2020.
