 Gaussian 16, Revision A.03,

 -----------------------------------------------------------
 # opt freq B3LYP/6-31G(d) empiricaldispersion=gd3bj scf=xqc
 -----------------------------------------------------------

 -------------------------------
 CID_102646888_JID_3369_neutraal
 -------------------------------
 Symbolic Z-matrix:
 Charge =  0 Multiplicity = 1

 SCF Done:  E(RB3LYP) =  -939.363756985     A.U. after   15 cycles
 SCF Done:  E(RB3LYP) =  -939.369572384     A.U. after   14 cycles
 SCF Done:  E(RB3LYP) =  -939.369733055     A.U. after   13 cycles
 SCF Done:  E(RB3LYP) =  -939.370448279     A.U. after   13 cycles
 SCF Done:  E(RB3LYP) =  -939.369257687     A.U. after   14 cycles
 SCF Done:  E(RB3LYP) =  -939.371075567     A.U. after   12 cycles
 SCF Done:  E(RB3LYP) =  -939.371388250     A.U. after   12 cycles
 SCF Done:  E(RB3LYP) =  -939.371434456     A.U. after   12 cycles
 SCF Done:  E(RB3LYP) =  -939.371485423     A.U. after   11 cycles
 SCF Done:  E(RB3LYP) =  -939.371493282     A.U. after    9 cycles
 SCF Done:  E(RB3LYP) =  -939.371497245     A.U. after   10 cycles
 SCF Done:  E(RB3LYP) =  -939.371499580     A.U. after    9 cycles
 SCF Done:  E(RB3LYP) =  -939.371500079     A.U. after    7 cycles
 SCF Done:  E(RB3LYP) =  -939.371500148     A.U. after    7 cycles
 Optimization completed.
    -- Stationary point found.
 Normal termination of Gaussian 16 at Wed Dec  9 23:03:05 2020.

 --------------------------------------------------------------------
 #N Geom=AllCheck Guess=TCheck SCRF=Check GenChk RB3LYP/6-31G(d) Freq
 --------------------------------------------------------------------

 Structure from the checkpoint file:  "JID_3369.chk"
 -------------------------------
 CID_102646888_JID_3369_neutraal
 -------------------------------
 Charge =  0 Multiplicity = 1

 SCF Done:  E(RB3LYP) =  -939.371500148     A.U. after    1 cycles

  Exact polarizability: 163.718  -1.957 118.628  -1.704   4.592 102.674
 Approx polarizability: 200.703  -6.636 198.505  -2.914  10.768 159.216

                      1                      2                      3
                      A                      A                      A
 Frequencies --     22.4901                34.2588                48.0828
 Red. masses --      3.8983                 4.2689                 3.7827
 Frc consts  --      0.0012                 0.0030                 0.0052
 IR Inten    --      1.0923                 2.0051                 0.0809

                      4                      5                      6
                      A                      A                      A
 Frequencies --     92.4009               115.8329               120.6536
 Red. masses --      4.5718                 2.8078                 4.2952
 Frc consts  --      0.0230                 0.0222                 0.0368
 IR Inten    --      1.6038                 1.0160                 0.3444

                      7                      8                      9
                      A                      A                      A
 Frequencies --    165.5719               216.3995               225.5862
 Red. masses --      5.0344                 2.6370                 3.6585
 Frc consts  --      0.0813                 0.0728                 0.1097
 IR Inten    --      2.7143                 1.9988                 7.0387

                     10                     11                     12
                      A                      A                      A
 Frequencies --    251.3003               276.1599               301.2289
 Red. masses --      2.4307                 2.0224                 1.7077
 Frc consts  --      0.0904                 0.0909                 0.0913
 IR Inten    --      2.8694                 0.2980                 1.6546

                     13                     14                     15
                      A                      A                      A
 Frequencies --    315.1575               370.7558               434.3769
 Red. masses --      1.5279                 3.4060                 2.1196
 Frc consts  --      0.0894                 0.2758                 0.2356
 IR Inten    --      1.7952                 0.7514                 0.8685

                     16                     17                     18
                      A                      A                      A
 Frequencies --    466.6538               501.1597               513.7422
 Red. masses --      3.0558                 6.1407                 3.9054
 Frc consts  --      0.3921                 0.9087                 0.6073
 IR Inten    --      6.1494                 8.5657                 1.3713

                     19                     20                     21
                      A                      A                      A
 Frequencies --    555.6463               606.1107               639.8318
 Red. masses --      4.4689                 3.2534                 3.6042
 Frc consts  --      0.8129                 0.7042                 0.8693
 IR Inten    --     22.9078                20.3734                 2.6278

                     22                     23                     24
                      A                      A                      A
 Frequencies --    678.4348               781.7934               787.0938
 Red. masses --      4.6214                 2.2887                 1.4026
 Frc consts  --      1.2533                 0.8242                 0.5120
 IR Inten    --     12.7209                13.0284                 6.1740

                     25                     26                     27
                      A                      A                      A
 Frequencies --    816.4119               841.4564               856.0940
 Red. masses --      3.0133                 1.5783                 1.5270
 Frc consts  --      1.1833                 0.6584                 0.6594
 IR Inten    --      0.3430                 3.8773                 2.9345

                     28                     29                     30
                      A                      A                      A
 Frequencies --    871.7985               899.1153               908.3368
 Red. masses --      2.5387                 2.0291                 1.4630
 Frc consts  --      1.1368                 0.9665                 0.7112
 IR Inten    --      4.9872                 4.7883                 2.7878

                     31                     32                     33
                      A                      A                      A
 Frequencies --    931.1105               955.8221               973.3773
 Red. masses --      2.3590                 2.3404                 2.5103
 Frc consts  --      1.2050                 1.2598                 1.4013
 IR Inten    --     18.4670                17.2031                 3.9320

                     34                     35                     36
                      A                      A                      A
 Frequencies --   1049.0964              1069.4107              1090.5229
 Red. masses --      2.3825                 1.6845                 1.7420
 Frc consts  --      1.5449                 1.1351                 1.2206
 IR Inten    --     39.5646                 0.6971                15.9673

                     37                     38                     39
                      A                      A                      A
 Frequencies --   1091.5063              1103.7216              1115.4363
 Red. masses --      1.6185                 2.1256                 2.1623
 Frc consts  --      1.1361                 1.5257                 1.5851
 IR Inten    --     13.1788                50.9002                21.4901

                     40                     41                     42
                      A                      A                      A
 Frequencies --   1119.0064              1169.3907              1223.4058
 Red. masses --      1.7801                 1.4221                 1.2852
 Frc consts  --      1.3133                 1.1458                 1.1333
 IR Inten    --     25.0172                 6.3125                 9.8811

                     43                     44                     45
                      A                      A                      A
 Frequencies --   1255.1403              1262.2458              1277.1621
 Red. masses --      1.2843                 1.4531                 1.2623
 Frc consts  --      1.1920                 1.3640                 1.2131
 IR Inten    --      8.0584                20.7760                 0.3274

                     46                     47                     48
                      A                      A                      A
 Frequencies --   1297.6464              1308.1007              1319.8561
 Red. masses --      1.2364                 1.4144                 1.5501
 Frc consts  --      1.2266                 1.4260                 1.5909
 IR Inten    --      1.3130                68.6996                87.2220

                     49                     50                     51
                      A                      A                      A
 Frequencies --   1334.6338              1359.8817              1389.8440
 Red. masses --      1.7918                 1.1909                 1.4936
 Frc consts  --      1.8805                 1.2975                 1.6999
 IR Inten    --     68.0663                13.6061                 0.7840

                     52                     53                     54
                      A                      A                      A
 Frequencies --   1399.1879              1400.0793              1438.2862
 Red. masses --      1.4383                 1.6799                 1.4512
 Frc consts  --      1.6590                 1.9402                 1.7688
 IR Inten    --     13.9882                16.6958                14.0518

                     55                     56                     57
                      A                      A                      A
 Frequencies --   1441.5068              1478.8957              1491.7212
 Red. masses --      1.2646                 1.1166                 1.0859
 Frc consts  --      1.5482                 1.4388                 1.4237
 IR Inten    --      6.8602                14.6008                 2.9714

                     58                     59                     60
                      A                      A                      A
 Frequencies --   1501.6239              1513.4114              1515.2933
 Red. masses --      1.0882                 1.0815                 1.1043
 Frc consts  --      1.4457                 1.4594                 1.4940
 IR Inten    --      5.1582                 1.6400                 5.6820

                     61                     62                     63
                      A                      A                      A
 Frequencies --   1530.5002              1531.9519              1548.3882
 Red. masses --      1.0454                 1.1039                 1.0528
 Frc consts  --      1.4428                 1.5263                 1.4871
 IR Inten    --     10.7799                 1.4463                12.3117

                     64                     65                     66
                      A                      A                      A
 Frequencies --   1699.4201              1768.5252              3016.7309
 Red. masses --      7.8104                10.4101                 1.0695
 Frc consts  --     13.2901                19.1834                 5.7347
 IR Inten    --    165.5612                49.6124                25.9670

                     67                     68                     69
                      A                      A                      A
 Frequencies --   3025.7536              3027.8038              3051.2718
 Red. masses --      1.0708                 1.0651                 1.0353
 Frc consts  --      5.7758                 5.7528                 5.6793
 IR Inten    --     58.5425                34.1952                18.4474

                     70                     71                     72
                      A                      A                      A
 Frequencies --   3057.8925              3069.4094              3069.7056
 Red. masses --      1.0793                 1.0729                 1.0789
 Frc consts  --      5.9459                 5.9555                 5.9902
 IR Inten    --      9.7017                31.5560                19.5798

                     73                     74                     75
                      A                      A                      A
 Frequencies --   3076.1534              3109.3100              3118.6234
 Red. masses --      1.0786                 1.1048                 1.0998
 Frc consts  --      6.0135                 6.2933                 6.3021
 IR Inten    --     20.0337                37.7964                48.4869

                     76                     77                     78
                      A                      A                      A
 Frequencies --   3122.5050              3124.9145              3127.8343
 Red. masses --      1.0957                 1.0674                 1.1029
 Frc consts  --      6.2943                 6.1414                 6.3576
 IR Inten    --      6.8969                15.2422                19.1092

                     79                     80                     81
                      A                      A                      A
 Frequencies --   3131.8247              3191.5025              3228.7373
 Red. masses --      1.0965                 1.1092                 1.0898
 Frc consts  --      6.3365                 6.6565                 6.6939
 IR Inten    --     31.1454                 2.3451                 0.2737

 - Thermochemistry -
 -------------------
 Temperature   298.150 Kelvin.  Pressure   1.00000 Atm.
 Atom     1 has atomic number  6 and mass  12.00000

 Molecular mass:   200.08710 amu.
 Principal axes and moments of inertia in atomic units:
                           1         2         3
     Eigenvalues --  1158.112175165.720365530.98340
           X            0.99995   0.00872  -0.00513
           Y           -0.00848   0.99894   0.04528
           Z            0.00552  -0.04523   0.99896
 This molecule is an asymmetric top.
 Rotational symmetry number  1.
 Warning -- assumption of classical behavior for rotation
           may cause significant error
 Rotational temperatures (Kelvin)      0.07479     0.01677     0.01566
 Rotational constants (GHZ):           1.55835     0.34937     0.32630
 Zero-point vibrational energy     653274.8 (Joules/Mol)
                                  156.13642 (Kcal/Mol)
 Warning -- explicit consideration of  20 degrees of freedom as
           vibrations may cause significant error
 Vibrational temperatures:     32.36    49.29    69.18   132.94   166.66
          (Kelvin)            173.59   238.22   311.35   324.57   361.57
                              397.33   433.40   453.44   533.43   624.97
                              671.41   721.06   739.16   799.45   872.06
                              920.58   976.12  1124.83  1132.45  1174.63
                             1210.67  1231.73  1254.32  1293.63  1306.89
                             1339.66  1375.21  1400.47  1509.42  1538.64
                             1569.02  1570.43  1588.01  1604.86  1610.00
                             1682.49  1760.21  1805.87  1816.09  1837.55
                             1867.02  1882.07  1898.98  1920.24  1956.57
                             1999.68  2013.12  2014.40  2069.37  2074.01
                             2127.80  2146.25  2160.50  2177.46  2180.17
                             2202.05  2204.14  2227.79  2445.09  2544.51
                             4340.40  4353.38  4356.33  4390.10  4399.63
                             4416.20  4416.62  4425.90  4473.60  4487.00
                             4492.59  4496.05  4500.26  4506.00  4591.86
                             4645.43

 Zero-point correction=                           0.248819 (Hartree/Particle)
 Thermal correction to Energy=                    0.262791
 Thermal correction to Enthalpy=                  0.263735
 Thermal correction to Gibbs Free Energy=         0.206185
 Sum of electronic and zero-point Energies=           -939.122681
 Sum of electronic and thermal Energies=              -939.108709
 Sum of electronic and thermal Enthalpies=            -939.107765
 Sum of electronic and thermal Free Energies=         -939.165315

                     E (Thermal)             CV                S
                      KCal/Mol        Cal/Mol-Kelvin    Cal/Mol-Kelvin
 Total                  164.904             51.424            121.124
 Electronic               0.000              0.000              0.000
 Translational            0.889              2.981             41.785
 Rotational               0.889              2.981             31.870
 Vibrational            163.126             45.462             47.468
 Vibration     1          0.593              1.985              6.401
 Vibration     2          0.594              1.983              5.566
 Vibration     3          0.595              1.978              4.895
 Vibration     4          0.602              1.955              3.609
 Vibration     5          0.608              1.936              3.169
 Vibration     6          0.609              1.932              3.090
 Vibration     7          0.624              1.885              2.485
 Vibration     8          0.645              1.816              1.989
 Vibration     9          0.650              1.802              1.914
 Vibration    10          0.663              1.761              1.721
 Vibration    11          0.678              1.717              1.557
 Vibration    12          0.693              1.671              1.410
 Vibration    13          0.703              1.645              1.335
 Vibration    14          0.743              1.532              1.077
 Vibration    15          0.795              1.395              0.844
 Vibration    16          0.824              1.324              0.747
 Vibration    17          0.857              1.247              0.655
 Vibration    18          0.869              1.220              0.625
 Vibration    19          0.911              1.127              0.533
 Vibration    20          0.965              1.019              0.439

 Optimization completed.
    -- Stationary point found.
 Normal termination of Gaussian 16 at Wed Dec  9 23:09:57 2020.

 ----------------------------------------------------------------------
 # B3LYP/6-311++G(d,p) empiricaldispersion=gd3bj scf=xqc pop=npa geom=c
 heck
 ----------------------------------------------------------------------

 ---------------------------------------
 CID_102646888_JID_3369_Energie_neutraal
 ---------------------------------------
 Structure from the checkpoint file:  "JID_3369.chk"
 Charge =  0 Multiplicity = 1

 SCF Done:  E(RB3LYP) =  -939.551045389     A.U. after   15 cycles
 Normal termination of Gaussian 16 at Wed Dec  9 23:13:23 2020.

 ----------------------------------------------------------------------
 # B3LYP/6-311++G(d,p) empiricaldispersion=gd3bj scf=xqc pop=npa geom=c
 heck
 ----------------------------------------------------------------------

 -------------------------------------
 CID_102646888_JID_3369_Energie_kation
 -------------------------------------
 Structure from the checkpoint file:  "JID_3369.chk"
 Charge =  1 Multiplicity = 2

 SCF Done:  E(UB3LYP) =  -939.259110309     A.U. after   23 cycles
 Normal termination of Gaussian 16 at Wed Dec  9 23:21:06 2020.
 Gaussian 16:  ES64L-G16RevA.03 25-Dec-2016

 ----------------------------------------------------------------------
 # B3LYP/6-311++G(d,p) empiricaldispersion=gd3bj scf=xqc pop=npa geom=c
 heck
 ----------------------------------------------------------------------

 ------------------------------------
 CID_102646888_JID_3369_Energie_anion
 ------------------------------------
 Structure from the checkpoint file:  "JID_3369.chk"
 Charge = -1 Multiplicity = 2

                         Standard orientation:
 ---------------------------------------------------------------------
 Center     Atomic      Atomic             Coordinates (Angstroms)
 Number     Number       Type             X           Y           Z
 ---------------------------------------------------------------------
      1          6           0        4.131762    0.588505   -0.633787
      2          6           0        3.931696    0.093337    0.799972
      3          6           0        2.467446   -0.073468    1.213092
      4         16           0        1.513679   -1.360025    0.304175
      5          6           0        0.878255   -0.435212   -1.161937
      6          6           0        0.017503    0.706458   -0.673524
      7          8           0        0.487963    1.827461   -0.521861
      8          6           0       -1.397530    0.404200   -0.308275
      9          6           0       -2.186165    1.323262    0.274485
     10          6           0       -3.581381    1.010326    0.731182
     11          6           0       -3.812236   -0.507697    0.711111
     12          6           0       -3.202769   -1.099100   -0.555710
     13          8           0       -1.789178   -0.870668   -0.620259
     14          1           0        3.849831   -0.183928   -1.356934
     15          1           0        5.181319    0.843035   -0.817021
     16          1           0        3.522399    1.478077   -0.830519
     17          1           0        4.462503   -0.855875    0.943999
     18          1           0        4.380883    0.812513    1.500115
     19          1           0        2.404358   -0.389437    2.259703
     20          1           0        1.928093    0.874590    1.124283
     21          1           0        1.696169   -0.043785   -1.765361
     22          1           0        0.300998   -1.171335   -1.722893
     23          1           0       -1.758465    2.305658    0.440480
     24          1           0       -4.315445    1.520660    0.089445
     25          1           0       -3.741416    1.409498    1.741090
     26          1           0       -4.879653   -0.750231    0.755501
     27          1           0       -3.330584   -0.971163    1.579804
     28          1           0       -3.321818   -2.183662   -0.604458
     29          1           0       -3.667805   -0.652227   -1.446734
 ---------------------------------------------------------------------

 SCF Done:  E(UB3LYP) =  -939.554801398     A.U. after   31 cycles

 The electronic state is 2-A.
 Alpha  occ. eigenvalues --  -88.70311 -19.00681 -18.91873 -10.10016 -10.07071
 Alpha  occ. eigenvalues --  -10.06373 -10.06258 -10.06156 -10.05294 -10.05204
 Alpha  occ. eigenvalues --  -10.05155 -10.04515  -9.99976  -7.78927  -5.75318
 Alpha  occ. eigenvalues --   -5.74964  -5.74308  -0.92485  -0.85974  -0.69195
 Alpha  occ. eigenvalues --   -0.67495  -0.64479  -0.62973  -0.58262  -0.52725
 Alpha  occ. eigenvalues --   -0.52103  -0.50120  -0.45428  -0.42551  -0.39247
 Alpha  occ. eigenvalues --   -0.35695  -0.35187  -0.34242  -0.33590  -0.32094
 Alpha  occ. eigenvalues --   -0.30549  -0.30287  -0.29891  -0.27600  -0.27320
 Alpha  occ. eigenvalues --   -0.25881  -0.25483  -0.25049  -0.24750  -0.23551
 Alpha  occ. eigenvalues --   -0.22434  -0.20843  -0.20477  -0.18969  -0.18206
 Alpha  occ. eigenvalues --   -0.17566  -0.10492  -0.08425  -0.07588   0.04979
 Alpha virt. eigenvalues --    0.07488   0.07892   0.09388   0.09930   0.10187
 Alpha virt. eigenvalues --    0.10546   0.10731   0.11785   0.12272   0.12951
 Alpha virt. eigenvalues --    0.13170   0.13713   0.14256   0.14518   0.14792

  Beta  occ. eigenvalues --  -88.70265 -19.00669 -18.91333 -10.10006 -10.07073
  Beta  occ. eigenvalues --  -10.06370 -10.06165 -10.05847 -10.05320 -10.05202
  Beta  occ. eigenvalues --  -10.05135 -10.04538  -9.99662  -7.78880  -5.75243
  Beta  occ. eigenvalues --   -5.74897  -5.74273  -0.92432  -0.84978  -0.69135
  Beta  occ. eigenvalues --   -0.67370  -0.64172  -0.62762  -0.58143  -0.52502
  Beta  occ. eigenvalues --   -0.51805  -0.50002  -0.45236  -0.42149  -0.39081
  Beta  occ. eigenvalues --   -0.35353  -0.35085  -0.34223  -0.33466  -0.31834
  Beta  occ. eigenvalues --   -0.30437  -0.30157  -0.29704  -0.27219  -0.27151
  Beta  occ. eigenvalues --   -0.25659  -0.25190  -0.24773  -0.24653  -0.23260
  Beta  occ. eigenvalues --   -0.22111  -0.20653  -0.19901  -0.18544  -0.17982
  Beta  occ. eigenvalues --   -0.16383  -0.10266  -0.07573  -0.06636
  Beta virt. eigenvalues --    0.07691   0.07943   0.09295   0.09867   0.10191
  Beta virt. eigenvalues --    0.10373   0.10653   0.11689   0.11942   0.12314
  Beta virt. eigenvalues --    0.13053   0.13140   0.13573   0.14252   0.14495

 Mulliken charges and spin densities:
               1          2
     1  C   -0.535911  -0.031978
     2  C   -0.209240  -0.030524
     3  C   -0.366901   0.024310
     4  S    0.094353   0.004785
     5  C   -0.318410   0.034420
     6  C    0.023275   0.051807
     7  O   -0.393647   0.189417
     8  C   -0.025007  -0.002781
     9  C   -0.114195   0.422334
    10  C   -0.320601  -0.412164
    11  C   -0.245065   0.106860
    12  C    0.046203  -0.344304
    13  O   -0.099456   0.034137
    14  H    0.118573   0.011018
    15  H    0.109546   0.011409
    16  H    0.180075   0.010506
    17  H    0.040972   0.050070
    18  H    0.095902   0.000184
    19  H    0.187187   0.005472
    20  H    0.178130   0.002689
    21  H    0.181723   0.008540
    22  H    0.241627   0.000837
    23  H    0.202281  -0.014598
    24  H    0.017169   0.122624
    25  H    0.067595   0.048782
    26  H   -0.361740   0.505006
    27  H    0.175119  -0.053713
    28  H    0.085262   0.060859
    29  H   -0.054821   0.183996
 Sum of Mulliken charges =  -1.00000   1.00000

 Dipole moment (field-independent basis, Debye):
    X=              3.2946    Y=             -1.7297    Z=              1.1460  Tot=              3.8936
 Quadrupole moment (field-independent basis, Debye-Ang):
   XX=           -136.8754   YY=           -111.4688   ZZ=            -97.1341
   XY=              3.0981   XZ=             -0.4333   YZ=              3.4235

 Summary of Natural Population Analysis:

                                       Natural Population
                Natural  -----------------------------------------------
    Atom  No    Charge         Core      Valence    Rydberg      Total
 -----------------------------------------------------------------------
      C    1   -0.29224      0.99967     2.28718    0.00539     3.29224
      C    2   -0.19285      0.99963     2.18522    0.00800     3.19285
      C    3   -0.26108      0.99958     2.24976    0.01174     3.26108
      S    4    0.09069      4.99964     2.88989    0.01978     7.90931
      C    5   -0.28421      0.99956     2.27372    0.01094     3.28421
      C    6    0.30009      0.99960     1.67970    0.02061     2.69991
      O    7   -0.26001      0.99988     3.25395    0.00618     4.26001
      C    8    0.10816      0.99931     1.87870    0.01382     2.89184
      C    9   -0.07215      0.99950     2.06362    0.00903     3.07215
      C   10   -0.20509      0.99963     2.19663    0.00884     3.20509
      C   11   -0.20488      0.99964     2.19695    0.00830     3.20488
      C   12   -0.00894      0.99958     1.99550    0.01387     3.00894
      O   13   -0.28778      0.99987     3.27895    0.00897     4.28778
      H   14    0.09871      0.00000     0.39977    0.00152     0.40129
      H   15    0.09020      0.00000     0.40871    0.00108     0.40980
      H   16    0.10748      0.00000     0.39128    0.00124     0.39252
      H   17    0.08986      0.00000     0.40753    0.00262     0.41014
      H   18    0.08889      0.00000     0.40983    0.00128     0.41111
      H   19    0.09853      0.00000     0.40072    0.00075     0.40147
      H   20    0.11935      0.00000     0.37925    0.00139     0.38065
      H   21    0.10246      0.00000     0.39619    0.00135     0.39754
      H   22    0.11356      0.00000     0.38547    0.00097     0.38644
      H   23    0.10612      0.00000     0.39260    0.00128     0.39388
      H   24    0.09875      0.00000     0.39960    0.00166     0.40125
      H   25    0.09670      0.00000     0.40223    0.00107     0.40330
      H   26    0.09731      0.00000     0.40118    0.00151     0.40269
      H   27    0.09665      0.00000     0.40212    0.00123     0.40335
      H   28    0.08571      0.00000     0.41327    0.00102     0.41429
      H   29    0.08003      0.00000     0.41853    0.00144     0.41997
 =======================================================================
   * Total *    0.00000     16.99508    36.83805    0.16687    54.00000

 Normal termination of Gaussian 16 at Wed Dec  9 23:31:23 2020.
