 Gaussian 16, Revision A.03,

 ----------------------------------------------------------------------
 # opt=(cartesian,calcfc) freq B3LYP/6-31G(d) empiricaldispersion=gd3bj
  scf=xqc
 ----------------------------------------------------------------------

 -------------------------------
 CID_102555916_JID_8522_neutraal
 -------------------------------
 Symbolic Z-matrix:
 Charge =  0 Multiplicity = 1

 SCF Done:  E(RB3LYP) =  -1129.72973625     A.U. after   15 cycles
 SCF Done:  E(RB3LYP) =  -1129.73068209     A.U. after   11 cycles
 SCF Done:  E(RB3LYP) =  -1129.73067465     A.U. after   10 cycles
 SCF Done:  E(RB3LYP) =  -1129.73067905     A.U. after   10 cycles
 SCF Done:  E(RB3LYP) =  -1129.73068311     A.U. after    8 cycles
 SCF Done:  E(RB3LYP) =  -1129.73068299     A.U. after   10 cycles
 SCF Done:  E(RB3LYP) =  -1129.73068356     A.U. after    8 cycles
 SCF Done:  E(RB3LYP) =  -1129.73068392     A.U. after    8 cycles
 SCF Done:  E(RB3LYP) =  -1129.73068395     A.U. after    8 cycles
 SCF Done:  E(RB3LYP) =  -1129.73068392     A.U. after    8 cycles
 SCF Done:  E(RB3LYP) =  -1129.73068397     A.U. after    6 cycles
 Optimization completed on the basis of negligible forces.
    -- Stationary point found.
 Normal termination of Gaussian 16 at Mon Jan  4 10:31:29 2021.

 --------------------------------------------------------------------
 #N Geom=AllCheck Guess=TCheck SCRF=Check GenChk RB3LYP/6-31G(d) Freq
 --------------------------------------------------------------------

 Structure from the checkpoint file:  "JID_8522.chk"
 -------------------------------
 CID_102555916_JID_8522_neutraal
 -------------------------------
 Charge =  0 Multiplicity = 1

 SCF Done:  E(RB3LYP) =  -1129.73068397     A.U. after    1 cycles

  Exact polarizability: 218.245  -5.025 181.284  -3.867   8.670 125.265
 Approx polarizability: 279.570  -4.744 291.626  -8.850  20.750 200.423

                      1                      2                      3
                      A                      A                      A
 Frequencies --     14.7880                33.1964                51.9941
 Red. masses --      4.6418                 3.2377                 3.9623
 Frc consts  --      0.0006                 0.0021                 0.0063
 IR Inten    --      1.0917                 0.3465                 0.5118

                      4                      5                      6
                      A                      A                      A
 Frequencies --     67.3381                81.5887                82.9524
 Red. masses --      3.3751                 3.5736                 4.5572
 Frc consts  --      0.0090                 0.0140                 0.0185
 IR Inten    --      0.1270                 0.0068                 0.7917

                      7                      8                      9
                      A                      A                      A
 Frequencies --    109.9329               142.5099               149.6699
 Red. masses --      2.3872                 4.5321                 3.2132
 Frc consts  --      0.0170                 0.0542                 0.0424
 IR Inten    --      0.3185                 2.1548                 0.1158

                     10                     11                     12
                      A                      A                      A
 Frequencies --    184.3097               204.0518               220.5603
 Red. masses --      5.1120                 2.5634                 2.8724
 Frc consts  --      0.1023                 0.0629                 0.0823
 IR Inten    --      3.5106                 1.3836                 2.0820

                     13                     14                     15
                      A                      A                      A
 Frequencies --    236.5617               248.2417               274.8703
 Red. masses --      1.0253                 1.5110                 1.2520
 Frc consts  --      0.0338                 0.0549                 0.0557
 IR Inten    --      0.0194                 0.4822                 0.9534

                     16                     17                     18
                      A                      A                      A
 Frequencies --    287.1040               311.8347               322.5318
 Red. masses --      1.7113                 2.6819                 3.2887
 Frc consts  --      0.0831                 0.1537                 0.2016
 IR Inten    --      0.3514                 0.6185                 4.0856

                     19                     20                     21
                      A                      A                      A
 Frequencies --    343.4638               388.5075               408.3020
 Red. masses --      2.9588                 4.9187                 3.1780
 Frc consts  --      0.2057                 0.4374                 0.3122
 IR Inten    --      0.6339                 2.2887                 2.4432

                     22                     23                     24
                      A                      A                      A
 Frequencies --    416.8943               451.8567               478.1635
 Red. masses --      2.4038                 2.6611                 4.1807
 Frc consts  --      0.2461                 0.3201                 0.5632
 IR Inten    --      0.3293                 3.0699                 2.1792

                     25                     26                     27
                      A                      A                      A
 Frequencies --    486.7074               503.8527               522.2873
 Red. masses --      3.0958                 2.5692                 4.5986
 Frc consts  --      0.4321                 0.3843                 0.7391
 IR Inten    --      2.3468                10.8896                 3.9084

                     28                     29                     30
                      A                      A                      A
 Frequencies --    543.6652               586.9240               638.9732
 Red. masses --      4.2913                 4.0853                 2.6915
 Frc consts  --      0.7473                 0.8292                 0.6475
 IR Inten    --     21.6434                10.3103                 3.4170

                     31                     32                     33
                      A                      A                      A
 Frequencies --    655.0325               673.6743               720.4423
 Red. masses --      1.5121                 2.0753                 1.9666
 Frc consts  --      0.3823                 0.5549                 0.6014
 IR Inten    --     84.5457                 7.7087                18.3421

                     34                     35                     36
                      A                      A                      A
 Frequencies --    726.9013               746.1393               803.2444
 Red. masses --      3.5179                 2.8240                 2.2559
 Frc consts  --      1.0952                 0.9263                 0.8576
 IR Inten    --     17.6565                 1.4762                 1.9401

                     37                     38                     39
                      A                      A                      A
 Frequencies --    821.0547               839.8334               856.9315
 Red. masses --      2.0243                 3.7518                 2.8550
 Frc consts  --      0.8040                 1.5591                 1.2352
 IR Inten    --      2.2503                 3.1317                19.1051

                     40                     41                     42
                      A                      A                      A
 Frequencies --    886.1643               892.7677               898.7104
 Red. masses --      1.5075                 2.6756                 1.6410
 Frc consts  --      0.6975                 1.2565                 0.7809
 IR Inten    --     10.7295                 2.5399                 5.3460

                     43                     44                     45
                      A                      A                      A
 Frequencies --    924.6590               944.0060               965.3252
 Red. masses --      2.2810                 1.2311                 1.4770
 Frc consts  --      1.1491                 0.6464                 0.8109
 IR Inten    --      3.3050                 0.5505                 0.7259

                     46                     47                     48
                      A                      A                      A
 Frequencies --    968.4884              1003.7974              1013.9276
 Red. masses --      2.0883                 2.0481                 2.9988
 Frc consts  --      1.1541                 1.2159                 1.8164
 IR Inten    --      1.5479                12.8420                25.8975

                     49                     50                     51
                      A                      A                      A
 Frequencies --   1028.8084              1060.3449              1066.2076
 Red. masses --      2.0706                 2.3845                 2.3362
 Frc consts  --      1.2913                 1.5796                 1.5647
 IR Inten    --      3.9108                 1.2665                15.4667

                     52                     53                     54
                      A                      A                      A
 Frequencies --   1109.5086              1118.6960              1125.7753
 Red. masses --      1.4478                 1.4944                 2.0881
 Frc consts  --      1.0501                 1.1019                 1.5592
 IR Inten    --      8.2883                 5.1436                 6.1203

                     55                     56                     57
                      A                      A                      A
 Frequencies --   1153.7167              1158.9582              1166.7852
 Red. masses --      2.2389                 2.1265                 2.3550
 Frc consts  --      1.7558                 1.6829                 1.8890
 IR Inten    --     47.5152                23.7432                23.4680

                     58                     59                     60
                      A                      A                      A
 Frequencies --   1200.7378              1211.4125              1215.9845
 Red. masses --      1.8745                 2.0421                 2.5784
 Frc consts  --      1.5924                 1.7657                 2.2462
 IR Inten    --     10.1150                24.8245                32.8398

                     61                     62                     63
                      A                      A                      A
 Frequencies --   1230.2391              1261.5157              1278.2841
 Red. masses --      1.5465                 1.3186                 1.5387
 Frc consts  --      1.3790                 1.2364                 1.4813
 IR Inten    --      5.6156                14.5947                 9.3703

                     64                     65                     66
                      A                      A                      A
 Frequencies --   1298.2392              1340.0652              1362.5605
 Red. masses --      1.3078                 1.5933                 1.4072
 Frc consts  --      1.2987                 1.6858                 1.5393
 IR Inten    --      3.1803                98.2094                 6.3646

                     67                     68                     69
                      A                      A                      A
 Frequencies --   1364.8480              1375.8678              1376.9284
 Red. masses --      1.6889                 1.2268                 1.3870
 Frc consts  --      1.8537                 1.3683                 1.5494
 IR Inten    --     18.9248                 5.1087                25.3196

                     70                     71                     72
                      A                      A                      A
 Frequencies --   1383.9204              1388.0723              1405.6469
 Red. masses --      1.4332                 1.4837                 1.4841
 Frc consts  --      1.6172                 1.6843                 1.7276
 IR Inten    --      4.4039                41.2513                 2.6184

                     73                     74                     75
                      A                      A                      A
 Frequencies --   1416.5738              1426.1081              1430.3134
 Red. masses --      1.8019                 1.5705                 1.3121
 Frc consts  --      2.1304                 1.8819                 1.5816
 IR Inten    --     12.1704                21.3911                15.5082

                     76                     77                     78
                      A                      A                      A
 Frequencies --   1438.5587              1448.8237              1451.9779
 Red. masses --      1.2599                 1.2525                 1.8639
 Frc consts  --      1.5362                 1.5490                 2.3153
 IR Inten    --      6.2066                19.1654                36.9847

                     79                     80                     81
                      A                      A                      A
 Frequencies --   1487.2105              1503.5235              1507.8986
 Red. masses --      1.4863                 1.6187                 1.1273
 Frc consts  --      1.9369                 2.1560                 1.5102
 IR Inten    --     50.0351                 5.0422                16.5318

                     82                     83                     84
                      A                      A                      A
 Frequencies --   1512.7023              1514.3467              1518.1904
 Red. masses --      2.0665                 1.0434                 1.0603
 Frc consts  --      2.7861                 1.4098                 1.4399
 IR Inten    --      3.2037                 0.4841                 2.3556

                     85                     86                     87
                      A                      A                      A
 Frequencies --   1525.1365              1530.8441              1531.4800
 Red. masses --      1.0769                 1.0628                 1.0749
 Frc consts  --      1.4758                 1.4675                 1.4854
 IR Inten    --      2.7851                 5.5707                 1.6765

                     88                     89                     90
                      A                      A                      A
 Frequencies --   1532.9869              1538.3786              1544.8793
 Red. masses --      1.0671                 1.0784                 1.0649
 Frc consts  --      1.4775                 1.5037                 1.4974
 IR Inten    --      6.7806                 2.5771                 5.9617

                     91                     92                     93
                      A                      A                      A
 Frequencies --   1621.8188              1773.3871              2980.7852
 Red. masses --      6.5961                 7.6779                 1.0736
 Frc consts  --     10.2222                14.2265                 5.6201
 IR Inten    --      0.5358               329.3327                38.7689

                     94                     95                     96
                      A                      A                      A
 Frequencies --   3014.3406              3030.8828              3039.0086
 Red. masses --      1.0831                 1.0618                 1.0442
 Frc consts  --      5.7981                 5.7468                 5.6821
 IR Inten    --     19.4296                32.1962                45.4341

                     97                     98                     99
                      A                      A                      A
 Frequencies --   3040.7284              3046.6625              3050.9043
 Red. masses --      1.0670                 1.0368                 1.0379
 Frc consts  --      5.8128                 5.6700                 5.6922
 IR Inten    --     52.5114                20.8716                24.4724

                    100                    101                    102
                      A                      A                      A
 Frequencies --   3057.5801              3068.9812              3085.0262
 Red. masses --      1.0668                 1.0999                 1.0834
 Frc consts  --      5.8762                 6.1035                 6.0752
 IR Inten    --     24.5652                29.7609                 8.2365

                    103                    104                    105
                      A                      A                      A
 Frequencies --   3102.7048              3110.9396              3114.8023
 Red. masses --      1.0948                 1.0884                 1.1005
 Frc consts  --      6.2099                 6.2064                 6.2908
 IR Inten    --     38.4209                43.9371                 2.9485

                    106                    107                    108
                      A                      A                      A
 Frequencies --   3118.7214              3120.7546              3124.3773
 Red. masses --      1.1005                 1.0957                 1.1014
 Frc consts  --      6.3064                 6.2871                 6.3348
 IR Inten    --     20.1999                20.7151                44.8447

                    109                    110                    111
                      A                      A                      A
 Frequencies --   3125.8105              3138.3189              3138.9153
 Red. masses --      1.1008                 1.1036                 1.0980
 Frc consts  --      6.3373                 6.4040                 6.3740
 IR Inten    --     39.3267                29.6970                19.2087

                    112                    113                    114
                      A                      A                      A
 Frequencies --   3226.4407              3272.0242              3555.0827
 Red. masses --      1.0902                 1.0970                 1.0750
 Frc consts  --      6.6869                 6.9199                 8.0048
 IR Inten    --      6.0871                 1.4174                12.6502

 - Thermochemistry -
 -------------------
 Temperature   298.150 Kelvin.  Pressure   1.00000 Atm.
 Atom     1 has atomic number  6 and mass  12.00000

 Molecular mass:   266.14529 amu.
 Principal axes and moments of inertia in atomic units:
                           1         2         3
     Eigenvalues --  2557.424488913.10196**********
           X            0.99940  -0.03457   0.00245
           Y            0.03456   0.99939   0.00429
           Z           -0.00260  -0.00421   0.99999
 This molecule is an asymmetric top.
 Rotational symmetry number  1.
 Warning -- assumption of classical behavior for rotation
           may cause significant error
 Rotational temperatures (Kelvin)      0.03387     0.00972     0.00816
 Rotational constants (GHZ):           0.70569     0.20248     0.16993
 Zero-point vibrational energy     912970.7 (Joules/Mol)
                                  218.20524 (Kcal/Mol)
 Warning -- explicit consideration of  29 degrees of freedom as
           vibrations may cause significant error
 Vibrational temperatures:     21.28    47.76    74.81    96.88   117.39
          (Kelvin)            119.35   158.17   205.04   215.34   265.18
                              293.58   317.34   340.36   357.16   395.48
                              413.08   448.66   464.05   494.17   558.98
                              587.46   599.82   650.12   687.97   700.26
                              724.93   751.45   782.21   844.45   919.34
                              942.45   969.27  1036.56  1045.85  1073.53
                             1155.69  1181.31  1208.33  1232.93  1274.99
                             1284.49  1293.04  1330.38  1358.21  1388.89
                             1393.44  1444.24  1458.82  1480.23  1525.60
                             1534.03  1596.34  1609.55  1619.74  1659.94
                             1667.48  1678.74  1727.59  1742.95  1749.53
                             1770.04  1815.04  1839.17  1867.88  1928.05
                             1960.42  1963.71  1979.57  1981.09  1991.15
                             1997.13  2022.41  2038.13  2051.85  2057.90
                             2069.77  2084.53  2089.07  2139.76  2163.23
                             2169.53  2176.44  2178.81  2184.34  2194.33
                             2202.54  2203.46  2205.63  2213.38  2222.74
                             2333.44  2551.51  4288.69  4336.96  4360.76
                             4372.46  4374.93  4383.47  4389.57  4399.18
                             4415.58  4438.66  4464.10  4475.95  4481.51
                             4487.14  4490.07  4495.28  4497.34  4515.34
                             4516.20  4642.13  4707.71  5114.97

 Zero-point correction=                           0.347732 (Hartree/Particle)
 Thermal correction to Energy=                    0.366571
 Thermal correction to Enthalpy=                  0.367516
 Thermal correction to Gibbs Free Energy=         0.299222
 Sum of electronic and zero-point Energies=          -1129.382952
 Sum of electronic and thermal Energies=             -1129.364113
 Sum of electronic and thermal Enthalpies=           -1129.363168
 Sum of electronic and thermal Free Energies=        -1129.431462

                     E (Thermal)             CV                S
                      KCal/Mol        Cal/Mol-Kelvin    Cal/Mol-Kelvin
 Total                  230.027             71.475            143.735
 Electronic               0.000              0.000              0.000
 Translational            0.889              2.981             42.636
 Rotational               0.889              2.981             33.848
 Vibrational            228.250             65.513             67.251
 Vibration     1          0.593              1.986              7.234
 Vibration     2          0.594              1.983              5.629
 Vibration     3          0.596              1.977              4.740
 Vibration     4          0.598              1.970              4.230
 Vibration     5          0.600              1.962              3.852
 Vibration     6          0.600              1.961              3.820
 Vibration     7          0.606              1.941              3.270
 Vibration     8          0.616              1.911              2.770
 Vibration     9          0.618              1.903              2.676
 Vibration    10          0.631              1.861              2.284
 Vibration    11          0.640              1.834              2.096
 Vibration    12          0.647              1.810              1.954
 Vibration    13          0.655              1.785              1.829
 Vibration    14          0.662              1.766              1.743
 Vibration    15          0.677              1.720              1.565
 Vibration    16          0.684              1.698              1.491
 Vibration    17          0.700              1.651              1.353
 Vibration    18          0.708              1.630              1.297
 Vibration    19          0.722              1.589              1.196
 Vibration    20          0.757              1.495              1.006
 Vibration    21          0.773              1.452              0.933
 Vibration    22          0.780              1.434              0.903
 Vibration    23          0.811              1.357              0.790
 Vibration    24          0.835              1.298              0.715
 Vibration    25          0.843              1.280              0.692
 Vibration    26          0.859              1.241              0.649
 Vibration    27          0.877              1.201              0.605
 Vibration    28          0.899              1.154              0.557
 Vibration    29          0.944              1.060              0.473

 Optimization completed on the basis of negligible forces.
    -- Stationary point found.
 Normal termination of Gaussian 16 at Mon Jan  4 10:49:53 2021.

 ----------------------------------------------------------------------
 # B3LYP/6-311++G(d,p) empiricaldispersion=gd3bj scf=xqc pop=npa geom=c
 heck
 ----------------------------------------------------------------------

 ---------------------------------------
 CID_102555916_JID_8522_Energie_neutraal
 ---------------------------------------
 Structure from the checkpoint file:  "JID_8522.chk"
 Charge =  0 Multiplicity = 1

 SCF Done:  E(RB3LYP) =  -1129.95974225     A.U. after   15 cycles
 Normal termination of Gaussian 16 at Mon Jan  4 10:57:51 2021.

 ----------------------------------------------------------------------
 # B3LYP/6-311++G(d,p) empiricaldispersion=gd3bj scf=xqc pop=npa geom=c
 heck
 ----------------------------------------------------------------------

 -------------------------------------
 CID_102555916_JID_8522_Energie_kation
 -------------------------------------
 Structure from the checkpoint file:  "JID_8522.chk"
 Charge =  1 Multiplicity = 2

 SCF Done:  E(UB3LYP) =  -1129.69056882     A.U. after   29 cycles
 Normal termination of Gaussian 16 at Mon Jan  4 11:18:48 2021.
 Gaussian 16:  ES64L-G16RevA.03 25-Dec-2016

 ----------------------------------------------------------------------
 # B3LYP/6-311++G(d,p) empiricaldispersion=gd3bj scf=xqc pop=npa geom=c
 heck
 ----------------------------------------------------------------------

 ------------------------------------
 CID_102555916_JID_8522_Energie_anion
 ------------------------------------
 Structure from the checkpoint file:  "JID_8522.chk"
 Charge = -1 Multiplicity = 2

                         Standard orientation:
 ---------------------------------------------------------------------
 Center     Atomic      Atomic             Coordinates (Angstroms)
 Number     Number       Type             X           Y           Z
 ---------------------------------------------------------------------
      1          6           0       -2.054863    3.103152   -0.578678
      2          6           0       -0.926033    2.070098   -0.609236
      3          6           0       -1.023776    0.979750    0.487527
      4          6           0       -2.277130    0.140444    0.352381
      5          6           0       -2.230517   -1.142844   -0.124761
      6          6           0       -0.973932   -1.885625   -0.461654
      7          6           0        0.195388   -0.892935   -0.552864
      8          7           0        0.127426    0.062915    0.545228
      9          6           0        1.394344    0.594998    1.024759
     10          6           0        2.364203    1.132425   -0.046330
     11          8           0        2.228336    2.243917   -0.549404
     12          7           0        3.367000    0.301371   -0.476032
     13          6           0        3.908226   -0.910641    0.144599
     14          6           0        4.604493   -1.741757   -0.935047
     15          6           0        4.849178   -0.580486    1.309985
     16         16           0       -3.820202   -1.861585   -0.188281
     17          6           0       -4.546315   -0.411890    0.442598
     18          6           0       -3.611527    0.554205    0.680459
     19          1           0       -3.022755    2.665324   -0.841173
     20          1           0       -1.850683    3.911030   -1.289718
     21          1           0       -2.150562    3.558983    0.415918
     22          1           0       -0.908761    1.581557   -1.591450
     23          1           0        0.037325    2.572890   -0.494417
     24          1           0       -1.056581    1.490904    1.460740
     25          1           0       -1.068951   -2.436606   -1.405968
     26          1           0       -0.760493   -2.625000    0.322421
     27          1           0        0.193105   -0.402721   -1.540962
     28          1           0        1.137653   -1.442768   -0.480915
     29          1           0        1.180227    1.437143    1.687936
     30          1           0        1.889532   -0.174348    1.630320
     31          1           0        3.969121    0.758132   -1.154267
     32          1           0        3.065187   -1.493586    0.526702
     33          1           0        5.450637   -1.190351   -1.364504
     34          1           0        4.995391   -2.671918   -0.511022
     35          1           0        3.910525   -1.989768   -1.744140
     36          1           0        4.329845    0.001417    2.078643
     37          1           0        5.234286   -1.496194    1.772844
     38          1           0        5.702368    0.011075    0.958010
     39          1           0       -5.615325   -0.362464    0.597015
     40          1           0       -3.855954    1.527926    1.088912
 ---------------------------------------------------------------------

 SCF Done:  E(UB3LYP) =  -1129.94985796     A.U. after   33 cycles
 SCF Done:  E(UB3LYP) =  -1129.94985796     a.u. after    1 cycles

 The electronic state is 2-A.
 Alpha  occ. eigenvalues --  -88.78637 -18.99326 -14.23919 -14.21654 -10.17594
 Alpha  occ. eigenvalues --  -10.12066 -10.11912 -10.11167 -10.11152 -10.11090
 Alpha  occ. eigenvalues --  -10.10526 -10.09148 -10.08856 -10.08821 -10.07605
 Alpha  occ. eigenvalues --  -10.06797 -10.06595 -10.06519  -7.87259  -5.83547
 Alpha  occ. eigenvalues --   -5.83187  -5.82856  -0.94431  -0.84441  -0.82878
 Alpha  occ. eigenvalues --   -0.79170  -0.70382  -0.69520  -0.68167  -0.65132
 Alpha  occ. eigenvalues --   -0.63157  -0.61904  -0.59640  -0.56221  -0.53366
 Alpha  occ. eigenvalues --   -0.52024  -0.50308  -0.48686  -0.47096  -0.42274
 Alpha  occ. eigenvalues --   -0.41809  -0.40406  -0.39062  -0.38479  -0.37588
 Alpha  occ. eigenvalues --   -0.36269  -0.35693  -0.34796  -0.33679  -0.33137
 Alpha  occ. eigenvalues --   -0.32811  -0.31672  -0.31135  -0.30559  -0.29708
 Alpha  occ. eigenvalues --   -0.29268  -0.29042  -0.28434  -0.28302  -0.26889
 Alpha  occ. eigenvalues --   -0.26576  -0.26208  -0.25885  -0.25749  -0.25411
 Alpha  occ. eigenvalues --   -0.24581  -0.23171  -0.17578  -0.16345  -0.15937
 Alpha  occ. eigenvalues --   -0.14129  -0.11514   0.04198
 Alpha virt. eigenvalues --    0.05950   0.06229   0.07026   0.07049   0.07522
 Alpha virt. eigenvalues --    0.08374   0.08470   0.09160   0.09319   0.09808
 Alpha virt. eigenvalues --    0.10080   0.10407   0.10861   0.11204   0.11447

  Beta  occ. eigenvalues --  -88.78632 -18.99320 -14.23910 -14.21654 -10.17582
  Beta  occ. eigenvalues --  -10.12046 -10.11905 -10.11152 -10.11120 -10.11073
  Beta  occ. eigenvalues --  -10.10508 -10.09143 -10.08837 -10.08819 -10.07603
  Beta  occ. eigenvalues --  -10.06795 -10.06540 -10.06471  -7.87255  -5.83543
  Beta  occ. eigenvalues --   -5.83184  -5.82845  -0.94414  -0.84431  -0.82853
  Beta  occ. eigenvalues --   -0.79140  -0.70365  -0.69484  -0.68116  -0.65115
  Beta  occ. eigenvalues --   -0.63122  -0.61867  -0.59546  -0.56190  -0.53329
  Beta  occ. eigenvalues --   -0.51938  -0.50281  -0.48641  -0.47054  -0.42244
  Beta  occ. eigenvalues --   -0.41788  -0.40368  -0.39026  -0.38437  -0.37557
  Beta  occ. eigenvalues --   -0.36251  -0.35628  -0.34772  -0.33649  -0.33115
  Beta  occ. eigenvalues --   -0.32768  -0.31645  -0.31092  -0.30519  -0.29671
  Beta  occ. eigenvalues --   -0.29235  -0.29007  -0.28388  -0.28264  -0.26848
  Beta  occ. eigenvalues --   -0.26555  -0.26165  -0.25842  -0.25716  -0.25359
  Beta  occ. eigenvalues --   -0.24536  -0.23151  -0.17566  -0.16289  -0.15911
  Beta  occ. eigenvalues --   -0.14016  -0.11501
  Beta virt. eigenvalues --    0.05860   0.06500   0.06722   0.07190   0.07548
  Beta virt. eigenvalues --    0.07907   0.08636   0.09094   0.09465   0.09518
  Beta virt. eigenvalues --    0.09814   0.10469   0.10731   0.11101   0.11233

 Mulliken charges and spin densities:
               1          2
     1  C   -0.668501  -0.084072
     2  C   -0.119836  -0.054869
     3  C    0.157101  -0.689648
     4  C   -0.316364   0.043535
     5  C   -0.584761   1.966746
     6  C    1.405421  -2.321854
     7  C   -0.849446   0.884563
     8  N    0.207632   0.112224
     9  C    0.798702  -0.933536
    10  C   -0.474926   0.431413
    11  O   -0.317808  -0.002300
    12  N   -0.032536  -0.051086
    13  C   -1.293063   1.371197
    14  C    1.292585  -1.852591
    15  C    1.254197  -1.766424
    16  S   -0.395934  -0.246136
    17  C   -0.299478   0.161602
    18  C   -0.103891  -0.337426
    19  H    0.142896   0.002937
    20  H    0.113288   0.018432
    21  H    0.119718   0.025124
    22  H    0.107096   0.031097
    23  H    0.256355  -0.034129
    24  H    0.036664   0.165841
    25  H   -0.051129   0.228957
    26  H   -0.300773   0.504245
    27  H    0.077093   0.071764
    28  H    0.383064  -0.272403
    29  H    0.087912   0.083777
    30  H   -0.079573   0.319381
    31  H    0.248215   0.030859
    32  H   -0.104288   0.234127
    33  H   -0.276265   0.410684
    34  H   -0.413798   0.584371
    35  H   -0.469650   0.619829
    36  H   -0.232681   0.368850
    37  H   -0.398870   0.551744
    38  H   -0.149635   0.303189
    39  H    0.173552   0.050614
    40  H    0.071716   0.069373
 Sum of Mulliken charges =  -1.00000   1.00000

 Dipole moment (field-independent basis, Debye):
    X=            -10.4994    Y=              5.1243    Z=             -0.9967  Tot=             11.7256
 Quadrupole moment (field-independent basis, Debye-Ang):
   XX=           -213.0938   YY=           -173.1200   ZZ=           -153.1915
   XY=             15.7799   XZ=             -4.5102   YZ=              4.3025

 Summary of Natural Population Analysis:

                                       Natural Population
                Natural  -----------------------------------------------
    Atom  No    Charge         Core      Valence    Rydberg      Total
 -----------------------------------------------------------------------
      C    1   -0.28692      0.99967     2.28310    0.00415     3.28692
      C    2   -0.20583      0.99960     2.19913    0.00710     3.20583
      C    3    0.00366      0.99954     1.98424    0.01257     2.99634
      C    4   -0.04774      0.99939     2.03617    0.01218     3.04774
      C    5   -0.08587      0.99939     2.07357    0.01291     3.08587
      C    6   -0.20451      0.99957     2.19437    0.01057     3.20451
      C    7   -0.07948      0.99960     2.06852    0.01136     3.07948
      N    8   -0.27919      0.99971     2.76579    0.01369     3.77919
      C    9   -0.11991      0.99956     2.10889    0.01146     3.11991
      C   10    0.33979      0.99967     1.63851    0.02203     2.66021
      O   11   -0.32988      0.99987     3.32419    0.00582     4.32988
      N   12   -0.31779      0.99966     2.80762    0.01051     3.81779
      C   13   -0.01788      0.99961     2.00666    0.01161     3.01788
      C   14   -0.28570      0.99965     2.27962    0.00643     3.28570
      C   15   -0.28752      0.99964     2.28214    0.00573     3.28752
      S   16    0.19911      4.99941     2.78127    0.02021     7.80089
      C   17   -0.19395      0.99954     2.18288    0.01153     3.19395
      C   18   -0.12203      0.99949     2.11359    0.00894     3.12203
      H   19    0.09747      0.00000     0.40142    0.00111     0.40253
      H   20    0.09839      0.00000     0.40079    0.00082     0.40161
      H   21    0.09225      0.00000     0.40678    0.00096     0.40775
      H   22    0.09475      0.00000     0.40408    0.00118     0.40525
      H   23    0.11805      0.00000     0.38040    0.00155     0.38195
      H   24    0.09751      0.00000     0.40085    0.00164     0.40249
      H   25    0.10426      0.00000     0.39464    0.00111     0.39574
      H   26    0.10944      0.00000     0.38844    0.00212     0.39056
      H   27    0.08387      0.00000     0.41461    0.00151     0.41613
      H   28    0.10312      0.00000     0.39446    0.00242     0.39688
      H   29    0.10668      0.00000     0.39225    0.00107     0.39332
      H   30    0.09983      0.00000     0.39825    0.00192     0.40017
      H   31    0.19159      0.00000     0.30599    0.00242     0.30841
      H   32    0.09809      0.00000     0.39824    0.00367     0.40191
      H   33    0.09635      0.00000     0.40213    0.00152     0.40365
      H   34    0.10860      0.00000     0.38917    0.00222     0.39140
      H   35    0.10402      0.00000     0.39422    0.00175     0.39598
      H   36    0.09960      0.00000     0.39911    0.00129     0.40040
      H   37    0.10624      0.00000     0.39193    0.00183     0.39376
      H   38    0.09843      0.00000     0.40036    0.00121     0.40157
      H   39    0.10653      0.00000     0.39272    0.00074     0.39347
      H   40    0.10655      0.00000     0.39253    0.00093     0.39345
 =======================================================================
   * Total *    0.00000     21.99257    49.77363    0.23379    72.00000

 Normal termination of Gaussian 16 at Mon Jan  4 11:42:58 2021.
