 Gaussian 16, Revision A.03,

 -----------------------------------------------------------
 # opt freq B3LYP/6-31G(d) empiricaldispersion=gd3bj scf=xqc
 -----------------------------------------------------------

 -------------------------------
 CID_151407649_JID_2192_neutraal
 -------------------------------
 Symbolic Z-matrix:
 Charge =  0 Multiplicity = 1

 SCF Done:  E(RB3LYP) =  -584.081911882     A.U. after   17 cycles
 SCF Done:  E(RB3LYP) =  -584.092881787     A.U. after   15 cycles
 SCF Done:  E(RB3LYP) =  -584.100907103     A.U. after   15 cycles
 SCF Done:  E(RB3LYP) =  -584.104478090     A.U. after   14 cycles
 SCF Done:  E(RB3LYP) =  -584.106403593     A.U. after   14 cycles
 SCF Done:  E(RB3LYP) =  -584.107662980     A.U. after   14 cycles
 SCF Done:  E(RB3LYP) =  -584.108253196     A.U. after   15 cycles
 SCF Done:  E(RB3LYP) =  -584.108624465     A.U. after   13 cycles
 SCF Done:  E(RB3LYP) =  -584.108801737     A.U. after   14 cycles
 SCF Done:  E(RB3LYP) =  -584.108939959     A.U. after   14 cycles
 SCF Done:  E(RB3LYP) =  -584.109261621     A.U. after   13 cycles
 SCF Done:  E(RB3LYP) =  -584.109269455     A.U. after   10 cycles
 SCF Done:  E(RB3LYP) =  -584.109270974     A.U. after    8 cycles
 SCF Done:  E(RB3LYP) =  -584.109271629     A.U. after    8 cycles
 SCF Done:  E(RB3LYP) =  -584.109271702     A.U. after    8 cycles
 SCF Done:  E(RB3LYP) =  -584.109271782     A.U. after    8 cycles
 Optimization completed.
    -- Stationary point found.
 Normal termination of Gaussian 16 at Wed Dec  9 16:55:15 2020.

 --------------------------------------------------------------------
 #N Geom=AllCheck Guess=TCheck SCRF=Check GenChk RB3LYP/6-31G(d) Freq
 --------------------------------------------------------------------

 Structure from the checkpoint file:  "JID_2192.chk"
 -------------------------------
 CID_151407649_JID_2192_neutraal
 -------------------------------
 Charge =  0 Multiplicity = 1

 SCF Done:  E(RB3LYP) =  -584.109271782     A.U. after    1 cycles

  Exact polarizability:  97.237  -1.147 136.504   4.138  -5.718  71.225
 Approx polarizability: 130.651 -12.002 225.237  14.703 -23.778 116.838

                      1                      2                      3
                      A                      A                      A
 Frequencies --     37.5390                47.9414                90.8917
 Red. masses --      8.2804                 3.2439                 3.2586
 Frc consts  --      0.0069                 0.0044                 0.0159
 IR Inten    --      0.0531                 0.6111                 1.6056

                      4                      5                      6
                      A                      A                      A
 Frequencies --    112.5926               141.9503               188.5476
 Red. masses --      3.6378                 4.0666                 7.6377
 Frc consts  --      0.0272                 0.0483                 0.1600
 IR Inten    --      1.9593                 1.5160                 1.4062

                      7                      8                      9
                      A                      A                      A
 Frequencies --    229.3416               253.1664               253.6339
 Red. masses --      2.9045                 1.8526                 1.5449
 Frc consts  --      0.0900                 0.0700                 0.0586
 IR Inten    --      0.5512                 1.8840                 1.2399

                     10                     11                     12
                      A                      A                      A
 Frequencies --    285.7863               335.3783               398.2909
 Red. masses --      1.0390                 2.7943                 2.7373
 Frc consts  --      0.0500                 0.1852                 0.2558
 IR Inten    --      0.1932                 3.0456                 4.6943

                     13                     14                     15
                      A                      A                      A
 Frequencies --    428.6146               456.1312               521.7740
 Red. masses --      3.5985                 7.0075                 3.7138
 Frc consts  --      0.3895                 0.8590                 0.5957
 IR Inten    --      2.5660                 4.5210                29.8155

                     16                     17                     18
                      A                      A                      A
 Frequencies --    563.1020               574.1263               617.5151
 Red. masses --      3.8571                 7.8925                 7.7900
 Frc consts  --      0.7206                 1.5328                 1.7502
 IR Inten    --     26.4029                 8.6237                 2.6826

                     19                     20                     21
                      A                      A                      A
 Frequencies --    726.7302               756.4867               775.6936
 Red. masses --      2.8241                 5.6591                 2.8598
 Frc consts  --      0.8788                 1.9081                 1.0138
 IR Inten    --      4.3581                28.8452                 6.8627

                     22                     23                     24
                      A                      A                      A
 Frequencies --    785.2815               824.3624               838.2449
 Red. masses --      1.9184                 3.0182                 6.8555
 Frc consts  --      0.6970                 1.2085                 2.8381
 IR Inten    --     38.7146                16.2809                22.0143

                     25                     26                     27
                      A                      A                      A
 Frequencies --    939.7487               945.3793               952.1468
 Red. masses --      2.8853                 1.2777                 1.6853
 Frc consts  --      1.5013                 0.6728                 0.9002
 IR Inten    --     29.5702                 1.5199                14.2110

                     28                     29                     30
                      A                      A                      A
 Frequencies --    953.9973               980.6319              1006.0363
 Red. masses --      1.4856                 2.0788                 5.1528
 Frc consts  --      0.7966                 1.1778                 3.0727
 IR Inten    --      5.6651                 6.5033                14.6210

                     31                     32                     33
                      A                      A                      A
 Frequencies --   1053.0479              1088.1019              1161.0103
 Red. masses --      2.7630                 1.8407                 1.9766
 Frc consts  --      1.8052                 1.2840                 1.5698
 IR Inten    --     21.2281                28.3814                29.4406

                     34                     35                     36
                      A                      A                      A
 Frequencies --   1172.8113              1214.2487              1235.6247
 Red. masses --      2.0152                 2.0224                 1.3184
 Frc consts  --      1.6331                 1.7568                 1.1860
 IR Inten    --     58.0493                17.2600                46.6262

                     37                     38                     39
                      A                      A                      A
 Frequencies --   1251.4770              1267.9519              1279.9999
 Red. masses --      9.1374                 3.4144                 1.9583
 Frc consts  --      8.4318                 3.2342                 1.8904
 IR Inten    --     97.4187               176.3044                52.3219

                     40                     41                     42
                      A                      A                      A
 Frequencies --   1360.1070              1387.4418              1424.4033
 Red. masses --      1.5481                 1.3361                 1.3282
 Frc consts  --      1.6873                 1.5153                 1.5877
 IR Inten    --     20.4004                 4.2504                12.3209

                     43                     44                     45
                      A                      A                      A
 Frequencies --   1428.2858              1442.9594              1483.5976
 Red. masses --      1.3395                 1.2489                 1.1007
 Frc consts  --      1.6100                 1.5322                 1.4275
 IR Inten    --     16.2816                14.0675                 4.6055

                     46                     47                     48
                      A                      A                      A
 Frequencies --   1510.6165              1522.5704              1524.5945
 Red. masses --      1.0475                 1.0506                 1.0466
 Frc consts  --      1.4084                 1.4350                 1.4333
 IR Inten    --      0.8682                 1.3823                 4.8931

                     49                     50                     51
                      A                      A                      A
 Frequencies --   1538.1654              1544.1318              1751.9207
 Red. masses --      1.0903                 1.0535                 8.2898
 Frc consts  --      1.5198                 1.4800                14.9908
 IR Inten    --      0.8663                 6.3967               158.6794

                     52                     53                     54
                      A                      A                      A
 Frequencies --   2222.7177              3024.5607              3059.2583
 Red. masses --     13.9367                 1.0683                 1.0359
 Frc consts  --     40.5675                 5.7579                 5.7119
 IR Inten    --    572.4233                68.5729                13.7052

                     55                     56                     57
                      A                      A                      A
 Frequencies --   3064.2713              3076.5587              3084.0049
 Red. masses --      1.0380                 1.0965                 1.0865
 Frc consts  --      5.7428                 6.1148                 6.0885
 IR Inten    --     12.3392                28.9339                21.5222

                     58                     59                     60
                      A                      A                      A
 Frequencies --   3129.3921              3134.0712              3138.6845
 Red. masses --      1.1001                 1.1006                 1.1031
 Frc consts  --      6.3474                 6.3695                 6.4024
 IR Inten    --      3.0287                43.4879                28.7384

                     61                     62                     63
                      A                      A                      A
 Frequencies --   3159.2973              3266.6523              3514.5551
 Red. masses --      1.1030                 1.0962                 1.0762
 Frc consts  --      6.4867                 6.8917                 7.8324
 IR Inten    --     22.7105                 2.4432                 1.4485

 - Thermochemistry -
 -------------------
 Temperature   298.150 Kelvin.  Pressure   1.00000 Atm.
 Atom     1 has atomic number  6 and mass  12.00000

 Molecular mass:   169.09636 amu.
 Principal axes and moments of inertia in atomic units:
                           1         2         3
     Eigenvalues --  1675.872511894.145783069.85788
           X            0.94190   0.33559  -0.01454
           Y           -0.33554   0.94201   0.00567
           Z            0.01560  -0.00046   0.99988
 This molecule is an asymmetric top.
 Rotational symmetry number  1.
 Warning -- assumption of classical behavior for rotation
           may cause significant error
 Rotational temperatures (Kelvin)      0.05168     0.04573     0.02821
 Rotational constants (GHZ):           1.07690     0.95280     0.58789
 Zero-point vibrational energy     487706.5 (Joules/Mol)
                                  116.56464 (Kcal/Mol)
 Warning -- explicit consideration of  18 degrees of freedom as
           vibrations may cause significant error
 Vibrational temperatures:     54.01    68.98   130.77   162.00   204.23
          (Kelvin)            271.28   329.97   364.25   364.92   411.18
                              482.53   573.05   616.68   656.27   750.72
                              810.18   826.04   888.47  1045.60  1088.42
                             1116.05  1129.84  1186.07  1206.05  1352.09
                             1360.19  1369.93  1372.59  1410.91  1447.46
                             1515.10  1565.54  1670.43  1687.41  1747.03
                             1777.79  1800.60  1824.30  1841.63  1956.89
                             1996.22  2049.40  2054.98  2076.10  2134.57
                             2173.44  2190.64  2193.55  2213.08  2221.66
                             2520.62  3198.00  4351.67  4401.59  4408.80
                             4426.48  4437.20  4502.50  4509.23  4515.87
                             4545.52  4699.98  5056.66

 Zero-point correction=                           0.185758 (Hartree/Particle)
 Thermal correction to Energy=                    0.197840
 Thermal correction to Enthalpy=                  0.198784
 Thermal correction to Gibbs Free Energy=         0.146832
 Sum of electronic and zero-point Energies=           -583.923514
 Sum of electronic and thermal Energies=              -583.911432
 Sum of electronic and thermal Enthalpies=            -583.910488
 Sum of electronic and thermal Free Energies=         -583.962439

                     E (Thermal)             CV                S
                      KCal/Mol        Cal/Mol-Kelvin    Cal/Mol-Kelvin
 Total                  124.146             44.331            109.341
 Electronic               0.000              0.000              0.000
 Translational            0.889              2.981             41.284
 Rotational               0.889              2.981             30.656
 Vibrational            122.369             38.369             37.402
 Vibration     1          0.594              1.982              5.385
 Vibration     2          0.595              1.978              4.901
 Vibration     3          0.602              1.956              3.641
 Vibration     4          0.607              1.939              3.224
 Vibration     5          0.615              1.911              2.777
 Vibration     6          0.633              1.856              2.242
 Vibration     7          0.652              1.796              1.884
 Vibration     8          0.664              1.757              1.708
 Vibration     9          0.665              1.757              1.705
 Vibration    10          0.684              1.700              1.499
 Vibration    11          0.716              1.605              1.234
 Vibration    12          0.765              1.474              0.969
 Vibration    13          0.790              1.408              0.863
 Vibration    14          0.814              1.347              0.777
 Vibration    15          0.877              1.202              0.606
 Vibration    16          0.919              1.111              0.518
 Vibration    17          0.930              1.087              0.496
 Vibration    18          0.977              0.995              0.420

 Optimization completed.
    -- Stationary point found.
 Normal termination of Gaussian 16 at Wed Dec  9 17:00:23 2020.

 ----------------------------------------------------------------------
 # B3LYP/6-311++G(d,p) empiricaldispersion=gd3bj scf=xqc pop=npa geom=c
 heck
 ----------------------------------------------------------------------

 ---------------------------------------
 CID_151407649_JID_2192_Energie_neutraal
 ---------------------------------------
 Structure from the checkpoint file:  "JID_2192.chk"
 Charge =  0 Multiplicity = 1

 SCF Done:  E(RB3LYP) =  -584.276185108     A.U. after   16 cycles
 Normal termination of Gaussian 16 at Wed Dec  9 17:02:41 2020.

 ----------------------------------------------------------------------
 # B3LYP/6-311++G(d,p) empiricaldispersion=gd3bj scf=xqc pop=npa geom=c
 heck
 ----------------------------------------------------------------------

 -------------------------------------
 CID_151407649_JID_2192_Energie_kation
 -------------------------------------
 Structure from the checkpoint file:  "JID_2192.chk"
 Charge =  1 Multiplicity = 2

 SCF Done:  E(UB3LYP) =  -583.976274512     A.U. after   24 cycles
 Normal termination of Gaussian 16 at Wed Dec  9 17:07:33 2020.
 Gaussian 16:  ES64L-G16RevA.03 25-Dec-2016

 ----------------------------------------------------------------------
 # B3LYP/6-311++G(d,p) empiricaldispersion=gd3bj scf=xqc pop=npa geom=c
 heck
 ----------------------------------------------------------------------

 ------------------------------------
 CID_151407649_JID_2192_Energie_anion
 ------------------------------------
 Structure from the checkpoint file:  "JID_2192.chk"
 Charge = -1 Multiplicity = 2

                         Standard orientation:
 ---------------------------------------------------------------------
 Center     Atomic      Atomic             Coordinates (Angstroms)
 Number     Number       Type             X           Y           Z
 ---------------------------------------------------------------------
      1          6           0       -1.744836   -1.805404   -0.012981
      2          6           0       -2.233320   -0.375729   -0.221896
      3          6           0       -2.574298    0.342447    1.077927
      4          8           0       -1.305754    0.406844   -1.035672
      5          6           0       -0.235138    0.964118   -0.453157
      6          6           0        0.175781    2.232979   -0.521329
      7          6           0        1.523789    2.341982    0.134529
      8          7           0        1.692570    1.020489    0.800438
      9          7           0        0.684891    0.132819    0.292617
     10          7           0        1.306887   -0.784693   -0.706221
     11          7           0        1.673294   -1.825465   -0.134209
     12          7           0        2.063505   -2.816231    0.276072
     13          1           0       -0.928566   -1.844494    0.712194
     14          1           0       -1.398893   -2.231411   -0.958792
     15          1           0       -2.569570   -2.421152    0.364111
     16          1           0       -3.118629   -0.397112   -0.864706
     17          1           0       -1.709168    0.369426    1.748136
     18          1           0       -2.900138    1.368902    0.883180
     19          1           0       -3.384251   -0.187458    1.590323
     20          1           0       -0.360625    3.038676   -1.003067
     21          1           0        1.583611    3.132199    0.892016
     22          1           0        2.333221    2.520408   -0.588179
     23          1           0        1.479149    1.106476    1.790728
 ---------------------------------------------------------------------

 SCF Done:  E(UB3LYP) =  -584.271865111     A.U. after   31 cycles

 The electronic state is 2-A.
 Alpha  occ. eigenvalues --  -19.03428 -14.30332 -14.24929 -14.22373 -14.21749
 Alpha  occ. eigenvalues --  -14.21742 -10.13330 -10.12435 -10.09122 -10.05637
 Alpha  occ. eigenvalues --  -10.04964 -10.04620  -0.98632  -0.95661  -0.89268
 Alpha  occ. eigenvalues --   -0.81061  -0.69389  -0.67325  -0.64943  -0.58683
 Alpha  occ. eigenvalues --   -0.53599  -0.50854  -0.45414  -0.41156  -0.40622
 Alpha  occ. eigenvalues --   -0.38007  -0.36471  -0.35993  -0.34477  -0.33752
 Alpha  occ. eigenvalues --   -0.31872  -0.30774  -0.30263  -0.29625  -0.28802
 Alpha  occ. eigenvalues --   -0.28230  -0.26664  -0.25367  -0.23420  -0.21901
 Alpha  occ. eigenvalues --   -0.19773  -0.16089  -0.14064  -0.11523  -0.09495
 Alpha  occ. eigenvalues --    0.04755
 Alpha virt. eigenvalues --    0.06681   0.07146   0.08822   0.09420   0.10220
 Alpha virt. eigenvalues --    0.10792   0.11348   0.11910   0.12920   0.13539
 Alpha virt. eigenvalues --    0.14286   0.15029   0.15519   0.15983   0.16585

  Beta  occ. eigenvalues --  -19.03432 -14.29977 -14.24729 -14.22416 -14.21740
  Beta  occ. eigenvalues --  -14.21202 -10.13327 -10.12424 -10.09107 -10.05604
  Beta  occ. eigenvalues --  -10.04953 -10.04571  -0.97965  -0.95590  -0.89029
  Beta  occ. eigenvalues --   -0.80728  -0.69322  -0.67073  -0.64876  -0.58638
  Beta  occ. eigenvalues --   -0.53460  -0.50758  -0.45078  -0.41050  -0.40499
  Beta  occ. eigenvalues --   -0.37864  -0.36384  -0.34825  -0.34215  -0.33360
  Beta  occ. eigenvalues --   -0.31724  -0.30603  -0.29727  -0.29181  -0.28635
  Beta  occ. eigenvalues --   -0.28175  -0.26622  -0.25327  -0.23157  -0.21386
  Beta  occ. eigenvalues --   -0.19361  -0.15964  -0.13928  -0.11361  -0.09238
  Beta virt. eigenvalues --    0.07169   0.07927   0.09066   0.09690   0.10550
  Beta virt. eigenvalues --    0.10678   0.11108   0.11587   0.12079   0.13228
  Beta virt. eigenvalues --    0.13899   0.14477   0.14980   0.15711   0.16054

 Mulliken charges and spin densities:
               1          2
     1  C   -0.058565  -0.530897
     2  C   -0.842882   0.894094
     3  C    0.954814  -1.412314
     4  O   -0.102830   0.004386
     5  C   -0.625020   0.224868
     6  C    0.377251  -0.121816
     7  C    0.967554  -1.627167
     8  N   -0.240701   0.081425
     9  N    0.060840   0.052552
    10  N   -1.030448   0.155416
    11  N    0.583497   0.069707
    12  N    0.102552   0.264927
    13  H    0.151242  -0.013059
    14  H    0.130183   0.029743
    15  H   -0.098235   0.226670
    16  H   -0.370846   0.561211
    17  H   -0.115420   0.281455
    18  H   -0.046687   0.182233
    19  H   -0.265146   0.426476
    20  H   -0.439694   0.615812
    21  H   -0.339634   0.483206
    22  H    0.071227   0.077659
    23  H    0.176948   0.073413
 Sum of Mulliken charges =  -1.00000   1.00000

 Dipole moment (field-independent basis, Debye):
    X=             -0.3234    Y=              0.7701    Z=              0.2660  Tot=              0.8766
 Quadrupole moment (field-independent basis, Debye-Ang):
   XX=           -116.3609   YY=           -113.8002   ZZ=            -92.2100
   XY=              6.9783   XZ=              2.3813   YZ=              0.9599

 Summary of Natural Population Analysis:

                                       Natural Population
                Natural  -----------------------------------------------
    Atom  No    Charge         Core      Valence    Rydberg      Total
 -----------------------------------------------------------------------
      C    1   -0.30162      0.99964     2.29503    0.00695     3.30162
      C    2    0.06692      0.99954     1.91939    0.01415     2.93308
      C    3   -0.30173      0.99964     2.29657    0.00551     3.30173
      O    4   -0.28644      0.99984     3.27600    0.01060     4.28644
      C    5    0.24857      0.99933     1.73122    0.02088     2.75143
      C    6   -0.15202      0.99944     2.14328    0.00930     3.15202
      C    7   -0.10052      0.99965     2.09007    0.01080     3.10052
      N    8   -0.23876      0.99974     2.72599    0.01302     3.73876
      N    9   -0.10932      0.99968     2.59467    0.01496     3.60932
      N   10   -0.15031      0.99972     2.63548    0.01510     3.65031
      N   11    0.13874      0.99971     2.34586    0.01568     3.36126
      N   12    0.01666      0.99982     2.46997    0.01355     3.48334
      H   13    0.10791      0.00000     0.39036    0.00173     0.39209
      H   14    0.10641      0.00000     0.39254    0.00105     0.39359
      H   15    0.09691      0.00000     0.40219    0.00090     0.40309
      H   16    0.08773      0.00000     0.41070    0.00158     0.41227
      H   17    0.10423      0.00000     0.39422    0.00155     0.39577
      H   18    0.10356      0.00000     0.39524    0.00119     0.39644
      H   19    0.10344      0.00000     0.39527    0.00129     0.39656
      H   20    0.10499      0.00000     0.39368    0.00133     0.39501
      H   21    0.09405      0.00000     0.40351    0.00244     0.40595
      H   22    0.08859      0.00000     0.40982    0.00159     0.41141
      H   23    0.17202      0.00000     0.32537    0.00261     0.32798
 =======================================================================
   * Total *   -0.00000     11.99576    32.83644    0.16780    45.00000

 Normal termination of Gaussian 16 at Wed Dec  9 17:14:24 2020.
