 Gaussian 16, Revision A.03,

 ----------------------------------------------------------------------
 # opt=(cartesian,calcfc) freq B3LYP/6-31G(d) empiricaldispersion=gd3bj
  scf=xqc
 ----------------------------------------------------------------------

 -------------------------------
 CID_20594473_JID_10577_neutraal
 -------------------------------
 Symbolic Z-matrix:
 Charge =  0 Multiplicity = 1

 SCF Done:  E(RB3LYP) =  -992.049156386     A.U. after   15 cycles
 SCF Done:  E(RB3LYP) =  -992.050068000     A.U. after   12 cycles
 SCF Done:  E(RB3LYP) =  -992.050893204     A.U. after   13 cycles
 SCF Done:  E(RB3LYP) =  -992.051676574     A.U. after   12 cycles
 SCF Done:  E(RB3LYP) =  -992.052249393     A.U. after   13 cycles
 SCF Done:  E(RB3LYP) =  -992.052880639     A.U. after   12 cycles
 SCF Done:  E(RB3LYP) =  -992.052622686     A.U. after   13 cycles
 SCF Done:  E(RB3LYP) =  -992.053243590     A.U. after   12 cycles
 SCF Done:  E(RB3LYP) =  -992.053398558     A.U. after   12 cycles
 SCF Done:  E(RB3LYP) =  -992.053621338     A.U. after   12 cycles
 SCF Done:  E(RB3LYP) =  -992.055640659     A.U. after    6 cycles
 SCF Done:  E(RB3LYP) =  -992.055638260     A.U. after    9 cycles
 SCF Done:  E(RB3LYP) =  -992.055640687     A.U. after    6 cycles
 SCF Done:  E(RB3LYP) =  -992.055640601     A.U. after    8 cycles
 SCF Done:  E(RB3LYP) =  -992.055640707     A.U. after    6 cycles
 Optimization completed.
    -- Stationary point found.
 Normal termination of Gaussian 16 at Mon Jan  4 12:28:21 2021.

 --------------------------------------------------------------------
 #N Geom=AllCheck Guess=TCheck SCRF=Check GenChk RB3LYP/6-31G(d) Freq
 --------------------------------------------------------------------

 Structure from the checkpoint file:  "JID_10577.chk"
 -------------------------------
 CID_20594473_JID_10577_neutraal
 -------------------------------
 Charge =  0 Multiplicity = 1

 SCF Done:  E(RB3LYP) =  -992.055640707     A.U. after    1 cycles

  Exact polarizability: 206.369   4.416 157.537  -1.385   3.436  92.803
 Approx polarizability: 278.022   2.320 268.784  -1.325  19.368 155.811

                      1                      2                      3
                      A                      A                      A
 Frequencies --     37.9146                59.2039                65.0330
 Red. masses --      7.0430                 6.7096                 7.1416
 Frc consts  --      0.0060                 0.0139                 0.0178
 IR Inten    --      2.8155                 0.5960                 1.5540

                      4                      5                      6
                      A                      A                      A
 Frequencies --    101.1181               117.7469               121.3621
 Red. masses --      5.6876                 5.6698                 5.9595
 Frc consts  --      0.0343                 0.0463                 0.0517
 IR Inten    --      1.9548                 1.1979                 0.9118

                      7                      8                      9
                      A                      A                      A
 Frequencies --    154.1864               237.4094               237.9652
 Red. masses --      7.0286                 4.5717                 6.8502
 Frc consts  --      0.0984                 0.1518                 0.2285
 IR Inten    --      0.1810                 1.2236                 6.2972

                     10                     11                     12
                      A                      A                      A
 Frequencies --    248.0327               259.0519               287.4281
 Red. masses --      5.1172                 4.3362                 6.8127
 Frc consts  --      0.1855                 0.1714                 0.3316
 IR Inten    --      2.5841                 4.7527                 3.1907

                     13                     14                     15
                      A                      A                      A
 Frequencies --    294.3861               308.6379               327.7366
 Red. masses --      3.8846                 5.2836                 5.9769
 Frc consts  --      0.1984                 0.2965                 0.3782
 IR Inten    --      3.6367                 5.2188                 3.0505

                     16                     17                     18
                      A                      A                      A
 Frequencies --    368.7103               394.0627               407.1851
 Red. masses --      2.9231                 2.5258                 8.0201
 Frc consts  --      0.2341                 0.2311                 0.7835
 IR Inten    --      9.0221                 3.9210                15.7328

                     19                     20                     21
                      A                      A                      A
 Frequencies --    412.8147               429.1991               483.4843
 Red. masses --      3.9988                 3.8858                 5.3860
 Frc consts  --      0.4015                 0.4217                 0.7418
 IR Inten    --      8.2050                 1.0367                 3.8046

                     22                     23                     24
                      A                      A                      A
 Frequencies --    505.9340               554.0385               558.3016
 Red. masses --      4.0928                 5.0603                 4.5861
 Frc consts  --      0.6172                 0.9152                 0.8422
 IR Inten    --     11.0945                 7.2363                 1.2386

                     25                     26                     27
                      A                      A                      A
 Frequencies --    629.0815               648.8074               667.7490
 Red. masses --      5.0026                 3.8333                 6.1252
 Frc consts  --      1.1664                 0.9507                 1.6092
 IR Inten    --     25.4622                 1.1171                 0.7989

                     28                     29                     30
                      A                      A                      A
 Frequencies --    699.6562               709.2578               749.6856
 Red. masses --      6.0242                 5.4271                 2.4229
 Frc consts  --      1.7375                 1.6085                 0.8023
 IR Inten    --      0.8224                19.6574                53.4560

                     31                     32                     33
                      A                      A                      A
 Frequencies --    794.8227               803.7983               811.1943
 Red. masses --      4.9670                 2.0552                 4.3602
 Frc consts  --      1.8488                 0.7823                 1.6905
 IR Inten    --      3.1788                15.6446                 4.3586

                     34                     35                     36
                      A                      A                      A
 Frequencies --    818.8026               851.0994               887.4316
 Red. masses --      4.2832                 5.2779                 4.2985
 Frc consts  --      1.6919                 2.2525                 1.9945
 IR Inten    --     27.2609                17.3469                23.7758

                     37                     38                     39
                      A                      A                      A
 Frequencies --    900.1361               909.9367               921.3493
 Red. masses --      3.2448                 1.4979                 1.6379
 Frc consts  --      1.5490                 0.7307                 0.8192
 IR Inten    --     10.4738                 3.9770                 5.5782

                     40                     41                     42
                      A                      A                      A
 Frequencies --    948.8022               972.9656               982.5111
 Red. masses --      1.6816                 1.4141                 3.6321
 Frc consts  --      0.8919                 0.7887                 2.0658
 IR Inten    --     17.8101                 1.3271                 0.9368

                     43                     44                     45
                      A                      A                      A
 Frequencies --   1002.3326              1011.5838              1018.6419
 Red. masses --      1.3069                 6.2084                 6.2918
 Frc consts  --      0.7736                 3.7431                 3.8465
 IR Inten    --      2.1352                11.6887                10.0006

                     46                     47                     48
                      A                      A                      A
 Frequencies --   1047.6279              1073.7432              1087.0287
 Red. masses --      2.4434                 2.3919                 2.8212
 Frc consts  --      1.5800                 1.6248                 1.9641
 IR Inten    --      7.2755                44.4778                15.0708

                     49                     50                     51
                      A                      A                      A
 Frequencies --   1097.1861              1134.3341              1140.5197
 Red. masses --      5.6889                 1.3010                 1.5563
 Frc consts  --      4.0350                 0.9863                 1.1928
 IR Inten    --     24.6786                 2.2532                19.7718

                     52                     53                     54
                      A                      A                      A
 Frequencies --   1144.0931              1158.8210              1162.8804
 Red. masses --      1.4972                 1.3980                 2.5325
 Frc consts  --      1.1547                 1.1061                 2.0178
 IR Inten    --     13.3371                 3.1036               259.1114

                     55                     56                     57
                      A                      A                      A
 Frequencies --   1173.8922              1198.5204              1199.4403
 Red. masses --      1.6244                 1.1182                 2.3969
 Frc consts  --      1.3189                 0.9463                 2.0317
 IR Inten    --     90.2539                 3.4268                 5.7962

                     58                     59                     60
                      A                      A                      A
 Frequencies --   1270.4051              1291.9629              1306.1232
 Red. masses --      2.5313                 1.3047                 1.8576
 Frc consts  --      2.4070                 1.2831                 1.8671
 IR Inten    --     37.9163                 6.5291               375.4630

                     61                     62                     63
                      A                      A                      A
 Frequencies --   1311.7079              1320.0639              1334.0128
 Red. masses --      1.7374                 1.9894                 3.9937
 Frc consts  --      1.7612                 2.0425                 4.1874
 IR Inten    --    259.0865               105.1460                47.2180

                     64                     65                     66
                      A                      A                      A
 Frequencies --   1362.6671              1378.5831              1410.9266
 Red. masses --      8.1842                 2.0451                 1.5387
 Frc consts  --      8.9537                 2.2900                 1.8048
 IR Inten    --      0.2486                21.9091                12.9011

                     67                     68                     69
                      A                      A                      A
 Frequencies --   1424.1848              1450.6051              1496.7259
 Red. masses --      1.7483                 2.1811                 2.1257
 Frc consts  --      2.0893                 2.7041                 2.8057
 IR Inten    --      8.6709                 4.8719                 3.4462

                     70                     71                     72
                      A                      A                      A
 Frequencies --   1502.6922              1507.7428              1530.5889
 Red. masses --      1.1456                 1.1314                 2.6759
 Frc consts  --      1.5241                 1.5154                 3.6935
 IR Inten    --     19.5597                12.5250                 4.7629

                     73                     74                     75
                      A                      A                      A
 Frequencies --   1551.1875              1556.7486              1632.2015
 Red. masses --      1.3199                 1.2871                 6.1847
 Frc consts  --      1.8712                 1.8379                 9.7077
 IR Inten    --      1.7070                 6.8146                 1.0223

                     76                     77                     78
                      A                      A                      A
 Frequencies --   1660.6214              1810.9193              1824.4317
 Red. masses --      5.8602                12.1025                12.1310
 Frc consts  --      9.5215                23.3842                23.7904
 IR Inten    --     13.3864               273.1994               158.6923

                     79                     80                     81
                      A                      A                      A
 Frequencies --   3093.8121              3116.4176              3118.9379
 Red. masses --      1.0594                 1.0530                 1.0570
 Frc consts  --      5.9743                 6.0256                 6.0579
 IR Inten    --     22.2704                25.8118                11.5068

                     82                     83                     84
                      A                      A                      A
 Frequencies --   3120.1392              3158.4902              3181.7483
 Red. masses --      1.0529                 1.1070                 1.1107
 Frc consts  --      6.0392                 6.5064                 6.6249
 IR Inten    --     22.5543                 3.9937                 3.0226

                     85                     86                     87
                      A                      A                      A
 Frequencies --   3197.4847              3210.8645              3215.1687
 Red. masses --      1.0865                 1.0909                 1.1188
 Frc consts  --      6.5451                 6.6267                 6.8142
 IR Inten    --      2.2561                11.5921                10.5359

                     88                     89                     90
                      A                      A                      A
 Frequencies --   3217.2520              3222.7259              3227.2012
 Red. masses --      1.1195                 1.0933                 1.0956
 Frc consts  --      6.8269                 6.6903                 6.7229
 IR Inten    --     10.3977                 6.2763                10.1329

 - Thermochemistry -
 -------------------
 Temperature   298.150 Kelvin.  Pressure   1.00000 Atm.
 Atom     1 has atomic number  6 and mass  12.00000

 Molecular mass:   276.06339 amu.
 Principal axes and moments of inertia in atomic units:
                           1         2         3
     Eigenvalues --  2544.438566528.568218175.01049
           X            0.99998   0.00559  -0.00396
           Y           -0.00562   0.99994  -0.00927
           Z            0.00391   0.00929   0.99995
 This molecule is an asymmetric top.
 Rotational symmetry number  1.
 Warning -- assumption of classical behavior for rotation
           may cause significant error
 Rotational temperatures (Kelvin)      0.03404     0.01327     0.01059
 Rotational constants (GHZ):           0.70929     0.27644     0.22076
 Zero-point vibrational energy     642059.8 (Joules/Mol)
                                  153.45598 (Kcal/Mol)
 Warning -- explicit consideration of  24 degrees of freedom as
           vibrations may cause significant error
 Vibrational temperatures:     54.55    85.18    93.57   145.49   169.41
          (Kelvin)            174.61   221.84   341.58   342.38   356.86
                              372.72   413.54   423.56   444.06   471.54
                              530.49   566.97   585.85   593.95   617.52
                              695.63   727.93   797.14   803.27   905.11
                              933.49   960.74  1006.65  1020.46  1078.63
                             1143.57  1156.49  1167.13  1178.07  1224.54
                             1276.82  1295.10  1309.20  1325.62  1365.11
                             1399.88  1413.61  1442.13  1455.44  1465.60
                             1507.30  1544.88  1563.99  1578.61  1632.05
                             1640.95  1646.09  1667.28  1673.13  1688.97
                             1724.40  1725.73  1827.83  1858.85  1879.22
                             1887.26  1899.28  1919.35  1960.57  1983.47
                             2030.01  2049.08  2087.10  2153.45  2162.04
                             2169.31  2202.18  2231.81  2239.81  2348.37
                             2389.26  2605.51  2624.95  4451.31  4483.83
                             4487.46  4489.18  4544.36  4577.83  4600.47
                             4619.72  4625.91  4628.91  4636.78  4643.22

 Zero-point correction=                           0.244548 (Hartree/Particle)
 Thermal correction to Energy=                    0.260559
 Thermal correction to Enthalpy=                  0.261503
 Thermal correction to Gibbs Free Energy=         0.201001
 Sum of electronic and zero-point Energies=           -991.811093
 Sum of electronic and thermal Energies=              -991.795082
 Sum of electronic and thermal Enthalpies=            -991.794138
 Sum of electronic and thermal Free Energies=         -991.854640

                     E (Thermal)             CV                S
                      KCal/Mol        Cal/Mol-Kelvin    Cal/Mol-Kelvin
 Total                  163.503             63.042            127.338
 Electronic               0.000              0.000              0.000
 Translational            0.889              2.981             42.745
 Rotational               0.889              2.981             33.273
 Vibrational            161.726             57.081             51.320
 Vibration     1          0.594              1.982              5.365
 Vibration     2          0.597              1.974              4.484
 Vibration     3          0.597              1.971              4.298
 Vibration     4          0.604              1.948              3.433
 Vibration     5          0.608              1.935              3.137
 Vibration     6          0.609              1.931              3.079
 Vibration     7          0.620              1.898              2.620
 Vibration     8          0.656              1.783              1.822
 Vibration     9          0.656              1.783              1.818
 Vibration    10          0.662              1.766              1.745
 Vibration    11          0.668              1.747              1.668
 Vibration    12          0.685              1.697              1.489
 Vibration    13          0.689              1.684              1.449
 Vibration    14          0.698              1.657              1.370
 Vibration    15          0.711              1.620              1.271
 Vibration    16          0.741              1.537              1.085
 Vibration    17          0.761              1.483              0.985
 Vibration    18          0.772              1.455              0.937
 Vibration    19          0.777              1.442              0.917
 Vibration    20          0.791              1.407              0.861
 Vibration    21          0.840              1.287              0.701
 Vibration    22          0.861              1.237              0.643
 Vibration    23          0.909              1.131              0.536
 Vibration    24          0.914              1.122              0.527

 Optimization completed.
    -- Stationary point found.
 Normal termination of Gaussian 16 at Mon Jan  4 12:45:18 2021.

 ----------------------------------------------------------------------
 # B3LYP/6-311++G(d,p) empiricaldispersion=gd3bj scf=xqc pop=npa geom=c
 heck
 ----------------------------------------------------------------------

 ---------------------------------------
 CID_20594473_JID_10577_Energie_neutraal
 ---------------------------------------
 Structure from the checkpoint file:  "JID_10577.chk"
 Charge =  0 Multiplicity = 1

 SCF Done:  E(RB3LYP) =  -992.330670894     A.U. after   15 cycles
 Normal termination of Gaussian 16 at Mon Jan  4 12:51:01 2021.

 ----------------------------------------------------------------------
 # B3LYP/6-311++G(d,p) empiricaldispersion=gd3bj scf=xqc pop=npa geom=c
 heck
 ----------------------------------------------------------------------

 -------------------------------------
 CID_20594473_JID_10577_Energie_kation
 -------------------------------------
 Structure from the checkpoint file:  "JID_10577.chk"
 Charge =  1 Multiplicity = 2

 SCF Done:  E(UB3LYP) =  -991.994662683     A.U. after   33 cycles
 SCF Done:  E(UB3LYP) =  -991.994662683     a.u. after    1 cycles
 Normal termination of Gaussian 16 at Mon Jan  4 13:09:21 2021.
 Gaussian 16:  ES64L-G16RevA.03 25-Dec-2016

 ----------------------------------------------------------------------
 # B3LYP/6-311++G(d,p) empiricaldispersion=gd3bj scf=xqc pop=npa geom=c
 heck
 ----------------------------------------------------------------------

 ------------------------------------
 CID_20594473_JID_10577_Energie_anion
 ------------------------------------
 Structure from the checkpoint file:  "JID_10577.chk"
 Charge = -1 Multiplicity = 2

                         Standard orientation:
 ---------------------------------------------------------------------
 Center     Atomic      Atomic             Coordinates (Angstroms)
 Number     Number       Type             X           Y           Z
 ---------------------------------------------------------------------
      1          6           0       -1.467524    1.344169   -1.108292
      2          6           0       -2.296406    0.751819    0.016931
      3          6           0       -2.545584    1.535619    1.233109
      4          8           0       -3.538653    1.451102    0.197904
      5          6           0       -2.361532   -0.762172    0.059448
      6          6           0       -1.425776   -1.476458    1.013561
      7          8           0       -0.109216   -0.906290    0.965637
      8          6           0        0.823419   -1.541841    0.206274
      9          8           0        0.706453   -2.669678   -0.215128
     10          6           0        2.043731   -0.697427    0.047329
     11          6           0        3.280520   -1.347034    0.060094
     12          6           0        4.463533   -0.612316    0.008069
     13          6           0        4.416609    0.781269   -0.051613
     14          6           0        3.186590    1.436554   -0.082582
     15          6           0        1.997006    0.705809   -0.055478
     16          6           0        0.715161    1.461131   -0.182335
     17          8           0        0.475104    2.507858    0.380690
     18          8           0       -0.115949    0.857872   -1.064067
     19          6           0       -3.616589   -1.431100   -0.314375
     20          8           0       -2.518549   -1.371537   -1.233021
     21          1           0       -1.858260    1.003684   -2.067190
     22          1           0       -1.483431    2.433313   -1.049567
     23          1           0       -2.804699    1.021146    2.158249
     24          1           0       -2.056284    2.499967    1.347731
     25          1           0       -1.761902   -1.345174    2.045502
     26          1           0       -1.378982   -2.538119    0.764481
     27          1           0        3.296207   -2.429703    0.126452
     28          1           0        5.419863   -1.126279    0.023971
     29          1           0        5.336282    1.357814   -0.081483
     30          1           0        3.132461    2.518435   -0.144339
     31          1           0       -3.836258   -2.423237    0.080865
     32          1           0       -4.477462   -0.814583   -0.561620
 ---------------------------------------------------------------------

 SCF Done:  E(UB3LYP) =  -992.345993795     A.U. after   25 cycles

 The electronic state is 2-A.
 Alpha  occ. eigenvalues --  -19.05026 -19.04842 -19.03055 -19.02845 -18.96264
 Alpha  occ. eigenvalues --  -18.95482 -10.14794 -10.14677 -10.14628 -10.13971
 Alpha  occ. eigenvalues --  -10.13868 -10.13376 -10.12552 -10.11982 -10.03272
 Alpha  occ. eigenvalues --  -10.03044 -10.02446 -10.02384 -10.02247 -10.02242
 Alpha  occ. eigenvalues --   -1.00070  -0.98504  -0.97191  -0.96314  -0.88127
 Alpha  occ. eigenvalues --   -0.87677  -0.71595  -0.67741  -0.64438  -0.62097
 Alpha  occ. eigenvalues --   -0.60816  -0.58208  -0.57749  -0.55220  -0.51389
 Alpha  occ. eigenvalues --   -0.48506  -0.47021  -0.44969  -0.43165  -0.41993
 Alpha  occ. eigenvalues --   -0.40733  -0.39806  -0.38873  -0.37528  -0.36046
 Alpha  occ. eigenvalues --   -0.35278  -0.34293  -0.33783  -0.32854  -0.32122
 Alpha  occ. eigenvalues --   -0.31354  -0.30188  -0.30175  -0.28680  -0.28161
 Alpha  occ. eigenvalues --   -0.27883  -0.26790  -0.24192  -0.23342  -0.23024
 Alpha  occ. eigenvalues --   -0.22576  -0.21697  -0.21110  -0.20863  -0.20319
 Alpha  occ. eigenvalues --   -0.19321  -0.17409  -0.16652  -0.14551  -0.13970
 Alpha  occ. eigenvalues --   -0.11521  -0.11476   0.04440
 Alpha virt. eigenvalues --    0.07135   0.08611   0.09208   0.09333   0.10477
 Alpha virt. eigenvalues --    0.10728   0.11096   0.11307   0.11924   0.12489
 Alpha virt. eigenvalues --    0.12800   0.13233   0.14382   0.14771   0.15289

  Beta  occ. eigenvalues --  -19.05021 -19.04842 -19.02994 -19.02784 -18.96063
  Beta  occ. eigenvalues --  -18.95232 -10.14786 -10.14621 -10.14516 -10.13864
  Beta  occ. eigenvalues --  -10.13783 -10.13376 -10.12550 -10.11977 -10.03346
  Beta  occ. eigenvalues --  -10.03083 -10.02212 -10.02158 -10.02020 -10.01955
  Beta  occ. eigenvalues --   -1.00055  -0.98492  -0.96976  -0.96083  -0.87811
  Beta  occ. eigenvalues --   -0.87297  -0.71147  -0.67653  -0.64289  -0.61523
  Beta  occ. eigenvalues --   -0.60507  -0.58183  -0.57673  -0.55151  -0.50886
  Beta  occ. eigenvalues --   -0.48336  -0.46677  -0.44865  -0.43046  -0.41827
  Beta  occ. eigenvalues --   -0.40655  -0.39713  -0.38793  -0.37374  -0.35883
  Beta  occ. eigenvalues --   -0.35059  -0.34089  -0.33479  -0.32530  -0.32021
  Beta  occ. eigenvalues --   -0.31166  -0.30024  -0.29951  -0.28615  -0.27986
  Beta  occ. eigenvalues --   -0.27164  -0.26300  -0.23994  -0.23105  -0.22852
  Beta  occ. eigenvalues --   -0.22340  -0.21111  -0.20856  -0.20685  -0.20271
  Beta  occ. eigenvalues --   -0.18783  -0.17027  -0.16074  -0.14251  -0.13523
  Beta  occ. eigenvalues --   -0.10631  -0.09623
  Beta virt. eigenvalues --    0.07110   0.08581   0.09171   0.09297   0.10444
  Beta virt. eigenvalues --    0.10473   0.10796   0.11283   0.11621   0.11990
  Beta virt. eigenvalues --    0.12458   0.12819   0.13208   0.14380   0.14736

 Mulliken charges and spin densities:
               1          2
     1  C   -0.153925   0.001478
     2  C   -0.029862   0.000200
     3  C   -0.199870   0.001139
     4  O   -0.084280  -0.000137
     5  C   -0.018520   0.011167
     6  C   -0.493212  -0.000284
     7  O    0.151636   0.004530
     8  C   -0.750763   0.078099
     9  O   -0.267375   0.086485
    10  C    1.173383   0.210848
    11  C   -0.433820  -0.028320
    12  C   -0.365788   0.145816
    13  C   -0.395188   0.189787
    14  C   -0.481832  -0.059471
    15  C    0.899444   0.225317
    16  C   -0.933924   0.076684
    17  O   -0.257556   0.067205
    18  O    0.136575   0.006461
    19  C   -0.331772  -0.007471
    20  O   -0.041220  -0.000559
    21  H    0.197798  -0.000947
    22  H    0.197579   0.002273
    23  H    0.139544   0.001362
    24  H    0.197913   0.000555
    25  H    0.142529   0.003043
    26  H    0.224362  -0.001385
    27  H    0.133062   0.003086
    28  H    0.108710  -0.011808
    29  H    0.106423  -0.015381
    30  H    0.124550   0.004769
    31  H    0.132413  -0.000533
    32  H    0.172988   0.005993
 Sum of Mulliken charges =  -1.00000   1.00000

 Dipole moment (field-independent basis, Debye):
    X=             -7.1315    Y=              0.1398    Z=              1.9437  Tot=              7.3929
 Quadrupole moment (field-independent basis, Debye-Ang):
   XX=           -150.5337   YY=           -141.7798   ZZ=           -123.3553
   XY=              5.5239   XZ=             -5.0113   YZ=             -7.3256

 Summary of Natural Population Analysis:

                                       Natural Population
                Natural  -----------------------------------------------
    Atom  No    Charge         Core      Valence    Rydberg      Total
 -----------------------------------------------------------------------
      C    1   -0.02124      0.99951     2.00986    0.01187     3.02124
      C    2    0.09568      0.99949     1.88906    0.01577     2.90432
      C    3   -0.02323      0.99952     2.01226    0.01145     3.02323
      O    4   -0.28676      0.99992     3.28017    0.00668     4.28676
      C    5    0.09589      0.99948     1.89104    0.01359     2.90411
      C    6   -0.02261      0.99951     2.01244    0.01066     3.02261
      O    7   -0.28599      0.99986     3.27656    0.00957     4.28599
      C    8    0.43129      0.99963     1.54465    0.02443     2.56871
      O    9   -0.29524      0.99987     3.28950    0.00588     4.29524
      C   10   -0.01016      0.99942     2.00156    0.00918     3.01016
      C   11   -0.09359      0.99954     2.08535    0.00870     3.09359
      C   12   -0.08079      0.99958     2.07170    0.00952     3.08079
      C   13   -0.06821      0.99958     2.05904    0.00960     3.06821
      C   14   -0.10418      0.99954     2.09602    0.00862     3.10418
      C   15   -0.00683      0.99942     1.99800    0.00941     3.00683
      C   16    0.43109      0.99963     1.54459    0.02469     2.56891
      O   17   -0.30791      0.99987     3.30205    0.00599     4.30791
      O   18   -0.27802      0.99986     3.26897    0.00919     4.27802
      C   19   -0.02716      0.99951     2.01804    0.00960     3.02716
      O   20   -0.27436      0.99992     3.26581    0.00864     4.27436
      H   21    0.09911      0.00000     0.39984    0.00104     0.40089
      H   22    0.09932      0.00000     0.39922    0.00146     0.40068
      H   23    0.08383      0.00000     0.41509    0.00107     0.41617
      H   24    0.10124      0.00000     0.39770    0.00106     0.39876
      H   25    0.08902      0.00000     0.40995    0.00103     0.41098
      H   26    0.10854      0.00000     0.38982    0.00164     0.39146
      H   27    0.10065      0.00000     0.39823    0.00113     0.39935
      H   28    0.08758      0.00000     0.41135    0.00107     0.41242
      H   29    0.08690      0.00000     0.41203    0.00107     0.41310
      H   30    0.09895      0.00000     0.39995    0.00111     0.40105
      H   31    0.08403      0.00000     0.41475    0.00122     0.41597
      H   32    0.09316      0.00000     0.40565    0.00119     0.40684
 =======================================================================
   * Total *   -0.00000     19.99266    51.77024    0.23711    72.00000

 Normal termination of Gaussian 16 at Mon Jan  4 13:22:11 2021.
