 Gaussian 16, Revision A.03,

 -----------------------------------------------------------
 # opt freq B3LYP/6-31G(d) empiricaldispersion=gd3bj scf=xqc
 -----------------------------------------------------------

 ------------------------------
 CID_83674009_JID_3798_neutraal
 ------------------------------
 Symbolic Z-matrix:
 Charge =  0 Multiplicity = 1

 SCF Done:  E(RB3LYP) =  -901.069995123     A.U. after   14 cycles
 SCF Done:  E(RB3LYP) =  -901.072664806     A.U. after   11 cycles
 SCF Done:  E(RB3LYP) =  -901.073226024     A.U. after   12 cycles
 SCF Done:  E(RB3LYP) =  -901.073415166     A.U. after   11 cycles
 SCF Done:  E(RB3LYP) =  -901.073437473     A.U. after   10 cycles
 SCF Done:  E(RB3LYP) =  -901.073443660     A.U. after    9 cycles
 SCF Done:  E(RB3LYP) =  -901.073444636     A.U. after    8 cycles
 SCF Done:  E(RB3LYP) =  -901.073445019     A.U. after    8 cycles
 SCF Done:  E(RB3LYP) =  -901.073445091     A.U. after    7 cycles
 Optimization completed.
    -- Stationary point found.
 Normal termination of Gaussian 16 at Mon Dec 14 13:11:28 2020.

 --------------------------------------------------------------------
 #N Geom=AllCheck Guess=TCheck SCRF=Check GenChk RB3LYP/6-31G(d) Freq
 --------------------------------------------------------------------

 Structure from the checkpoint file:  "JID_3798.chk"
 ------------------------------
 CID_83674009_JID_3798_neutraal
 ------------------------------
 Charge =  0 Multiplicity = 1

 SCF Done:  E(RB3LYP) =  -901.073445091     A.U. after    1 cycles

  Exact polarizability: 189.922   7.277 131.101 -10.111   9.920  82.638
 Approx polarizability: 257.788   5.220 222.495 -20.527  23.364 131.319

                      1                      2                      3
                      A                      A                      A
 Frequencies --     45.8502                60.5682                90.4423
 Red. masses --      4.6969                 4.2175                 4.3638
 Frc consts  --      0.0058                 0.0091                 0.0210
 IR Inten    --      2.6808                 0.0965                 1.0028

                      4                      5                      6
                      A                      A                      A
 Frequencies --    124.8868               174.1847               210.3553
 Red. masses --      3.5255                 2.7732                 2.7846
 Frc consts  --      0.0324                 0.0496                 0.0726
 IR Inten    --      1.0757                 1.2327                 0.9160

                      7                      8                      9
                      A                      A                      A
 Frequencies --    241.7947               253.2142               295.9413
 Red. masses --      3.0001                 1.0922                 3.5257
 Frc consts  --      0.1033                 0.0413                 0.1819
 IR Inten    --      1.1170                 0.0437                 0.0519

                     10                     11                     12
                      A                      A                      A
 Frequencies --    343.8837               366.7484               395.0321
 Red. masses --      3.7901                 4.1555                 2.9339
 Frc consts  --      0.2641                 0.3293                 0.2697
 IR Inten    --      0.1882                 6.1223                 5.7057

                     13                     14                     15
                      A                      A                      A
 Frequencies --    408.0867               436.4736               456.0403
 Red. masses --      1.4928                 2.1513                 2.3983
 Frc consts  --      0.1465                 0.2415                 0.2939
 IR Inten    --    114.2238                36.0829                22.5493

                     16                     17                     18
                      A                      A                      A
 Frequencies --    467.0175               496.2284               593.1851
 Red. masses --      3.3725                 3.8451                 3.6479
 Frc consts  --      0.4334                 0.5579                 0.7563
 IR Inten    --      7.7858                 0.5342                 4.7441

                     19                     20                     21
                      A                      A                      A
 Frequencies --    614.6687               627.7954               670.8529
 Red. masses --      5.0174                 4.3311                 3.8670
 Frc consts  --      1.1169                 1.0057                 1.0254
 IR Inten    --      2.0350                 4.1429                 1.5778

                     22                     23                     24
                      A                      A                      A
 Frequencies --    736.7609               760.3479               832.1652
 Red. masses --      3.7834                 4.9464                 1.3912
 Frc consts  --      1.2100                 1.6849                 0.5676
 IR Inten    --      2.0122                 3.5792                18.7207

                     25                     26                     27
                      A                      A                      A
 Frequencies --    876.8053               893.5654               899.6558
 Red. masses --      1.7973                 2.0488                 1.8262
 Frc consts  --      0.8141                 0.9639                 0.8709
 IR Inten    --      1.5082                 1.1251                 5.0457

                     28                     29                     30
                      A                      A                      A
 Frequencies --    922.8088               939.8734               952.6586
 Red. masses --      2.0196                 1.5229                 1.3125
 Frc consts  --      1.0133                 0.7926                 0.7018
 IR Inten    --      2.7433                 1.6767                 0.3182

                     31                     32                     33
                      A                      A                      A
 Frequencies --    985.6756              1036.8101              1060.8523
 Red. masses --      2.1784                 1.7038                 1.8561
 Frc consts  --      1.2470                 1.0791                 1.2307
 IR Inten    --      3.5867                 4.0668                20.6955

                     34                     35                     36
                      A                      A                      A
 Frequencies --   1077.4097              1086.2238              1120.2047
 Red. masses --      4.4431                 3.9164                 2.2882
 Frc consts  --      3.0388                 2.7226                 1.6918
 IR Inten    --     19.8558                76.4025                 2.0806

                     37                     38                     39
                      A                      A                      A
 Frequencies --   1138.0850              1173.1093              1187.6629
 Red. masses --      1.6881                 1.4566                 1.6706
 Frc consts  --      1.2882                 1.1810                 1.3884
 IR Inten    --      2.5030                 5.4045                13.3935

                     40                     41                     42
                      A                      A                      A
 Frequencies --   1198.7926              1209.0538              1235.6994
 Red. masses --      1.2700                 1.1982                 1.3414
 Frc consts  --      1.0753                 1.0320                 1.2068
 IR Inten    --      1.4988                 8.7482                 9.3896

                     43                     44                     45
                      A                      A                      A
 Frequencies --   1265.2939              1288.2156              1307.8390
 Red. masses --      2.7736                 1.4514                 1.2367
 Frc consts  --      2.6162                 1.4191                 1.2463
 IR Inten    --      1.9366                10.1726                18.5487

                     46                     47                     48
                      A                      A                      A
 Frequencies --   1326.0237              1362.7279              1371.4316
 Red. masses --      1.7318                 3.0573                 1.4476
 Frc consts  --      1.7941                 3.3451                 1.6042
 IR Inten    --      2.8134                 6.5053                 5.2778

                     49                     50                     51
                      A                      A                      A
 Frequencies --   1390.4656              1408.9864              1437.7240
 Red. masses --      1.4225                 1.2568                 1.2374
 Frc consts  --      1.6204                 1.4700                 1.5070
 IR Inten    --      0.4741                 1.9379                62.3406

                     52                     53                     54
                      A                      A                      A
 Frequencies --   1441.8140              1473.0733              1502.5234
 Red. masses --      1.2564                 3.3928                 1.1524
 Frc consts  --      1.5389                 4.3377                 1.5328
 IR Inten    --      2.5156                 5.0524                 3.3606

                     55                     56                     57
                      A                      A                      A
 Frequencies --   1509.5507              1519.0636              1522.4350
 Red. masses --      1.1198                 1.7124                 1.2179
 Frc consts  --      1.5035                 2.3281                 1.6632
 IR Inten    --      5.0927                25.0195                22.0997

                     58                     59                     60
                      A                      A                      A
 Frequencies --   1528.6977              1535.2496              1625.0608
 Red. masses --      1.0497                 1.1134                 6.5645
 Frc consts  --      1.4453                 1.5462                10.2140
 IR Inten    --      6.1221                 1.0413                 1.4493

                     61                     62                     63
                      A                      A                      A
 Frequencies --   1660.6816              2997.3917              3017.0197
 Red. masses --      5.9972                 1.0711                 1.0683
 Frc consts  --      9.7448                 5.6699                 5.7293
 IR Inten    --      5.4283                58.0723                21.2838

                     64                     65                     66
                      A                      A                      A
 Frequencies --   3050.4455              3051.8281              3063.8623
 Red. masses --      1.0600                 1.0361                 1.0846
 Frc consts  --      5.8115                 5.6854                 5.9990
 IR Inten    --     32.9879                26.7884                 9.8978

                     67                     68                     69
                      A                      A                      A
 Frequencies --   3089.6742              3095.6032              3104.7201
 Red. masses --      1.0951                 1.1018                 1.0962
 Frc consts  --      6.1593                 6.2206                 6.2256
 IR Inten    --     20.8997                25.9509                63.1140

                     70                     71                     72
                      A                      A                      A
 Frequencies --   3117.8076              3132.3323              3180.5706
 Red. masses --      1.1012                 1.1033                 1.0884
 Frc consts  --      6.3068                 6.3779                 6.4873
 IR Inten    --     19.6945                25.4574                12.5673

                     73                     74                     75
                      A                      A                      A
 Frequencies --   3181.3549              3206.6278              3716.8120
 Red. masses --      1.0897                 1.0936                 1.0654
 Frc consts  --      6.4983                 6.6253                 8.6720
 IR Inten    --     10.9979                12.6809                23.2280

 - Thermochemistry -
 -------------------
 Temperature   298.150 Kelvin.  Pressure   1.00000 Atm.
 Atom     1 has atomic number  6 and mass  12.00000

 Molecular mass:   194.07654 amu.
 Principal axes and moments of inertia in atomic units:
                           1         2         3
     Eigenvalues --  1130.382544851.627105575.82586
           X            0.99971   0.02426  -0.00016
           Y           -0.02426   0.99967   0.00785
           Z            0.00035  -0.00784   0.99997
 This molecule is an asymmetric top.
 Rotational symmetry number  1.
 Warning -- assumption of classical behavior for rotation
           may cause significant error
 Rotational temperatures (Kelvin)      0.07662     0.01785     0.01553
 Rotational constants (GHZ):           1.59658     0.37199     0.32367
 Zero-point vibrational energy     599211.7 (Joules/Mol)
                                  143.21504 (Kcal/Mol)
 Warning -- explicit consideration of  19 degrees of freedom as
           vibrations may cause significant error
 Vibrational temperatures:     65.97    87.14   130.13   179.68   250.61
          (Kelvin)            302.65   347.89   364.32   425.79   494.77
                              527.67   568.36   587.15   627.99   656.14
                              671.93   713.96   853.46   884.37   903.26
                              965.21  1060.03  1093.97  1197.30  1261.53
                             1285.64  1294.40  1327.72  1352.27  1370.66
                             1418.17  1491.74  1526.33  1550.15  1562.83
                             1611.72  1637.45  1687.84  1708.78  1724.80
                             1739.56  1777.90  1820.48  1853.45  1881.69
                             1907.85  1960.66  1973.18  2000.57  2027.22
                             2068.56  2074.45  2119.42  2161.80  2171.91
                             2185.59  2190.44  2199.45  2208.88  2338.10
                             2389.35  4312.58  4340.82  4388.91  4390.90
                             4408.21  4445.35  4453.88  4467.00  4485.83
                             4506.73  4576.13  4577.26  4613.62  5347.66

 Zero-point correction=                           0.228228 (Hartree/Particle)
 Thermal correction to Energy=                    0.240612
 Thermal correction to Enthalpy=                  0.241556
 Thermal correction to Gibbs Free Energy=         0.189139
 Sum of electronic and zero-point Energies=           -900.845217
 Sum of electronic and thermal Energies=              -900.832834
 Sum of electronic and thermal Enthalpies=            -900.831889
 Sum of electronic and thermal Free Energies=         -900.884306

                     E (Thermal)             CV                S
                      KCal/Mol        Cal/Mol-Kelvin    Cal/Mol-Kelvin
 Total                  150.986             47.972            110.321
 Electronic               0.000              0.000              0.000
 Translational            0.889              2.981             41.695
 Rotational               0.889              2.981             31.792
 Vibrational            149.209             42.010             36.834
 Vibration     1          0.595              1.979              4.989
 Vibration     2          0.597              1.973              4.439
 Vibration     3          0.602              1.956              3.650
 Vibration     4          0.610              1.928              3.023
 Vibration     5          0.627              1.874              2.390
 Vibration     6          0.643              1.825              2.041
 Vibration     7          0.658              1.776              1.790
 Vibration     8          0.664              1.757              1.708
 Vibration     9          0.690              1.681              1.440
 Vibration    10          0.723              1.588              1.194
 Vibration    11          0.740              1.541              1.093
 Vibration    12          0.762              1.481              0.981
 Vibration    13          0.773              1.453              0.933
 Vibration    14          0.797              1.391              0.838
 Vibration    15          0.814              1.348              0.778
 Vibration    16          0.824              1.323              0.746
 Vibration    17          0.852              1.258              0.668
 Vibration    18          0.951              1.046              0.462
 Vibration    19          0.974              1.001              0.425

 Optimization completed.
    -- Stationary point found.
 Normal termination of Gaussian 16 at Mon Dec 14 13:17:58 2020.

 ----------------------------------------------------------------------
 # B3LYP/6-311++G(d,p) empiricaldispersion=gd3bj scf=xqc pop=npa geom=c
 heck
 ----------------------------------------------------------------------

 --------------------------------------
 CID_83674009_JID_3798_Energie_neutraal
 --------------------------------------
 Structure from the checkpoint file:  "JID_3798.chk"
 Charge =  0 Multiplicity = 1

 SCF Done:  E(RB3LYP) =  -901.242016683     A.U. after   15 cycles
 Normal termination of Gaussian 16 at Mon Dec 14 13:21:08 2020.

 ----------------------------------------------------------------------
 # B3LYP/6-311++G(d,p) empiricaldispersion=gd3bj scf=xqc pop=npa geom=c
 heck
 ----------------------------------------------------------------------

 ------------------------------------
 CID_83674009_JID_3798_Energie_kation
 ------------------------------------
 Structure from the checkpoint file:  "JID_3798.chk"
 Charge =  1 Multiplicity = 2

 SCF Done:  E(UB3LYP) =  -900.964047009     A.U. after   23 cycles
 Normal termination of Gaussian 16 at Mon Dec 14 13:28:03 2020.
 Gaussian 16:  ES64L-G16RevA.03 25-Dec-2016

 ----------------------------------------------------------------------
 # B3LYP/6-311++G(d,p) empiricaldispersion=gd3bj scf=xqc pop=npa geom=c
 heck
 ----------------------------------------------------------------------

 -----------------------------------
 CID_83674009_JID_3798_Energie_anion
 -----------------------------------
 Structure from the checkpoint file:  "JID_3798.chk"
 Charge = -1 Multiplicity = 2

                         Standard orientation:
 ---------------------------------------------------------------------
 Center     Atomic      Atomic             Coordinates (Angstroms)
 Number     Number       Type             X           Y           Z
 ---------------------------------------------------------------------
      1          6           0       -4.106997   -1.298186    0.138272
      2          6           0       -2.877259   -0.594240   -0.417519
      3          6           0       -1.563347   -1.378897   -0.257445
      4          6           0       -0.435154   -0.376582   -0.288222
      5          6           0       -0.832016    0.915061    0.091238
      6         16           0       -2.572935    1.036058    0.433542
      7          6           0        0.096620    1.950994    0.168763
      8          6           0        1.432082    1.684934   -0.138102
      9          6           0        1.852808    0.408524   -0.532660
     10          6           0        0.898220   -0.621215   -0.599868
     11          6           0        3.309727    0.116955   -0.799964
     12          6           0        4.025646   -0.394832    0.463623
     13          8           0        3.459949   -1.596464    0.962104
     14          1           0       -4.266827   -2.244093   -0.392793
     15          1           0       -5.008614   -0.689378    0.015795
     16          1           0       -3.982136   -1.517156    1.203819
     17          1           0       -3.027600   -0.358829   -1.477280
     18          1           0       -1.471869   -2.145330   -1.035524
     19          1           0       -1.568873   -1.897878    0.713228
     20          1           0       -0.212991    2.952769    0.450588
     21          1           0        2.160236    2.490730   -0.084464
     22          1           0        1.209457   -1.616636   -0.908575
     23          1           0        3.406663   -0.644486   -1.582513
     24          1           0        3.822177    1.020525   -1.153195
     25          1           0        5.069576   -0.628137    0.231519
     26          1           0        4.020473    0.396305    1.230873
     27          1           0        2.535726   -1.398711    1.186324
 ---------------------------------------------------------------------

 SCF Done:  E(UB3LYP) =  -901.228126046     A.U. after   33 cycles
 SCF Done:  E(UB3LYP) =  -901.228126046     a.u. after    1 cycles

 The electronic state is 2-A.
 Alpha  occ. eigenvalues --  -88.74976 -19.02838 -10.12091 -10.11594 -10.10356
 Alpha  occ. eigenvalues --  -10.08768 -10.08627 -10.08243 -10.08084 -10.07838
 Alpha  occ. eigenvalues --  -10.07571 -10.07480 -10.07476  -7.83618  -5.79976
 Alpha  occ. eigenvalues --   -5.79646  -5.79025  -0.93052  -0.78524  -0.73633
 Alpha  occ. eigenvalues --   -0.68617  -0.66564  -0.64222  -0.60586  -0.58672
 Alpha  occ. eigenvalues --   -0.53082  -0.51008  -0.48145  -0.46784  -0.41553
 Alpha  occ. eigenvalues --   -0.39681  -0.39436  -0.36579  -0.36408  -0.35149
 Alpha  occ. eigenvalues --   -0.33608  -0.32767  -0.32253  -0.31098  -0.28694
 Alpha  occ. eigenvalues --   -0.28612  -0.27442  -0.27051  -0.26158  -0.24874
 Alpha  occ. eigenvalues --   -0.24309  -0.23211  -0.22231  -0.19263  -0.17918
 Alpha  occ. eigenvalues --   -0.15848  -0.11200   0.04375
 Alpha virt. eigenvalues --    0.05711   0.06962   0.07618   0.07795   0.08185
 Alpha virt. eigenvalues --    0.08681   0.09021   0.09244   0.09517   0.10521
 Alpha virt. eigenvalues --    0.11222   0.11335   0.12051   0.12159   0.13358

  Beta  occ. eigenvalues --  -88.74972 -19.02837 -10.12066 -10.11581 -10.10310
  Beta  occ. eigenvalues --  -10.08780 -10.08606 -10.08209 -10.08055 -10.07834
  Beta  occ. eigenvalues --  -10.07519 -10.07463 -10.07438  -7.83613  -5.79974
  Beta  occ. eigenvalues --   -5.79643  -5.79014  -0.93047  -0.78465  -0.73580
  Beta  occ. eigenvalues --   -0.68546  -0.66512  -0.64169  -0.60526  -0.58608
  Beta  occ. eigenvalues --   -0.53024  -0.50925  -0.48082  -0.46730  -0.41519
  Beta  occ. eigenvalues --   -0.39626  -0.39386  -0.36522  -0.36347  -0.35096
  Beta  occ. eigenvalues --   -0.33568  -0.32718  -0.32215  -0.31041  -0.28647
  Beta  occ. eigenvalues --   -0.28564  -0.27397  -0.26929  -0.26109  -0.24829
  Beta  occ. eigenvalues --   -0.24273  -0.23174  -0.22187  -0.19160  -0.17838
  Beta  occ. eigenvalues --   -0.15684  -0.11064
  Beta virt. eigenvalues --    0.06646   0.06827   0.07156   0.07920   0.08349
  Beta virt. eigenvalues --    0.08456   0.09101   0.09464   0.09790   0.09915
  Beta virt. eigenvalues --    0.10874   0.11581   0.11809   0.12197   0.12438

 Mulliken charges and spin densities:
               1          2
     1  C    1.263870  -1.992873
     2  C   -0.649595   1.173837
     3  C   -0.430427  -1.082105
     4  C    0.157062   0.648440
     5  C    0.503313  -0.184657
     6  S   -0.196741  -0.529639
     7  C    0.375911  -0.410371
     8  C   -1.023046   0.730173
     9  C    0.043695   0.676597
    10  C   -0.354356  -0.134147
    11  C    1.082559  -1.402219
    12  C    0.903782  -1.372923
    13  O   -0.311933   0.026037
    14  H   -0.452149   0.602779
    15  H   -0.251960   0.401371
    16  H   -0.068082   0.202755
    17  H   -0.236859   0.518776
    18  H   -0.175011   0.330881
    19  H    0.105316   0.086512
    20  H   -0.055761   0.216839
    21  H   -0.469598   0.629033
    22  H   -0.150696   0.364952
    23  H   -0.116024   0.284213
    24  H   -0.486548   0.647342
    25  H   -0.247530   0.415535
    26  H    0.001037   0.139078
    27  H    0.239770   0.013784
 Sum of Mulliken charges =  -1.00000   1.00000

 Dipole moment (field-independent basis, Debye):
    X=             -0.7017    Y=              1.7063    Z=              3.0872  Tot=              3.5965
 Quadrupole moment (field-independent basis, Debye-Ang):
   XX=           -185.3797   YY=           -128.1247   ZZ=           -115.6084
   XY=            -10.2965   XZ=             -2.7432   YZ=             -1.7033

 Summary of Natural Population Analysis:

                                       Natural Population
                Natural  -----------------------------------------------
    Atom  No    Charge         Core      Valence    Rydberg      Total
 -----------------------------------------------------------------------
      C    1   -0.28948      0.99963     2.28255    0.00730     3.28948
      C    2   -0.15074      0.99959     2.13731    0.01384     3.15074
      C    3   -0.19865      0.99957     2.18844    0.01063     3.19865
      C    4   -0.02445      0.99945     2.01410    0.01090     3.02445
      C    5   -0.07614      0.99936     2.06520    0.01159     3.07614
      S    6    0.11362      4.99954     2.86900    0.01784     7.88638
      C    7   -0.10461      0.99950     2.09476    0.01035     3.10461
      C    8   -0.09764      0.99951     2.08841    0.00972     3.09764
      C    9   -0.02030      0.99951     2.00971    0.01108     3.02030
      C   10   -0.09829      0.99946     2.08897    0.00986     3.09829
      C   11   -0.21173      0.99960     2.20164    0.01049     3.21173
      C   12   -0.00412      0.99960     1.99146    0.01306     3.00412
      O   13   -0.37073      0.99990     3.36417    0.00666     4.37073
      H   14    0.10688      0.00000     0.39099    0.00213     0.39312
      H   15    0.10308      0.00000     0.39576    0.00116     0.39692
      H   16    0.09940      0.00000     0.39933    0.00128     0.40060
      H   17    0.10043      0.00000     0.39761    0.00196     0.39957
      H   18    0.11213      0.00000     0.38617    0.00170     0.38787
      H   19    0.10198      0.00000     0.39674    0.00128     0.39802
      H   20    0.10135      0.00000     0.39739    0.00126     0.39865
      H   21    0.10135      0.00000     0.39753    0.00112     0.39865
      H   22    0.10506      0.00000     0.39377    0.00117     0.39494
      H   23    0.10362      0.00000     0.39495    0.00143     0.39638
      H   24    0.10636      0.00000     0.39123    0.00240     0.39364
      H   25    0.08719      0.00000     0.41116    0.00165     0.41281
      H   26    0.07435      0.00000     0.42435    0.00130     0.42565
      H   27    0.23008      0.00000     0.26679    0.00313     0.26992
 =======================================================================
   * Total *    0.00000     16.99422    34.83949    0.16629    52.00000

 Normal termination of Gaussian 16 at Mon Dec 14 13:37:56 2020.
