 Gaussian 16, Revision A.03,

 -----------------------------------------------------------
 # opt freq B3LYP/6-31G(d) empiricaldispersion=gd3bj scf=xqc
 -----------------------------------------------------------

 --------------------------------
 CID_133362267_JID_10823_neutraal
 --------------------------------
 Symbolic Z-matrix:
 Charge =  0 Multiplicity = 1

 SCF Done:  E(RB3LYP) =  -1673.60961390     A.U. after   15 cycles
 SCF Done:  E(RB3LYP) =  -1673.61571382     A.U. after   13 cycles
 SCF Done:  E(RB3LYP) =  -1673.62051088     A.U. after   12 cycles
 SCF Done:  E(RB3LYP) =  -1673.62213977     A.U. after   13 cycles
 SCF Done:  E(RB3LYP) =  -1673.62175742     A.U. after   13 cycles
 SCF Done:  E(RB3LYP) =  -1673.62311858     A.U. after   12 cycles
 SCF Done:  E(RB3LYP) =  -1673.62329602     A.U. after   11 cycles
 SCF Done:  E(RB3LYP) =  -1673.62336334     A.U. after   11 cycles
 SCF Done:  E(RB3LYP) =  -1673.62341161     A.U. after   11 cycles
 SCF Done:  E(RB3LYP) =  -1673.62348997     A.U. after   12 cycles
 SCF Done:  E(RB3LYP) =  -1673.62353393     A.U. after    9 cycles
 SCF Done:  E(RB3LYP) =  -1673.62353425     A.U. after    9 cycles
 SCF Done:  E(RB3LYP) =  -1673.62353462     A.U. after    9 cycles
 SCF Done:  E(RB3LYP) =  -1673.62353478     A.U. after    8 cycles
 SCF Done:  E(RB3LYP) =  -1673.62353485     A.U. after    7 cycles
 Optimization completed.
    -- Stationary point found.
 Normal termination of Gaussian 16 at Mon Dec 14 19:13:15 2020.

 --------------------------------------------------------------------
 #N Geom=AllCheck Guess=TCheck SCRF=Check GenChk RB3LYP/6-31G(d) Freq
 --------------------------------------------------------------------

 Structure from the checkpoint file:  "JID_10823.chk"
 --------------------------------
 CID_133362267_JID_10823_neutraal
 --------------------------------
 Charge =  0 Multiplicity = 1

 SCF Done:  E(RB3LYP) =  -1673.62353485     A.U. after    1 cycles

  Exact polarizability: 227.403   0.892 190.233   0.456   0.239 133.362
 Approx polarizability: 334.379  -2.224 296.841  -3.921  -9.501 219.809

                      1                      2                      3
                      A                      A                      A
 Frequencies --     10.2419                44.8262                49.2140
 Red. masses --      7.5123                 4.8799                 4.7580
 Frc consts  --      0.0005                 0.0058                 0.0068
 IR Inten    --      1.5401                 2.5443                 0.2143

                      4                      5                      6
                      A                      A                      A
 Frequencies --     66.7006                70.9014               107.9192
 Red. masses --      3.6901                 4.3988                 4.7746
 Frc consts  --      0.0097                 0.0130                 0.0328
 IR Inten    --      0.3432                 0.7465                 3.0987

                      7                      8                      9
                      A                      A                      A
 Frequencies --    111.0076               121.4202               138.4058
 Red. masses --      4.4509                 2.8150                 3.0876
 Frc consts  --      0.0323                 0.0245                 0.0348
 IR Inten    --      0.6049                12.6669                 6.9395

                     10                     11                     12
                      A                      A                      A
 Frequencies --    155.9591               191.1934               208.1297
 Red. masses --      2.1135                 4.3214                 3.8284
 Frc consts  --      0.0303                 0.0931                 0.0977
 IR Inten    --     22.6988                 2.5488                 6.9952

                     13                     14                     15
                      A                      A                      A
 Frequencies --    228.4688               248.9754               258.5807
 Red. masses --      1.1265                 7.0226                 6.2170
 Frc consts  --      0.0346                 0.2565                 0.2449
 IR Inten    --      0.8653                 1.6154                 4.3377

                     16                     17                     18
                      A                      A                      A
 Frequencies --    290.4362               303.3003               335.0698
 Red. masses --      4.3119                 5.5284                 4.1639
 Frc consts  --      0.2143                 0.2996                 0.2754
 IR Inten    --      1.1011                 0.9466                 0.0483

                     19                     20                     21
                      A                      A                      A
 Frequencies --    349.5491               358.8298               384.5077
 Red. masses --      5.0593                 3.8787                 2.2127
 Frc consts  --      0.3642                 0.2942                 0.1927
 IR Inten    --      0.1906                 4.7473                 1.4355

                     22                     23                     24
                      A                      A                      A
 Frequencies --    408.3992               417.9536               435.1419
 Red. masses --      4.2083                 4.8692                 4.8381
 Frc consts  --      0.4135                 0.5011                 0.5397
 IR Inten    --      4.6165                 6.7352                20.8783

                     25                     26                     27
                      A                      A                      A
 Frequencies --    466.8859               486.9792               506.5730
 Red. masses --      4.5392                 6.9894                 6.0142
 Frc consts  --      0.5830                 0.9766                 0.9093
 IR Inten    --      7.5034                11.9595                41.4958

                     28                     29                     30
                      A                      A                      A
 Frequencies --    519.0527               543.8134               579.7823
 Red. masses --      5.8538                 6.1201                 4.0030
 Frc consts  --      0.9292                 1.0664                 0.7928
 IR Inten    --    101.6237                83.8178                 7.1551

                     31                     32                     33
                      A                      A                      A
 Frequencies --    609.3051               623.9733               666.9763
 Red. masses --      2.2854                 1.8511                 4.7842
 Frc consts  --      0.4999                 0.4246                 1.2540
 IR Inten    --     37.4148                38.5835                10.5961

                     34                     35                     36
                      A                      A                      A
 Frequencies --    691.6823               695.9851               707.5616
 Red. masses --      2.7011                 2.6813                 2.0550
 Frc consts  --      0.7614                 0.7652                 0.6062
 IR Inten    --    192.4953                74.3265                41.8420

                     37                     38                     39
                      A                      A                      A
 Frequencies --    724.3696               743.2939               783.4233
 Red. masses --      4.4899                 2.9500                 6.0033
 Frc consts  --      1.3881                 0.9603                 2.1709
 IR Inten    --     10.6595                45.9313                 4.0645

                     40                     41                     42
                      A                      A                      A
 Frequencies --    790.9514               822.9140               863.8633
 Red. masses --      3.6471                 3.6553                 1.3637
 Frc consts  --      1.3443                 1.4584                 0.5996
 IR Inten    --     95.3080                 1.6795                14.4907

                     43                     44                     45
                      A                      A                      A
 Frequencies --    871.4941               898.6786               924.8517
 Red. masses --      2.6100                 2.5615                 1.5621
 Frc consts  --      1.1679                 1.2189                 0.7872
 IR Inten    --     20.1078               164.7711                 8.2583

                     46                     47                     48
                      A                      A                      A
 Frequencies --    934.9485               968.9083               986.6188
 Red. masses --      1.3336                 1.4354                 1.4857
 Frc consts  --      0.6868                 0.7939                 0.8521
 IR Inten    --      3.2036                 7.0964                 1.7962

                     49                     50                     51
                      A                      A                      A
 Frequencies --    992.7250               993.5770               997.7651
 Red. masses --      2.5068                 1.4936                 1.3561
 Frc consts  --      1.4556                 0.8687                 0.7954
 IR Inten    --      5.7788                28.4831                14.4299

                     52                     53                     54
                      A                      A                      A
 Frequencies --    999.0842              1043.7078              1062.3048
 Red. masses --      1.3114                 2.2039                 4.4200
 Frc consts  --      0.7713                 1.4145                 2.9388
 IR Inten    --      7.3266                 3.5157                35.6124

                     55                     56                     57
                      A                      A                      A
 Frequencies --   1077.3516              1104.7428              1109.1723
 Red. masses --      3.5199                 2.8076                 5.7852
 Frc consts  --      2.4071                 2.0188                 4.1934
 IR Inten    --      1.9097                64.8438               162.9222

                     58                     59                     60
                      A                      A                      A
 Frequencies --   1116.9523              1129.2988              1144.7192
 Red. masses --      1.7717                 2.3410                 1.1423
 Frc consts  --      1.3023                 1.7590                 0.8819
 IR Inten    --     54.1235                46.0559                18.8627

                     61                     62                     63
                      A                      A                      A
 Frequencies --   1160.6062              1182.2263              1195.5891
 Red. masses --      4.5527                 1.1241                 1.3659
 Frc consts  --      3.6132                 0.9257                 1.1503
 IR Inten    --    225.4169                 0.1916                24.7504

                     64                     65                     66
                      A                      A                      A
 Frequencies --   1224.5341              1282.9191              1301.8587
 Red. masses --      1.2264                 2.6772                 1.2953
 Frc consts  --      1.0835                 2.5961                 1.2934
 IR Inten    --      6.0783                53.8011                 4.9707

                     67                     68                     69
                      A                      A                      A
 Frequencies --   1307.2660              1325.8024              1336.8895
 Red. masses --      2.8298                 1.3211                 1.7645
 Frc consts  --      2.8492                 1.3682                 1.8580
 IR Inten    --     85.7457                 1.8744                26.5261

                     70                     71                     72
                      A                      A                      A
 Frequencies --   1340.7433              1349.4579              1366.9299
 Red. masses --      3.7957                 4.7852                 1.8142
 Frc consts  --      4.0201                 5.1342                 1.9973
 IR Inten    --     46.5211                98.5632               127.8342

                     73                     74                     75
                      A                      A                      A
 Frequencies --   1374.2182              1395.3635              1423.1534
 Red. masses --      1.4788                 1.7094                 1.8603
 Frc consts  --      1.6454                 1.9610                 2.2199
 IR Inten    --     59.7133                 0.9134                 3.3972

                     76                     77                     78
                      A                      A                      A
 Frequencies --   1471.6267              1481.1310              1488.4980
 Red. masses --      2.2392                 1.1140                 1.0561
 Frc consts  --      2.8572                 1.4399                 1.3786
 IR Inten    --     24.2313                 6.7034                 3.6668

                     79                     80                     81
                      A                      A                      A
 Frequencies --   1510.4912              1518.6500              1524.9070
 Red. masses --      2.2416                 1.0865                 1.1164
 Frc consts  --      3.0133                 1.4764                 1.5296
 IR Inten    --     73.7143                 7.8414                14.9038

                     82                     83                     84
                      A                      A                      A
 Frequencies --   1585.3858              1620.9087              1638.6756
 Red. masses --      2.9793                 1.1003                 2.1956
 Frc consts  --      4.4119                 1.7032                 3.4737
 IR Inten    --     53.4658                23.6751                44.9264

                     85                     86                     87
                      A                      A                      A
 Frequencies --   1656.9948              1703.6885              3047.1260
 Red. masses --      4.6337                 5.8745                 1.0599
 Frc consts  --      7.4958                10.0463                 5.7980
 IR Inten    --    285.2818                 1.3899                38.9717

                     88                     89                     90
                      A                      A                      A
 Frequencies --   3049.8932              3071.0686              3075.7949
 Red. masses --      1.0604                 1.1031                 1.1033
 Frc consts  --      5.8115                 6.1295                 6.1500
 IR Inten    --     13.1154                24.3709                 4.8982

                     91                     92                     93
                      A                      A                      A
 Frequencies --   3081.5300              3109.6867              3182.6981
 Red. masses --      1.0287                 1.0886                 1.1069
 Frc consts  --      5.7556                 6.2024                 6.6060
 IR Inten    --      0.3899                45.4758                 0.4219

                     94                     95                     96
                      A                      A                      A
 Frequencies --   3192.0983              3197.0923              3219.8875
 Red. masses --      1.1079                 1.0854                 1.1027
 Frc consts  --      6.6515                 6.5366                 6.7358
 IR Inten    --      0.3263                 5.4399                26.6879

                     97                     98                     99
                      A                      A                      A
 Frequencies --   3227.6636              3230.8328              3243.5062
 Red. masses --      1.0891                 1.0907                 1.0932
 Frc consts  --      6.6851                 6.7081                 6.7758
 IR Inten    --      2.0417                 6.7886                 1.6210

                    100                    101                    102
                      A                      A                      A
 Frequencies --   3486.7429              3513.9627              3597.5424
 Red. masses --      1.0469                 1.0780                 1.0975
 Frc consts  --      7.4990                 7.8423                 8.3687
 IR Inten    --     34.7197               166.7546                30.4994

 - Thermochemistry -
 -------------------
 Temperature   298.150 Kelvin.  Pressure   1.00000 Atm.
 Atom     1 has atomic number  6 and mass  12.00000

 Molecular mass:   316.05515 amu.
 Principal axes and moments of inertia in atomic units:
                           1         2         3
     Eigenvalues --  5113.076828670.14434**********
           X            0.99959   0.02841   0.00474
           Y           -0.02847   0.99952   0.01202
           Z           -0.00440  -0.01215   0.99992
 This molecule is an asymmetric top.
 Rotational symmetry number  1.
 Warning -- assumption of classical behavior for rotation
           may cause significant error
 Rotational temperatures (Kelvin)      0.01694     0.00999     0.00693
 Rotational constants (GHZ):           0.35297     0.20816     0.14432
 Zero-point vibrational energy     740339.3 (Joules/Mol)
                                  176.94533 (Kcal/Mol)
 Warning -- explicit consideration of  31 degrees of freedom as
           vibrations may cause significant error
 Vibrational temperatures:     14.74    64.49    70.81    95.97   102.01
          (Kelvin)            155.27   159.72   174.70   199.14   224.39
                              275.08   299.45   328.72   358.22   372.04
                              417.87   436.38   482.09   502.92   516.28
                              553.22   587.60   601.34   626.07   671.74
                              700.65   728.85   746.80   782.43   834.18
                              876.65   897.76   959.63   995.18  1001.37
                             1018.02  1042.21  1069.43  1127.17  1138.00
                             1183.99  1242.91  1253.89  1293.00  1330.66
                             1345.18  1394.04  1419.52  1428.31  1429.54
                             1435.56  1437.46  1501.66  1528.42  1550.07
                             1589.48  1595.85  1607.05  1624.81  1647.00
                             1669.85  1700.96  1720.19  1761.83  1845.83
                             1873.08  1880.86  1907.53  1923.49  1929.03
                             1941.57  1966.71  1977.19  2007.62  2047.60
                             2117.34  2131.02  2141.62  2173.26  2185.00
                             2194.00  2281.02  2332.13  2357.69  2384.05
                             2451.23  4384.13  4388.12  4418.58  4425.38
                             4433.63  4474.15  4579.19  4592.72  4599.90
                             4632.70  4643.89  4648.45  4666.68  5016.65
                             5055.81  5176.06

 Zero-point correction=                           0.281980 (Hartree/Particle)
 Thermal correction to Energy=                    0.301576
 Thermal correction to Enthalpy=                  0.302520
 Thermal correction to Gibbs Free Energy=         0.232147
 Sum of electronic and zero-point Energies=          -1673.341555
 Sum of electronic and thermal Energies=             -1673.321959
 Sum of electronic and thermal Enthalpies=           -1673.321015
 Sum of electronic and thermal Free Energies=        -1673.391387

                     E (Thermal)             CV                S
                      KCal/Mol        Cal/Mol-Kelvin    Cal/Mol-Kelvin
 Total                  189.241             74.528            148.111
 Electronic               0.000              0.000              0.000
 Translational            0.889              2.981             43.148
 Rotational               0.889              2.981             34.671
 Vibrational            187.464             68.567             70.292
 Vibration     1          0.593              1.987              7.964
 Vibration     2          0.595              1.979              5.034
 Vibration     3          0.595              1.978              4.849
 Vibration     4          0.598              1.970              4.248
 Vibration     5          0.598              1.968              4.128
 Vibration     6          0.606              1.943              3.306
 Vibration     7          0.607              1.940              3.251
 Vibration     8          0.609              1.931              3.078
 Vibration     9          0.614              1.915              2.826
 Vibration    10          0.620              1.896              2.598
 Vibration    11          0.634              1.852              2.216
 Vibration    12          0.641              1.828              2.060
 Vibration    13          0.651              1.798              1.891
 Vibration    14          0.662              1.764              1.738
 Vibration    15          0.667              1.748              1.671
 Vibration    16          0.686              1.692              1.471
 Vibration    17          0.695              1.667              1.399
 Vibration    18          0.716              1.605              1.236
 Vibration    19          0.727              1.576              1.168
 Vibration    20          0.734              1.557              1.127
 Vibration    21          0.753              1.503              1.021
 Vibration    22          0.773              1.452              0.932
 Vibration    23          0.781              1.431              0.899
 Vibration    24          0.796              1.394              0.842
 Vibration    25          0.824              1.324              0.746
 Vibration    26          0.843              1.279              0.691
 Vibration    27          0.862              1.235              0.642
 Vibration    28          0.874              1.208              0.612
 Vibration    29          0.899              1.153              0.557
 Vibration    30          0.936              1.075              0.486
 Vibration    31          0.968              1.012              0.434

 Optimization completed.
    -- Stationary point found.
 Normal termination of Gaussian 16 at Mon Dec 14 19:33:46 2020.

 ----------------------------------------------------------------------
 # B3LYP/6-311++G(d,p) empiricaldispersion=gd3bj scf=xqc pop=npa geom=c
 heck
 ----------------------------------------------------------------------

 ----------------------------------------
 CID_133362267_JID_10823_Energie_neutraal
 ----------------------------------------
 Structure from the checkpoint file:  "JID_10823.chk"
 Charge =  0 Multiplicity = 1

 SCF Done:  E(RB3LYP) =  -1673.92977410     A.U. after   17 cycles
 Normal termination of Gaussian 16 at Mon Dec 14 19:44:15 2020.

 ----------------------------------------------------------------------
 # B3LYP/6-311++G(d,p) empiricaldispersion=gd3bj scf=xqc pop=npa geom=c
 heck
 ----------------------------------------------------------------------

 --------------------------------------
 CID_133362267_JID_10823_Energie_kation
 --------------------------------------
 Structure from the checkpoint file:  "JID_10823.chk"
 Charge =  1 Multiplicity = 2

 SCF Done:  E(UB3LYP) =  -1673.63248732     A.U. after   28 cycles
 Normal termination of Gaussian 16 at Mon Dec 14 20:08:27 2020.
 Gaussian 16:  ES64L-G16RevA.03 25-Dec-2016

 ----------------------------------------------------------------------
 # B3LYP/6-311++G(d,p) empiricaldispersion=gd3bj scf=xqc pop=npa geom=c
 heck
 ----------------------------------------------------------------------

 -------------------------------------
 CID_133362267_JID_10823_Energie_anion
 -------------------------------------
 Structure from the checkpoint file:  "JID_10823.chk"
 Charge = -1 Multiplicity = 2

                         Standard orientation:
 ---------------------------------------------------------------------
 Center     Atomic      Atomic             Coordinates (Angstroms)
 Number     Number       Type             X           Y           Z
 ---------------------------------------------------------------------
      1          6           0       -0.718037    3.089768    1.570261
      2         16           0       -0.265239    2.766235   -0.146862
      3          8           0       -1.475273    3.008914   -0.966058
      4          8           0        0.979711    3.484775   -0.441985
      5          6           0        0.072670    1.009089   -0.140719
      6          6           0       -0.984311    0.053669   -0.051594
      7          6           0       -0.604880   -1.305355    0.051915
      8          6           0        0.730233   -1.679746    0.041857
      9          6           0        1.736292   -0.718469   -0.073889
     10          6           0        1.407986    0.630903   -0.168356
     11         16           0        3.440843   -1.216560   -0.118006
     12          8           0        3.463808   -2.683958   -0.126725
     13          8           0        4.142768   -0.422890   -1.129091
     14          7           0        4.033708   -0.656493    1.375236
     15          7           0       -2.290497    0.465114   -0.040274
     16          6           0       -3.452415   -0.417647   -0.047985
     17          6           0       -3.536069   -1.412076   -1.253995
     18          6           0       -3.813674   -2.744090   -0.608453
     19          6           0       -3.844679   -2.675860    0.725655
     20          6           0       -3.592971   -1.284156    1.243453
     21          1           0       -1.026704    4.136383    1.624319
     22          1           0        0.154195    2.909871    2.200653
     23          1           0       -1.545222    2.429571    1.839773
     24          1           0       -1.363105   -2.074722    0.117379
     25          1           0        1.004558   -2.727007    0.105116
     26          1           0        2.174114    1.392576   -0.263033
     27          1           0        4.095813   -1.431515    2.033295
     28          1           0        4.954374   -0.251090    1.213491
     29          1           0       -2.436841    1.385651   -0.444549
     30          1           0       -4.304087    0.263573   -0.100412
     31          1           0       -4.326635   -1.117805   -1.955246
     32          1           0       -2.602256   -1.420416   -1.830629
     33          1           0       -3.959538   -3.651327   -1.187704
     34          1           0       -4.020354   -3.518888    1.387556
     35          1           0       -2.686309   -1.229630    1.859700
     36          1           0       -4.413125   -0.921281    1.875408
 ---------------------------------------------------------------------

 SCF Done:  E(UB3LYP) =  -1673.93629363     A.U. after   33 cycles
 SCF Done:  E(UB3LYP) =  -1673.93629363     a.u. after    1 cycles

 The electronic state is 2-A.
 Alpha  occ. eigenvalues --  -88.95589 -88.93023 -19.01158 -19.00956 -18.99929
 Alpha  occ. eigenvalues --  -18.99899 -14.24294 -14.21361 -10.11791 -10.10555
 Alpha  occ. eigenvalues --  -10.10144 -10.08355 -10.08271 -10.08027 -10.07806
 Alpha  occ. eigenvalues --  -10.07382 -10.06818 -10.06718 -10.04633 -10.04301
 Alpha  occ. eigenvalues --   -8.01766  -7.99381  -5.98088  -5.98022  -5.97801
 Alpha  occ. eigenvalues --   -5.95693  -5.95561  -5.95461  -1.01297  -0.99168
 Alpha  occ. eigenvalues --   -0.90459  -0.89022  -0.83658  -0.80987  -0.75374
 Alpha  occ. eigenvalues --   -0.73513  -0.67897  -0.65068  -0.63908  -0.62308
 Alpha  occ. eigenvalues --   -0.61041  -0.55653  -0.54163  -0.50483  -0.48081
 Alpha  occ. eigenvalues --   -0.46791  -0.45037  -0.43615  -0.42824  -0.42007
 Alpha  occ. eigenvalues --   -0.41459  -0.39916  -0.38252  -0.37504  -0.37076
 Alpha  occ. eigenvalues --   -0.36468  -0.34997  -0.33712  -0.32917  -0.32314
 Alpha  occ. eigenvalues --   -0.31904  -0.31511  -0.30601  -0.29919  -0.29285
 Alpha  occ. eigenvalues --   -0.28436  -0.26655  -0.26425  -0.25620  -0.25563
 Alpha  occ. eigenvalues --   -0.24636  -0.22445  -0.21907  -0.21259  -0.21011
 Alpha  occ. eigenvalues --   -0.20627  -0.20362  -0.19420  -0.18375  -0.17869
 Alpha  occ. eigenvalues --   -0.16164  -0.15262  -0.10206   0.04017
 Alpha virt. eigenvalues --    0.05712   0.06402   0.07260   0.07640   0.08279
 Alpha virt. eigenvalues --    0.08844   0.09331   0.09927   0.10104   0.10520
 Alpha virt. eigenvalues --    0.11098   0.11570   0.12026   0.12427   0.13121

  Beta  occ. eigenvalues --  -88.95585 -88.93011 -19.01163 -19.00948 -18.99898
  Beta  occ. eigenvalues --  -18.99852 -14.24274 -14.21313 -10.11786 -10.10376
  Beta  occ. eigenvalues --  -10.10126 -10.08349 -10.08264 -10.08015 -10.07794
  Beta  occ. eigenvalues --  -10.07441 -10.06622 -10.06562 -10.04645 -10.03833
  Beta  occ. eigenvalues --   -8.01762  -7.99366  -5.98078  -5.98019  -5.97798
  Beta  occ. eigenvalues --   -5.95685  -5.95512  -5.95453  -1.01290  -0.99025
  Beta  occ. eigenvalues --   -0.90457  -0.88918  -0.83485  -0.80961  -0.75214
  Beta  occ. eigenvalues --   -0.73259  -0.67630  -0.64876  -0.63454  -0.62276
  Beta  occ. eigenvalues --   -0.60984  -0.55460  -0.53640  -0.50388  -0.47895
  Beta  occ. eigenvalues --   -0.46661  -0.45001  -0.43558  -0.42703  -0.41915
  Beta  occ. eigenvalues --   -0.41360  -0.39878  -0.38101  -0.37299  -0.36884
  Beta  occ. eigenvalues --   -0.36385  -0.34931  -0.33627  -0.32759  -0.32229
  Beta  occ. eigenvalues --   -0.31795  -0.31410  -0.30447  -0.29894  -0.29073
  Beta  occ. eigenvalues --   -0.28287  -0.26622  -0.25978  -0.25556  -0.25224
  Beta  occ. eigenvalues --   -0.24496  -0.22384  -0.21806  -0.21212  -0.20914
  Beta  occ. eigenvalues --   -0.20391  -0.20272  -0.19285  -0.17967  -0.17701
  Beta  occ. eigenvalues --   -0.16130  -0.13594  -0.09555
  Beta virt. eigenvalues --    0.05914   0.06454   0.07302   0.07747   0.08255
  Beta virt. eigenvalues --    0.08996   0.09259   0.09717   0.10038   0.10132
  Beta virt. eigenvalues --    0.10537   0.11048   0.11570   0.11935   0.12536

 Mulliken charges and spin densities:
               1          2
     1  C   -0.580307   0.006504
     2  S   -0.017738   0.145138
     3  O   -0.193615  -0.006180
     4  O   -0.069877  -0.005056
     5  C   -0.022116   0.254984
     6  C   -0.270289   0.197782
     7  C   -0.050419  -0.068639
     8  C   -0.486881   0.394048
     9  C   -0.088187  -0.203052
    10  C   -0.491864   0.047579
    11  S    0.511881  -0.196526
    12  O   -0.192811  -0.001678
    13  O   -0.248113   0.007667
    14  N   -0.344478   0.002364
    15  N   -0.060463   0.069997
    16  C   -0.123907  -0.197861
    17  C   -0.087723  -0.264011
    18  C   -0.068477  -0.028049
    19  C   -0.170250   0.004315
    20  C   -0.078308  -0.257569
    21  H    0.181033   0.004856
    22  H    0.180154   0.012226
    23  H    0.221291   0.006066
    24  H    0.116574  -0.027314
    25  H    0.208941  -0.007330
    26  H    0.268178   0.024197
    27  H    0.230329   0.035761
    28  H    0.222981   0.050479
    29  H    0.289028   0.017087
    30  H   -0.050452   0.258470
    31  H   -0.024200   0.180307
    32  H    0.185949  -0.004978
    33  H    0.073501   0.085537
    34  H   -0.013638   0.169365
    35  H    0.185500  -0.008465
    36  H   -0.141226   0.301980
 Sum of Mulliken charges =  -1.00000   1.00000

 Dipole moment (field-independent basis, Debye):
    X=             -1.5544    Y=             -1.0773    Z=              5.1778  Tot=              5.5123
 Quadrupole moment (field-independent basis, Debye-Ang):
   XX=           -189.6452   YY=           -177.4917   ZZ=           -147.0941
   XY=              2.5243   XZ=             12.3499   YZ=              8.3816

 Summary of Natural Population Analysis:

                                       Natural Population
                Natural  -----------------------------------------------
    Atom  No    Charge         Core      Valence    Rydberg      Total
 -----------------------------------------------------------------------
      C    1   -0.38963      0.99962     2.38390    0.00612     3.38963
      S    2    1.04620      4.99920     1.86116    0.09343     6.95380
      O    3   -0.48378      0.99991     3.47741    0.00646     4.48378
      O    4   -0.47034      0.99991     3.46433    0.00611     4.47034
      C    5   -0.13303      0.99936     2.11979    0.01388     3.13303
      C    6    0.13832      0.99947     1.85026    0.01196     2.86168
      C    7   -0.15026      0.99954     2.14318    0.00754     3.15026
      C    8    0.00985      0.99952     1.98138    0.00925     2.99015
      C    9   -0.18301      0.99935     2.16840    0.01525     3.18301
      C   10   -0.05410      0.99946     2.04338    0.01127     3.05410
      S   11    1.09248      4.99924     1.80506    0.10322     6.90752
      O   12   -0.47046      0.99991     3.46545    0.00510     4.47046
      O   13   -0.46673      0.99991     3.46147    0.00536     4.46673
      N   14   -0.51539      0.99979     3.00478    0.01082     4.01539
      N   15   -0.31659      0.99965     2.80625    0.01069     3.81659
      C   16   -0.00158      0.99961     1.98914    0.01282     3.00158
      C   17   -0.21615      0.99961     2.20799    0.00854     3.21615
      C   18   -0.09399      0.99953     2.08578    0.00868     3.09399
      C   19   -0.09768      0.99953     2.08866    0.00950     3.09768
      C   20   -0.21355      0.99961     2.20455    0.00939     3.21355
      H   21    0.11095      0.00000     0.38811    0.00093     0.38905
      H   22    0.11137      0.00000     0.38693    0.00169     0.38863
      H   23    0.11385      0.00000     0.38433    0.00182     0.38615
      H   24    0.10284      0.00000     0.39512    0.00204     0.39716
      H   25    0.10361      0.00000     0.39527    0.00112     0.39639
      H   26    0.11954      0.00000     0.37888    0.00157     0.38046
      H   27    0.18890      0.00000     0.30878    0.00232     0.31110
      H   28    0.18991      0.00000     0.30724    0.00285     0.31009
      H   29    0.20802      0.00000     0.28898    0.00300     0.29198
      H   30    0.09970      0.00000     0.39924    0.00106     0.40030
      H   31    0.10155      0.00000     0.39735    0.00110     0.39845
      H   32    0.11224      0.00000     0.38667    0.00108     0.38776
      H   33    0.09726      0.00000     0.40197    0.00077     0.40274
      H   34    0.09770      0.00000     0.40152    0.00077     0.40230
      H   35    0.11053      0.00000     0.38838    0.00109     0.38947
      H   36    0.10143      0.00000     0.39741    0.00115     0.39857
 =======================================================================
   * Total *    0.00000     27.99171    54.61851    0.38978    83.00000

 Normal termination of Gaussian 16 at Mon Dec 14 20:37:28 2020.
