 Gaussian 16, Revision A.03,

 -----------------------------------------------------------
 # opt freq B3LYP/6-31G(d) empiricaldispersion=gd3bj scf=xqc
 -----------------------------------------------------------

 --------------------------------
 CID_116117389_JID_10082_neutraal
 --------------------------------
 Symbolic Z-matrix:
 Charge =  0 Multiplicity = 1

 SCF Done:  E(RB3LYP) =  -899.043178805     A.U. after   15 cycles
 SCF Done:  E(RB3LYP) =  -899.042081356     A.U. after   14 cycles
 SCF Done:  E(RB3LYP) =  -899.050511114     A.U. after   13 cycles
 SCF Done:  E(RB3LYP) =  -898.967018661     A.U. after   14 cycles
 SCF Done:  E(RB3LYP) =  -899.051179568     A.U. after   12 cycles
 SCF Done:  E(RB3LYP) =  -899.052410539     A.U. after   12 cycles
 SCF Done:  E(RB3LYP) =  -899.052723550     A.U. after   12 cycles
 SCF Done:  E(RB3LYP) =  -899.052584289     A.U. after   12 cycles
 SCF Done:  E(RB3LYP) =  -899.053115935     A.U. after   12 cycles
 SCF Done:  E(RB3LYP) =  -899.053211665     A.U. after   12 cycles
 SCF Done:  E(RB3LYP) =  -899.053297461     A.U. after    8 cycles
 SCF Done:  E(RB3LYP) =  -899.053297749     A.U. after    7 cycles
 SCF Done:  E(RB3LYP) =  -899.053297880     A.U. after    7 cycles
 SCF Done:  E(RB3LYP) =  -899.053297934     A.U. after    7 cycles
 Optimization completed.
    -- Stationary point found.
 Normal termination of Gaussian 16 at Sun Dec 13 16:45:27 2020.

 --------------------------------------------------------------------
 #N Geom=AllCheck Guess=TCheck SCRF=Check GenChk RB3LYP/6-31G(d) Freq
 --------------------------------------------------------------------

 Structure from the checkpoint file:  "JID_10082.chk"
 --------------------------------
 CID_116117389_JID_10082_neutraal
 --------------------------------
 Charge =  0 Multiplicity = 1

 SCF Done:  E(RB3LYP) =  -899.053297934     A.U. after    1 cycles

  Exact polarizability: 207.864 -19.390 189.037 -25.619  -4.345 129.189
 Approx polarizability: 298.932 -36.592 304.163 -62.142 -13.109 212.461

                      1                      2                      3
                      A                      A                      A
 Frequencies --     28.3364                40.4296                64.5661
 Red. masses --      3.9448                 5.1133                 4.1270
 Frc consts  --      0.0019                 0.0049                 0.0101
 IR Inten    --      0.8948                 0.1566                 1.1158

                      4                      5                      6
                      A                      A                      A
 Frequencies --     75.3619                91.2453               130.8829
 Red. masses --      4.4410                 4.6915                 3.7517
 Frc consts  --      0.0149                 0.0230                 0.0379
 IR Inten    --      4.3392                 1.3182                 4.2880

                      7                      8                      9
                      A                      A                      A
 Frequencies --    149.0345               171.8559               198.0338
 Red. masses --      4.7897                 4.1274                 1.4437
 Frc consts  --      0.0627                 0.0718                 0.0334
 IR Inten    --      1.8122                 0.7434                 1.1527

                     10                     11                     12
                      A                      A                      A
 Frequencies --    213.9109               227.5522               243.4771
 Red. masses --      3.9474                 1.9968                 3.1707
 Frc consts  --      0.1064                 0.0609                 0.1107
 IR Inten    --      3.5832                 4.0088                 1.9588

                     13                     14                     15
                      A                      A                      A
 Frequencies --    248.4117               273.7546               288.6261
 Red. masses --      1.1681                 4.0536                 2.5474
 Frc consts  --      0.0425                 0.1790                 0.1250
 IR Inten    --      3.5947                 7.8651                15.6650

                     16                     17                     18
                      A                      A                      A
 Frequencies --    301.0711               307.3959               340.9834
 Red. masses --      2.8708                 1.4098                 1.0802
 Frc consts  --      0.1533                 0.0785                 0.0740
 IR Inten    --     16.8989                52.5757                 0.5424

                     19                     20                     21
                      A                      A                      A
 Frequencies --    355.9815               371.6058               411.4485
 Red. masses --      2.5084                 4.6606                 3.2005
 Frc consts  --      0.1873                 0.3792                 0.3192
 IR Inten    --      6.2852                 2.1759                 7.2175

                     22                     23                     24
                      A                      A                      A
 Frequencies --    416.0652               432.5869               450.8029
 Red. masses --      2.8002                 2.5779                 3.1317
 Frc consts  --      0.2856                 0.2842                 0.3750
 IR Inten    --      4.0678                 1.7238                 1.2537

                     25                     26                     27
                      A                      A                      A
 Frequencies --    471.8560               482.5499               507.2541
 Red. masses --      3.2237                 3.3219                 2.7009
 Frc consts  --      0.4229                 0.4557                 0.4095
 IR Inten    --      1.0946                 4.4704                 4.9427

                     28                     29                     30
                      A                      A                      A
 Frequencies --    524.7478               561.2638               592.2773
 Red. masses --      3.5388                 3.5803                 4.2574
 Frc consts  --      0.5741                 0.6645                 0.8799
 IR Inten    --      0.5543                15.2624                 0.9074

                     31                     32                     33
                      A                      A                      A
 Frequencies --    599.1525               634.6401               660.8317
 Red. masses --      4.2882                 6.3923                 3.8033
 Frc consts  --      0.9070                 1.5169                 0.9786
 IR Inten    --      8.0206                 3.0426                 1.9641

                     34                     35                     36
                      A                      A                      A
 Frequencies --    671.7537               719.3496               753.4086
 Red. masses --      4.0025                 5.1954                 2.2255
 Frc consts  --      1.0642                 1.5840                 0.7443
 IR Inten    --      7.1621                 2.2839                 1.2776

                     37                     38                     39
                      A                      A                      A
 Frequencies --    760.0910               777.8812               805.4338
 Red. masses --      1.7370                 3.5990                 1.8059
 Frc consts  --      0.5913                 1.2831                 0.6903
 IR Inten    --     65.1659                 7.8947                21.3630

                     40                     41                     42
                      A                      A                      A
 Frequencies --    811.5802               849.3166               864.7914
 Red. masses --      1.7233                 4.1045                 1.4796
 Frc consts  --      0.6688                 1.7444                 0.6520
 IR Inten    --     56.4539                 2.9932                 0.3954

                     43                     44                     45
                      A                      A                      A
 Frequencies --    889.5147               912.3797               921.0727
 Red. masses --      2.4002                 4.4451                 1.9693
 Frc consts  --      1.1189                 2.1801                 0.9843
 IR Inten    --      3.0035                 0.7178                 0.8778

                     46                     47                     48
                      A                      A                      A
 Frequencies --    929.8391               953.5114               955.9839
 Red. masses --      1.3505                 2.0843                 1.6882
 Frc consts  --      0.6880                 1.1165                 0.9090
 IR Inten    --      2.9827                 2.6255                 3.7337

                     49                     50                     51
                      A                      A                      A
 Frequencies --    969.5335               971.2460              1015.5494
 Red. masses --      1.2238                 2.6669                 1.6936
 Frc consts  --      0.6778                 1.4822                 1.0291
 IR Inten    --      0.0416                 6.9547                19.7713

                     52                     53                     54
                      A                      A                      A
 Frequencies --   1024.3869              1037.9797              1050.3556
 Red. masses --      2.5804                 2.0263                 2.5204
 Frc consts  --      1.5954                 1.2863                 1.6383
 IR Inten    --      2.3199                 8.3006                15.5235

                     55                     56                     57
                      A                      A                      A
 Frequencies --   1060.7357              1066.8944              1129.4433
 Red. masses --      2.1132                 2.0629                 1.6537
 Frc consts  --      1.4009                 1.3835                 1.2429
 IR Inten    --     31.6931                25.2903                63.9092

                     58                     59                     60
                      A                      A                      A
 Frequencies --   1141.0511              1153.9085              1161.9789
 Red. masses --      1.5156                 1.7302                 1.4991
 Frc consts  --      1.1627                 1.3574                 1.1926
 IR Inten    --      0.7405                19.7403                14.5635

                     61                     62                     63
                      A                      A                      A
 Frequencies --   1180.1113              1181.4009              1220.0229
 Red. masses --      1.2221                 1.2782                 1.6051
 Frc consts  --      1.0028                 1.0511                 1.4077
 IR Inten    --     13.1693                25.6642                 3.5928

                     64                     65                     66
                      A                      A                      A
 Frequencies --   1227.4363              1241.5299              1253.3528
 Red. masses --      2.7084                 1.6303                 2.6397
 Frc consts  --      2.4042                 1.4805                 2.4432
 IR Inten    --     57.1189                 8.3205                 5.6739

                     67                     68                     69
                      A                      A                      A
 Frequencies --   1261.1573              1290.1165              1303.5074
 Red. masses --      1.7566                 1.4587                 1.9430
 Frc consts  --      1.6461                 1.4304                 1.9452
 IR Inten    --     37.3557                 5.1787                 9.3965

                     70                     71                     72
                      A                      A                      A
 Frequencies --   1308.4453              1326.1331              1338.5583
 Red. masses --      3.2401                 1.3801                 1.7447
 Frc consts  --      3.2683                 1.4300                 1.8418
 IR Inten    --     59.5521                 2.7821                 0.0663

                     73                     74                     75
                      A                      A                      A
 Frequencies --   1352.8315              1374.5119              1422.8915
 Red. masses --      1.8629                 1.5827                 1.3821
 Frc consts  --      2.0088                 1.7618                 1.6486
 IR Inten    --     13.0916                17.4327                23.4128

                     76                     77                     78
                      A                      A                      A
 Frequencies --   1424.2848              1429.6709              1440.6249
 Red. masses --      2.6179                 2.8763                 1.2977
 Frc consts  --      3.1289                 3.4639                 1.5868
 IR Inten    --     42.9448                65.2865                 3.2443

                     79                     80                     81
                      A                      A                      A
 Frequencies --   1466.1223              1473.7824              1496.3657
 Red. masses --      1.6625                 1.9202                 1.1899
 Frc consts  --      2.1055                 2.4574                 1.5698
 IR Inten    --     53.4257                19.3147                 8.1706

                     82                     83                     84
                      A                      A                      A
 Frequencies --   1497.3573              1508.2541              1514.9077
 Red. masses --      2.5548                 1.1479                 1.0827
 Frc consts  --      3.3749                 1.5386                 1.4640
 IR Inten    --     31.0373                 9.9532                21.2997

                     85                     86                     87
                      A                      A                      A
 Frequencies --   1519.0270              1528.4099              1530.5532
 Red. masses --      1.0622                 1.0785                 1.0764
 Frc consts  --      1.4440                 1.4844                 1.4857
 IR Inten    --     10.6133                 5.3380                14.6479

                     88                     89                     90
                      A                      A                      A
 Frequencies --   1537.1454              1537.8508              1549.0041
 Red. masses --      1.1973                 2.3560                 1.0921
 Frc consts  --      1.6669                 3.2829                 1.5439
 IR Inten    --      3.9752                 4.1010                18.6458

                     91                     92                     93
                      A                      A                      A
 Frequencies --   1554.1751              1567.1372              1592.0395
 Red. masses --      1.0719                 1.0662                 3.8933
 Frc consts  --      1.5255                 1.5428                 5.8140
 IR Inten    --     25.4621                12.3011                20.3559

                     94                     95                     96
                      A                      A                      A
 Frequencies --   1643.0917              1684.5702              1728.3145
 Red. masses --      6.0114                 6.2076                 8.8931
 Frc consts  --      9.5621                10.3788                15.6512
 IR Inten    --      2.3231                 6.9652               247.0286

                     97                     98                     99
                      A                      A                      A
 Frequencies --   3031.5423              3047.0715              3058.1242
 Red. masses --      1.0710                 1.0566                 1.0385
 Frc consts  --      5.7991                 5.7798                 5.7223
 IR Inten    --     61.0603                34.0578                28.4990

                    100                    101                    102
                      A                      A                      A
 Frequencies --   3068.0593              3074.6754              3102.1038
 Red. masses --      1.0640                 1.0371                 1.0609
 Frc consts  --      5.9007                 5.7768                 6.0151
 IR Inten    --     18.3225                26.2294                12.7256

                    103                    104                    105
                      A                      A                      A
 Frequencies --   3118.7677              3129.8605              3138.4576
 Red. masses --      1.1019                 1.0991                 1.1008
 Frc consts  --      6.3148                 6.3434                 6.3883
 IR Inten    --     19.2028                10.5070                29.3785

                    106                    107                    108
                      A                      A                      A
 Frequencies --   3148.4491              3154.9406              3160.5198
 Red. masses --      1.1047                 1.0942                 1.0981
 Frc consts  --      6.4521                 6.4168                 6.4629
 IR Inten    --     10.1106                12.5462                20.0189

                    109                    110                    111
                      A                      A                      A
 Frequencies --   3167.2678              3172.2787              3183.9543
 Red. masses --      1.0992                 1.0941                 1.0853
 Frc consts  --      6.4966                 6.4868                 6.4826
 IR Inten    --      2.1862                 7.3135                 1.0392

                    112                    113                    114
                      A                      A                      A
 Frequencies --   3195.7610              3206.9178              3215.4070
 Red. masses --      1.0893                 1.0943                 1.0957
 Frc consts  --      6.5544                 6.6310                 6.6741
 IR Inten    --     15.4219                26.0187                21.5252

                    115                    116                    117
                      A                      A                      A
 Frequencies --   3234.7032              3439.5380              3764.1326
 Red. masses --      1.0933                 1.0851                 1.0665
 Frc consts  --      6.7401                 7.5634                 8.9027
 IR Inten    --      5.1923               584.4353                35.5237

 - Thermochemistry -
 -------------------
 Temperature   298.150 Kelvin.  Pressure   1.00000 Atm.
 Atom     1 has atomic number  6 and mass  12.00000

 Molecular mass:   275.16338 amu.
 Principal axes and moments of inertia in atomic units:
                           1         2         3
     Eigenvalues --  3130.342536688.987638149.10022
           X            0.99996   0.00903   0.00086
           Y           -0.00903   0.99995   0.00485
           Z           -0.00082  -0.00486   0.99999
 This molecule is an asymmetric top.
 Rotational symmetry number  1.
 Warning -- assumption of classical behavior for rotation
           may cause significant error
 Rotational temperatures (Kelvin)      0.02767     0.01295     0.01063
 Rotational constants (GHZ):           0.57653     0.26981     0.22147
 Zero-point vibrational energy     924379.5 (Joules/Mol)
                                  220.93201 (Kcal/Mol)
 Warning -- explicit consideration of  31 degrees of freedom as
           vibrations may cause significant error
 Vibrational temperatures:     40.77    58.17    92.90   108.43   131.28
          (Kelvin)            188.31   214.43   247.26   284.93   307.77
                              327.40   350.31   357.41   393.87   415.27
                              433.17   442.27   490.60   512.18   534.66
                              591.98   598.63   622.40   648.60   678.90
                              694.28   729.83   755.00   807.53   852.15
                              862.05   913.11   950.79   966.50  1034.98
                             1083.99  1093.60  1119.20  1158.84  1167.68
                             1221.98  1244.24  1279.81  1312.71  1325.22
                             1337.83  1371.89  1375.45  1394.94  1397.41
                             1461.15  1473.86  1493.42  1511.23  1526.16
                             1535.02  1625.02  1641.72  1660.22  1671.83
                             1697.92  1699.77  1755.34  1766.01  1786.28
                             1803.30  1814.52  1856.19  1875.46  1882.56
                             1908.01  1925.89  1946.42  1977.62  2047.22
                             2049.23  2056.98  2072.74  2109.42  2120.44
                             2152.94  2154.36  2170.04  2179.61  2185.54
                             2199.04  2202.12  2211.61  2212.62  2228.67
                             2236.11  2254.76  2290.59  2364.04  2423.72
                             2486.66  4361.71  4384.06  4399.96  4414.25
                             4423.77  4463.24  4487.21  4503.17  4515.54
                             4529.92  4539.26  4547.28  4556.99  4564.20
                             4581.00  4597.99  4614.04  4626.25  4654.02
                             4948.73  5415.75

 Zero-point correction=                           0.352078 (Hartree/Particle)
 Thermal correction to Energy=                    0.370826
 Thermal correction to Enthalpy=                  0.371771
 Thermal correction to Gibbs Free Energy=         0.305741
 Sum of electronic and zero-point Energies=           -898.701220
 Sum of electronic and thermal Energies=              -898.682472
 Sum of electronic and thermal Enthalpies=            -898.681527
 Sum of electronic and thermal Free Energies=         -898.747557

                     E (Thermal)             CV                S
                      KCal/Mol        Cal/Mol-Kelvin    Cal/Mol-Kelvin
 Total                  232.697             74.302            138.971
 Electronic               0.000              0.000              0.000
 Translational            0.889              2.981             42.735
 Rotational               0.889              2.981             33.500
 Vibrational            230.920             68.341             62.735
 Vibration     1          0.593              1.984              5.943
 Vibration     2          0.594              1.981              5.238
 Vibration     3          0.597              1.971              4.313
 Vibration     4          0.599              1.965              4.008
 Vibration     5          0.602              1.955              3.633
 Vibration     6          0.612              1.922              2.933
 Vibration     7          0.618              1.904              2.685
 Vibration     8          0.626              1.877              2.415
 Vibration     9          0.637              1.843              2.151
 Vibration    10          0.644              1.820              2.010
 Vibration    11          0.651              1.799              1.898
 Vibration    12          0.659              1.774              1.777
 Vibration    13          0.662              1.765              1.742
 Vibration    14          0.676              1.722              1.572
 Vibration    15          0.685              1.695              1.482
 Vibration    16          0.693              1.672              1.411
 Vibration    17          0.697              1.660              1.376
 Vibration    18          0.721              1.594              1.208
 Vibration    19          0.731              1.563              1.140
 Vibration    20          0.743              1.530              1.073
 Vibration    21          0.775              1.445              0.922
 Vibration    22          0.779              1.435              0.905
 Vibration    23          0.793              1.399              0.850
 Vibration    24          0.810              1.359              0.793
 Vibration    25          0.829              1.312              0.732
 Vibration    26          0.839              1.289              0.703
 Vibration    27          0.862              1.234              0.640
 Vibration    28          0.880              1.195              0.599
 Vibration    29          0.917              1.115              0.521
 Vibration    30          0.950              1.048              0.463
 Vibration    31          0.957              1.034              0.451

                           ! Non-Optimized Parameters !
 Normal termination of Gaussian 16 at Sun Dec 13 17:09:57 2020.

 ----------------------------------------------------------------------
 # B3LYP/6-311++G(d,p) empiricaldispersion=gd3bj scf=xqc pop=npa geom=c
 heck
 ----------------------------------------------------------------------

 ----------------------------------------
 CID_116117389_JID_10082_Energie_neutraal
 ----------------------------------------
 Structure from the checkpoint file:  "JID_10082.chk"
 Charge =  0 Multiplicity = 1

 SCF Done:  E(RB3LYP) =  -899.308729607     A.U. after   16 cycles
 Normal termination of Gaussian 16 at Sun Dec 13 17:19:52 2020.

 ----------------------------------------------------------------------
 # B3LYP/6-311++G(d,p) empiricaldispersion=gd3bj scf=xqc pop=npa geom=c
 heck
 ----------------------------------------------------------------------

 --------------------------------------
 CID_116117389_JID_10082_Energie_kation
 --------------------------------------
 Structure from the checkpoint file:  "JID_10082.chk"
 Charge =  1 Multiplicity = 2

 SCF Done:  E(UB3LYP) =  -899.021696456     A.U. after   33 cycles
 SCF Done:  E(UB3LYP) =  -899.021696456     a.u. after    1 cycles
 Normal termination of Gaussian 16 at Sun Dec 13 17:47:19 2020.
 Gaussian 16:  ES64L-G16RevA.03 25-Dec-2016

 ----------------------------------------------------------------------
 # B3LYP/6-311++G(d,p) empiricaldispersion=gd3bj scf=xqc pop=npa geom=c
 heck
 ----------------------------------------------------------------------

 -------------------------------------
 CID_116117389_JID_10082_Energie_anion
 -------------------------------------
 Structure from the checkpoint file:  "JID_10082.chk"
 Charge = -1 Multiplicity = 2

                         Standard orientation:
 ---------------------------------------------------------------------
 Center     Atomic      Atomic             Coordinates (Angstroms)
 Number     Number       Type             X           Y           Z
 ---------------------------------------------------------------------
      1          6           0       -1.511351   -2.406014   -0.818970
      2          6           0       -2.318901   -1.178719   -0.361036
      3          6           0       -3.695638   -1.182822   -1.047868
      4          6           0       -2.523230   -1.308984    1.160346
      5          8           0       -1.246680   -1.269051    1.823133
      6          7           0       -1.592891    0.088719   -0.701939
      7          6           0       -0.565214    0.019876   -1.742093
      8          6           0       -2.055773    1.284304   -0.207296
      9          8           0       -3.059532    1.363343    0.505815
     10          6           0       -1.247792    2.563719   -0.429388
     11          6           0       -0.129746    2.712143    0.637497
     12          6           0        0.975857    1.716242    0.491905
     13          7           0        2.078932    1.915373   -0.202170
     14          6           0        2.754544    0.700613   -0.162891
     15          6           0        3.969278    0.318553   -0.743798
     16          6           0        4.392266   -0.996758   -0.572724
     17          6           0        3.629976   -1.925846    0.163617
     18          6           0        2.423588   -1.565769    0.760382
     19          6           0        2.007927   -0.244776    0.586934
     20          7           0        0.891009    0.445293    1.017427
     21          1           0       -2.068184   -3.303632   -0.532967
     22          1           0       -0.531397   -2.451987   -0.337917
     23          1           0       -1.379318   -2.435349   -1.903057
     24          1           0       -4.240851   -2.104885   -0.816366
     25          1           0       -4.288532   -0.326953   -0.721304
     26          1           0       -3.568278   -1.131896   -2.134468
     27          1           0       -3.167170   -0.510914    1.525379
     28          1           0       -3.000384   -2.281850    1.342489
     29          1           0       -1.412528   -1.284238    2.777512
     30          1           0       -0.064117    0.975599   -1.849236
     31          1           0        0.203748   -0.707852   -1.483536
     32          1           0       -1.002804   -0.252554   -2.710961
     33          1           0       -0.819532    2.666852   -1.428131
     34          1           0       -1.964699    3.375424   -0.289005
     35          1           0        0.307414    3.710019    0.548104
     36          1           0       -0.588004    2.631326    1.629976
     37          1           0        4.551983    1.034196   -1.315359
     38          1           0        5.329262   -1.318905   -1.018030
     39          1           0        3.992202   -2.944487    0.269679
     40          1           0        1.832235   -2.275436    1.331433
     41          1           0        0.054563    0.002926    1.403262
 ---------------------------------------------------------------------

 SCF Done:  E(UB3LYP) =  -899.301379899     A.U. after   33 cycles
 SCF Done:  E(UB3LYP) =  -899.301379899     a.u. after    1 cycles

 The electronic state is 2-A.
 Alpha  occ. eigenvalues --  -19.03293 -18.99154 -14.25381 -14.25295 -14.19952
 Alpha  occ. eigenvalues --  -10.17920 -10.14277 -10.13078 -10.11130 -10.11127
 Alpha  occ. eigenvalues --  -10.10835 -10.10030 -10.09827 -10.09532 -10.08095
 Alpha  occ. eigenvalues --  -10.07973 -10.07929 -10.07877 -10.06636 -10.06588
 Alpha  occ. eigenvalues --   -0.94555  -0.92925  -0.91722  -0.84227  -0.77835
 Alpha  occ. eigenvalues --   -0.75372  -0.71884  -0.69877  -0.64987  -0.63992
 Alpha  occ. eigenvalues --   -0.62361  -0.59386  -0.58473  -0.57737  -0.52496
 Alpha  occ. eigenvalues --   -0.51534  -0.50642  -0.48715  -0.44472  -0.42571
 Alpha  occ. eigenvalues --   -0.42409  -0.41890  -0.40583  -0.39554  -0.38616
 Alpha  occ. eigenvalues --   -0.37991  -0.35719  -0.35302  -0.34993  -0.34254
 Alpha  occ. eigenvalues --   -0.33611  -0.33171  -0.32672  -0.31857  -0.31207
 Alpha  occ. eigenvalues --   -0.30282  -0.29885  -0.29011  -0.28442  -0.27942
 Alpha  occ. eigenvalues --   -0.27366  -0.27121  -0.26562  -0.26095  -0.25674
 Alpha  occ. eigenvalues --   -0.24334  -0.23455  -0.21223  -0.19411  -0.18326
 Alpha  occ. eigenvalues --   -0.15656  -0.15553  -0.13634  -0.13409   0.04090
 Alpha virt. eigenvalues --    0.06180   0.06454   0.06835   0.07163   0.07928
 Alpha virt. eigenvalues --    0.08506   0.08990   0.09154   0.09884   0.10040
 Alpha virt. eigenvalues --    0.10390   0.10697   0.11022   0.11503   0.11788

  Beta  occ. eigenvalues --  -19.03229 -18.99146 -14.25372 -14.25290 -14.19944
  Beta  occ. eigenvalues --  -10.17912 -10.14228 -10.13079 -10.11134 -10.11097
  Beta  occ. eigenvalues --  -10.10821 -10.10028 -10.09822 -10.09517 -10.08059
  Beta  occ. eigenvalues --  -10.07966 -10.07913 -10.07844 -10.06617 -10.06553
  Beta  occ. eigenvalues --   -0.94531  -0.92800  -0.91683  -0.84212  -0.77806
  Beta  occ. eigenvalues --   -0.75325  -0.71849  -0.69837  -0.64925  -0.63949
  Beta  occ. eigenvalues --   -0.62326  -0.59335  -0.58421  -0.57648  -0.52456
  Beta  occ. eigenvalues --   -0.51490  -0.50612  -0.48668  -0.44432  -0.42489
  Beta  occ. eigenvalues --   -0.42352  -0.41808  -0.40549  -0.39514  -0.38571
  Beta  occ. eigenvalues --   -0.37959  -0.35675  -0.35255  -0.34962  -0.34224
  Beta  occ. eigenvalues --   -0.33573  -0.33133  -0.32634  -0.31829  -0.31180
  Beta  occ. eigenvalues --   -0.30240  -0.29854  -0.28976  -0.28404  -0.27900
  Beta  occ. eigenvalues --   -0.27335  -0.27094  -0.26522  -0.26065  -0.25620
  Beta  occ. eigenvalues --   -0.24237  -0.23411  -0.21128  -0.19355  -0.18308
  Beta  occ. eigenvalues --   -0.15629  -0.15532  -0.13524  -0.13242
  Beta virt. eigenvalues --    0.06255   0.06682   0.07067   0.07311   0.07673
  Beta virt. eigenvalues --    0.08520   0.08640   0.09171   0.09457   0.10052
  Beta virt. eigenvalues --    0.10192   0.10475   0.10884   0.11143   0.11916

 Mulliken charges and spin densities:
               1          2
     1  C    0.285897  -0.555909
     2  C   -2.120519   1.674666
     3  C    0.302896  -0.731993
     4  C    1.561232  -1.835877
     5  O   -0.387858   0.102128
     6  N    0.454674  -0.128357
     7  C    0.173004  -0.597445
     8  C   -0.069015  -0.154177
     9  O   -0.258235   0.000626
    10  C   -0.035771  -0.196020
    11  C   -0.113300  -0.004478
    12  C   -0.056470  -0.246213
    13  N   -0.036426   0.032457
    14  C   -0.077105  -0.060757
    15  C   -0.446165   0.259076
    16  C   -0.105903  -0.137228
    17  C    0.107059  -0.337721
    18  C   -0.211691   0.134493
    19  C   -0.275228   0.158982
    20  N   -0.072871  -0.043590
    21  H   -0.319403   0.504624
    22  H    0.138909  -0.023541
    23  H   -0.231443   0.382647
    24  H   -0.018742   0.178233
    25  H    0.099099   0.102466
    26  H   -0.008325   0.152880
    27  H    0.190224   0.041751
    28  H   -0.580203   0.760472
    29  H   -0.519310   0.813829
    30  H    0.301053  -0.199400
    31  H    0.267445  -0.085963
    32  H   -0.208327   0.402596
    33  H    0.019021   0.142689
    34  H    0.074161   0.136739
    35  H    0.191336   0.019687
    36  H   -0.038717   0.233076
    37  H    0.112890   0.033748
    38  H    0.113761   0.030743
    39  H    0.038170   0.122956
    40  H   -0.186271   0.371994
    41  H    0.946465  -0.454889
 Sum of Mulliken charges =  -1.00000   1.00000

 Dipole moment (field-independent basis, Debye):
    X=              3.6802    Y=              4.1814    Z=             -4.3317  Tot=              7.0563
 Quadrupole moment (field-independent basis, Debye-Ang):
   XX=           -183.3083   YY=           -168.6493   ZZ=           -165.9855
   XY=            -11.9754   XZ=              7.6734   YZ=              6.8472

 Summary of Natural Population Analysis:

                                       Natural Population
                Natural  -----------------------------------------------
    Atom  No    Charge         Core      Valence    Rydberg      Total
 -----------------------------------------------------------------------
      C    1   -0.29384      0.99962     2.28676    0.00746     3.29384
      C    2    0.05961      0.99956     1.92392    0.01691     2.94039
      C    3   -0.29253      0.99960     2.28641    0.00651     3.29253
      C    4   -0.01284      0.99948     2.00019    0.01318     3.01284
      O    5   -0.38635      0.99989     3.37770    0.00876     4.38635
      N    6   -0.26143      0.99961     2.74843    0.01339     3.76143
      C    7   -0.18007      0.99961     2.17286    0.00760     3.18007
      C    8    0.34662      0.99963     1.63092    0.02284     2.65338
      O    9   -0.33282      0.99988     3.32730    0.00564     4.33282
      C   10   -0.22021      0.99958     2.21319    0.00744     3.22021
      C   11   -0.20776      0.99957     2.20038    0.00781     3.20776
      C   12    0.21465      0.99961     1.76693    0.01881     2.78535
      N   13   -0.26796      0.99968     2.75971    0.00858     3.76796
      C   14    0.05388      0.99945     1.93432    0.01234     2.94612
      C   15   -0.09797      0.99952     2.08994    0.00850     3.09797
      C   16   -0.11880      0.99958     2.10934    0.00987     3.11880
      C   17   -0.10550      0.99958     2.09686    0.00906     3.10550
      C   18   -0.11151      0.99952     2.10205    0.00993     3.11151
      C   19    0.06107      0.99946     1.92804    0.01143     2.93893
      N   20   -0.28815      0.99961     2.77988    0.00865     3.78815
      H   21    0.10834      0.00000     0.39045    0.00121     0.39166
      H   22    0.11034      0.00000     0.38770    0.00197     0.38966
      H   23    0.10092      0.00000     0.39801    0.00108     0.39908
      H   24    0.10228      0.00000     0.39682    0.00090     0.39772
      H   25    0.11347      0.00000     0.38559    0.00094     0.38653
      H   26    0.09949      0.00000     0.39966    0.00086     0.40051
      H   27    0.10349      0.00000     0.39487    0.00164     0.39651
      H   28    0.08468      0.00000     0.41267    0.00264     0.41532
      H   29    0.24639      0.00000     0.23282    0.02079     0.25361
      H   30    0.10557      0.00000     0.39313    0.00130     0.39443
      H   31    0.10495      0.00000     0.39362    0.00142     0.39505
      H   32    0.09357      0.00000     0.40554    0.00089     0.40643
      H   33    0.10269      0.00000     0.39613    0.00119     0.39731
      H   34    0.11227      0.00000     0.38660    0.00113     0.38773
      H   35    0.11230      0.00000     0.38663    0.00108     0.38770
      H   36    0.11062      0.00000     0.38815    0.00123     0.38938
      H   37    0.10048      0.00000     0.39815    0.00137     0.39952
      H   38    0.09665      0.00000     0.40259    0.00076     0.40335
      H   39    0.09839      0.00000     0.40086    0.00074     0.40161
      H   40    0.10976      0.00000     0.38908    0.00116     0.39024
      H   41    0.22528      0.00000     0.27127    0.00345     0.27472
 =======================================================================
   * Total *   -0.00000     19.99206    53.74547    0.26247    74.00000

 Normal termination of Gaussian 16 at Sun Dec 13 18:15:09 2020.
