 Gaussian 16, Revision A.03,

 -----------------------------------------------------------
 # opt freq B3LYP/6-31G(d) empiricaldispersion=gd3bj scf=xqc
 -----------------------------------------------------------

 ------------------------------
 CID_67985124_JID_7087_neutraal
 ------------------------------
 Symbolic Z-matrix:
 Charge =  0 Multiplicity = 1

 SCF Done:  E(RB3LYP) =  -797.062631384     A.U. after   15 cycles
 SCF Done:  E(RB3LYP) =  -797.069017817     A.U. after   13 cycles
 SCF Done:  E(RB3LYP) =  -797.070695536     A.U. after   13 cycles
 SCF Done:  E(RB3LYP) =  -797.072051119     A.U. after   12 cycles
 SCF Done:  E(RB3LYP) =  -797.072848652     A.U. after   12 cycles
 SCF Done:  E(RB3LYP) =  -797.073129622     A.U. after   12 cycles
 SCF Done:  E(RB3LYP) =  -797.073192490     A.U. after   12 cycles
 SCF Done:  E(RB3LYP) =  -797.073283561     A.U. after   10 cycles
 SCF Done:  E(RB3LYP) =  -797.073337704     A.U. after   11 cycles
 SCF Done:  E(RB3LYP) =  -797.073349861     A.U. after   10 cycles
 SCF Done:  E(RB3LYP) =  -797.074476438     A.U. after    9 cycles
 SCF Done:  E(RB3LYP) =  -797.074477215     A.U. after    8 cycles
 SCF Done:  E(RB3LYP) =  -797.074477600     A.U. after    8 cycles
 SCF Done:  E(RB3LYP) =  -797.074477782     A.U. after    8 cycles
 SCF Done:  E(RB3LYP) =  -797.074477858     A.U. after    7 cycles
 Optimization completed.
    -- Stationary point found.
 Normal termination of Gaussian 16 at Fri Dec 11 12:03:12 2020.

 --------------------------------------------------------------------
 #N Geom=AllCheck Guess=TCheck SCRF=Check GenChk RB3LYP/6-31G(d) Freq
 --------------------------------------------------------------------

 Structure from the checkpoint file:  "JID_7087.chk"
 ------------------------------
 CID_67985124_JID_7087_neutraal
 ------------------------------
 Charge =  0 Multiplicity = 1

 SCF Done:  E(RB3LYP) =  -797.074477858     A.U. after    1 cycles

  Exact polarizability: 207.808  -3.151 156.399   2.721   3.531  81.908
 Approx polarizability: 312.437  -2.895 262.951   7.322   9.034 128.134

                      1                      2                      3
                      A                      A                      A
 Frequencies --     45.6706                58.9913                87.3817
 Red. masses --      3.7834                 4.3224                 4.8485
 Frc consts  --      0.0046                 0.0089                 0.0218
 IR Inten    --      4.0018                 1.0203                 2.6688

                      4                      5                      6
                      A                      A                      A
 Frequencies --     95.4717               108.4666               183.7056
 Red. masses --      4.5178                 4.4518                 4.1826
 Frc consts  --      0.0243                 0.0309                 0.0832
 IR Inten    --      1.6861                 1.3354                 1.1069

                      7                      8                      9
                      A                      A                      A
 Frequencies --    212.5165               237.5440               257.8555
 Red. masses --      3.4098                 4.7803                 1.1890
 Frc consts  --      0.0907                 0.1589                 0.0466
 IR Inten    --      2.8438                 1.0754                 0.6859

                     10                     11                     12
                      A                      A                      A
 Frequencies --    279.9519               292.0615               294.0598
 Red. masses --      2.5188                 1.5667                 1.8057
 Frc consts  --      0.1163                 0.0787                 0.0920
 IR Inten    --      5.6017                28.3379                 1.7478

                     13                     14                     15
                      A                      A                      A
 Frequencies --    306.9631               314.6355               335.3693
 Red. masses --      1.8287                 2.5302                 1.1696
 Frc consts  --      0.1015                 0.1476                 0.0775
 IR Inten    --     14.8163                18.9401                79.4389

                     16                     17                     18
                      A                      A                      A
 Frequencies --    344.5531               359.3843               385.8253
 Red. masses --      5.0610                 5.1777                 4.3860
 Frc consts  --      0.3540                 0.3940                 0.3847
 IR Inten    --      5.5486                 9.0389                 4.2342

                     19                     20                     21
                      A                      A                      A
 Frequencies --    419.4240               454.7250               475.6712
 Red. masses --      3.9071                 3.5142                 3.9204
 Frc consts  --      0.4050                 0.4281                 0.5226
 IR Inten    --      2.6792                 5.2706                 5.7537

                     22                     23                     24
                      A                      A                      A
 Frequencies --    497.9678               536.1274               616.0312
 Red. masses --      3.9015                 3.5307                 3.7259
 Frc consts  --      0.5700                 0.5979                 0.8331
 IR Inten    --      2.0911                 4.6716                 4.5725

                     25                     26                     27
                      A                      A                      A
 Frequencies --    631.6889               660.2839               683.4913
 Red. masses --      5.2049                 2.8216                 5.5487
 Frc consts  --      1.2237                 0.7248                 1.5272
 IR Inten    --     19.5364                53.9890                 3.8248

                     28                     29                     30
                      A                      A                      A
 Frequencies --    687.6441               699.7023               709.8025
 Red. masses --      1.2698                 7.3719                 5.4976
 Frc consts  --      0.3538                 2.1265                 1.6319
 IR Inten    --     98.0037                18.7313                22.3650

                     31                     32                     33
                      A                      A                      A
 Frequencies --    719.2178               747.0650               768.2241
 Red. masses --      4.4405                 1.6918                 5.5514
 Frc consts  --      1.3533                 0.5563                 1.9303
 IR Inten    --     11.1780                70.0601                 1.5244

                     34                     35                     36
                      A                      A                      A
 Frequencies --    777.1482               780.8397               861.9309
 Red. masses --      2.2786                 1.9214                 1.3875
 Frc consts  --      0.8108                 0.6902                 0.6074
 IR Inten    --     16.7636                80.1627                12.5522

                     37                     38                     39
                      A                      A                      A
 Frequencies --    905.3574               921.5033               946.3088
 Red. masses --      2.5303                 1.2860                 1.1782
 Frc consts  --      1.2220                 0.6434                 0.6216
 IR Inten    --      7.4403                18.9081                 2.6092

                     40                     41                     42
                      A                      A                      A
 Frequencies --    981.4220               993.0422              1032.0660
 Red. masses --      1.4871                 6.1144                 3.5499
 Frc consts  --      0.8439                 3.5526                 2.2278
 IR Inten    --      1.2539                22.3387                46.7935

                     43                     44                     45
                      A                      A                      A
 Frequencies --   1086.2297              1100.9282              1118.3158
 Red. masses --      3.0482                 1.6965                 2.0531
 Frc consts  --      2.1191                 1.2115                 1.5128
 IR Inten    --     21.2398                 5.5849                 9.7080

                     46                     47                     48
                      A                      A                      A
 Frequencies --   1128.1829              1152.2838              1189.1831
 Red. masses --      2.5941                 2.1240                 1.7095
 Frc consts  --      1.9453                 1.6616                 1.4243
 IR Inten    --      8.8755                 4.9383                72.5278

                     49                     50                     51
                      A                      A                      A
 Frequencies --   1192.9117              1213.7416              1268.7277
 Red. masses --      1.8856                 2.0535                 2.1634
 Frc consts  --      1.5809                 1.7824                 2.0517
 IR Inten    --     74.5069                36.1320                32.4847

                     52                     53                     54
                      A                      A                      A
 Frequencies --   1284.6483              1310.3751              1321.5090
 Red. masses --      2.0645                 1.8016                 4.8986
 Frc consts  --      2.0074                 1.8226                 5.0404
 IR Inten    --      2.2259                67.9131                 8.8123

                     55                     56                     57
                      A                      A                      A
 Frequencies --   1350.3524              1353.6841              1377.2073
 Red. masses --      1.7457                 3.1181                 4.2741
 Frc consts  --      1.8755                 3.3665                 4.7763
 IR Inten    --     24.0918               146.8372                62.7045

                     58                     59                     60
                      A                      A                      A
 Frequencies --   1389.0094              1400.5174              1428.7446
 Red. masses --      2.9673                 1.6689                 1.2361
 Frc consts  --      3.3730                 1.9286                 1.4867
 IR Inten    --     16.5745                 8.5001                 5.4928

                     61                     62                     63
                      A                      A                      A
 Frequencies --   1449.2624              1453.3889              1514.4286
 Red. masses --      1.3253                 1.6508                 1.9375
 Frc consts  --      1.6400                 2.0545                 2.6181
 IR Inten    --      7.1859                82.6269                47.1752

                     64                     65                     66
                      A                      A                      A
 Frequencies --   1518.8449              1522.1194              1529.6968
 Red. masses --      1.0577                 3.3259                 1.4991
 Frc consts  --      1.4376                 4.5400                 2.0668
 IR Inten    --      1.5494                31.1729                 2.7797

                     67                     68                     69
                      A                      A                      A
 Frequencies --   1536.8758              1544.0559              1566.4809
 Red. masses --      1.0855                 1.0614                 3.9888
 Frc consts  --      1.5106                 1.4909                 5.7669
 IR Inten    --      4.0709                 6.6997               218.0992

                     70                     71                     72
                      A                      A                      A
 Frequencies --   1616.8980              1646.7588              1688.0159
 Red. masses --      3.4528                 4.1358                 1.3480
 Frc consts  --      5.3184                 6.6079                 2.2630
 IR Inten    --     64.6760                93.5949               105.2778

                     73                     74                     75
                      A                      A                      A
 Frequencies --   1695.5395              2961.9707              3046.8393
 Red. masses --      6.3192                 1.0821                 1.0347
 Frc consts  --     10.7036                 5.5936                 5.6591
 IR Inten    --     77.6890                40.9423                27.8184

                     76                     77                     78
                      A                      A                      A
 Frequencies --   3053.4060              3114.2579              3119.7225
 Red. masses --      1.0361                 1.1024                 1.1017
 Frc consts  --      5.6914                 6.2994                 6.3176
 IR Inten    --     18.4815                 1.5283                69.2978

                     79                     80                     81
                      A                      A                      A
 Frequencies --   3120.7038              3130.8380              3232.2649
 Red. masses --      1.1025                 1.1034                 1.0894
 Frc consts  --      6.3261                 6.3722                 6.7059
 IR Inten    --     22.5936                28.4571                 0.2617

                     82                     83                     84
                      A                      A                      A
 Frequencies --   3236.1350              3283.6291              3419.4456
 Red. masses --      1.0915                 1.0977                 1.0664
 Frc consts  --      6.7348                 6.9734                 7.3466
 IR Inten    --      0.3967                 3.4833               428.8058

                     85                     86                     87
                      A                      A                      A
 Frequencies --   3519.0678              3625.5507              3770.9536
 Red. masses --      1.0501                 1.0956                 1.0652
 Frc consts  --      7.6616                 8.4852                 8.9245
 IR Inten    --     13.4814                27.7534                54.9012

 - Thermochemistry -
 -------------------
 Temperature   298.150 Kelvin.  Pressure   1.00000 Atm.
 Atom     1 has atomic number  6 and mass  12.00000

 Molecular mass:   234.11168 amu.
 Principal axes and moments of inertia in atomic units:
                           1         2         3
     Eigenvalues --  2276.291345512.061387269.38369
           X            0.99978   0.02046  -0.00376
           Y           -0.02045   0.99979   0.00206
           Z            0.00381  -0.00198   0.99999
 This molecule is an asymmetric top.
 Rotational symmetry number  1.
 Warning -- assumption of classical behavior for rotation
           may cause significant error
 Rotational temperatures (Kelvin)      0.03805     0.01571     0.01191
 Rotational constants (GHZ):           0.79284     0.32742     0.24827
 Zero-point vibrational energy     659685.5 (Joules/Mol)
                                  157.66861 (Kcal/Mol)
 Warning -- explicit consideration of  24 degrees of freedom as
           vibrations may cause significant error
 Vibrational temperatures:     65.71    84.88   125.72   137.36   156.06
          (Kelvin)            264.31   305.76   341.77   371.00   402.79
                              420.21   423.09   441.65   452.69   482.52
                              495.73   517.07   555.12   603.46   654.25
                              684.38   716.46   771.37   886.33   908.86
                              950.00   983.39   989.37  1006.72  1021.25
                             1034.79  1074.86  1105.30  1118.14  1123.45
                             1240.13  1302.61  1325.84  1361.53  1412.05
                             1428.77  1484.91  1562.84  1583.99  1609.01
                             1623.20  1657.88  1710.97  1716.33  1746.30
                             1825.42  1848.32  1885.34  1901.36  1942.86
                             1947.65  1981.49  1998.47  2015.03  2055.64
                             2085.17  2091.10  2178.92  2185.28  2189.99
                             2200.89  2211.22  2221.55  2253.82  2326.36
                             2369.32  2428.68  2439.50  4261.62  4383.72
                             4393.17  4480.72  4488.58  4490.00  4504.58
                             4650.51  4656.08  4724.41  4919.82  5063.15
                             5216.36  5425.56

 Zero-point correction=                           0.251261 (Hartree/Particle)
 Thermal correction to Energy=                    0.266811
 Thermal correction to Enthalpy=                  0.267756
 Thermal correction to Gibbs Free Energy=         0.209033
 Sum of electronic and zero-point Energies=           -796.823217
 Sum of electronic and thermal Energies=              -796.807666
 Sum of electronic and thermal Enthalpies=            -796.806722
 Sum of electronic and thermal Free Energies=         -796.865445

                     E (Thermal)             CV                S
                      KCal/Mol        Cal/Mol-Kelvin    Cal/Mol-Kelvin
 Total                  167.427             61.089            123.592
 Electronic               0.000              0.000              0.000
 Translational            0.889              2.981             42.254
 Rotational               0.889              2.981             32.878
 Vibrational            165.649             55.127             48.461
 Vibration     1          0.595              1.979              4.997
 Vibration     2          0.596              1.974              4.491
 Vibration     3          0.601              1.958              3.718
 Vibration     4          0.603              1.952              3.545
 Vibration     5          0.606              1.942              3.296
 Vibration     6          0.631              1.862              2.290
 Vibration     7          0.644              1.822              2.022
 Vibration     8          0.656              1.783              1.821
 Vibration     9          0.667              1.749              1.676
 Vibration    10          0.680              1.711              1.534
 Vibration    11          0.687              1.689              1.462
 Vibration    12          0.689              1.685              1.450
 Vibration    13          0.697              1.660              1.379
 Vibration    14          0.702              1.646              1.338
 Vibration    15          0.716              1.605              1.234
 Vibration    16          0.723              1.586              1.191
 Vibration    17          0.734              1.556              1.125
 Vibration    18          0.755              1.500              1.016
 Vibration    19          0.782              1.428              0.894
 Vibration    20          0.813              1.350              0.782
 Vibration    21          0.832              1.304              0.722
 Vibration    22          0.853              1.255              0.663
 Vibration    23          0.891              1.170              0.574
 Vibration    24          0.976              0.998              0.423

                           ! Non-Optimized Parameters !
 Normal termination of Gaussian 16 at Fri Dec 11 12:14:43 2020.

 ----------------------------------------------------------------------
 # B3LYP/6-311++G(d,p) empiricaldispersion=gd3bj scf=xqc pop=npa geom=c
 heck
 ----------------------------------------------------------------------

 --------------------------------------
 CID_67985124_JID_7087_Energie_neutraal
 --------------------------------------
 Structure from the checkpoint file:  "JID_7087.chk"
 Charge =  0 Multiplicity = 1

 SCF Done:  E(RB3LYP) =  -797.309374270     A.U. after   16 cycles
 Normal termination of Gaussian 16 at Fri Dec 11 12:19:29 2020.

 ----------------------------------------------------------------------
 # B3LYP/6-311++G(d,p) empiricaldispersion=gd3bj scf=xqc pop=npa geom=c
 heck
 ----------------------------------------------------------------------

 ------------------------------------
 CID_67985124_JID_7087_Energie_kation
 ------------------------------------
 Structure from the checkpoint file:  "JID_7087.chk"
 Charge =  1 Multiplicity = 2

 SCF Done:  E(UB3LYP) =  -797.022930151     A.U. after   26 cycles
 Normal termination of Gaussian 16 at Fri Dec 11 12:31:00 2020.
 Gaussian 16:  ES64L-G16RevA.03 25-Dec-2016

 ----------------------------------------------------------------------
 # B3LYP/6-311++G(d,p) empiricaldispersion=gd3bj scf=xqc pop=npa geom=c
 heck
 ----------------------------------------------------------------------

 -----------------------------------
 CID_67985124_JID_7087_Energie_anion
 -----------------------------------
 Structure from the checkpoint file:  "JID_7087.chk"
 Charge = -1 Multiplicity = 2

                         Standard orientation:
 ---------------------------------------------------------------------
 Center     Atomic      Atomic             Coordinates (Angstroms)
 Number     Number       Type             X           Y           Z
 ---------------------------------------------------------------------
      1          6           0       -3.586718   -1.295332   -0.984317
      2          6           0       -2.961801   -0.981263    0.391080
      3          6           0       -2.623026   -2.279668    1.132177
      4          6           0       -1.780245   -0.034408    0.241536
      5          6           0       -0.458121   -0.468779    0.323616
      6          6           0        0.621761    0.394640    0.123975
      7          6           0        0.395844    1.770708   -0.100269
      8          6           0       -0.922687    2.217873   -0.181889
      9          6           0       -1.988383    1.334836   -0.029635
     10          8           0       -3.237996    1.878268   -0.145261
     11          8           0        1.389066    2.672601   -0.239078
     12          7           0        1.953074   -0.102202    0.142265
     13          6           0        2.455635   -1.265779   -0.354373
     14          6           0        3.820703   -1.177478   -0.121146
     15          7           0        4.090550    0.017199    0.462496
     16          7           0        2.984481    0.675907    0.632502
     17          7           0        1.671373   -2.269478   -0.902491
     18          1           0       -2.866928   -1.841333   -1.604636
     19          1           0       -3.859825   -0.383493   -1.526046
     20          1           0       -4.484644   -1.914715   -0.877143
     21          1           0       -3.728229   -0.475361    1.003547
     22          1           0       -1.935525   -2.903849    0.549777
     23          1           0       -2.160804   -2.079134    2.103972
     24          1           0       -3.532942   -2.865440    1.298370
     25          1           0       -0.247127   -1.504572    0.559892
     26          1           0       -1.115067    3.270631   -0.352037
     27          1           0       -3.901265    1.210540    0.083166
     28          1           0        2.226237    2.258092    0.079024
     29          1           0        4.596079   -1.894173   -0.347417
     30          1           0        0.859005   -1.920709   -1.403072
     31          1           0        2.208360   -2.905521   -1.480630
 ---------------------------------------------------------------------

 SCF Done:  E(UB3LYP) =  -797.307585806     A.U. after   33 cycles
 SCF Done:  E(UB3LYP) =  -797.307585806     a.u. after    1 cycles

 The electronic state is 2-A.
 Alpha  occ. eigenvalues --  -19.07028 -19.05788 -14.31781 -14.27976 -14.25274
 Alpha  occ. eigenvalues --  -14.24370 -10.17119 -10.15812 -10.15325 -10.13371
 Alpha  occ. eigenvalues --  -10.10250 -10.10206 -10.09732 -10.09409 -10.08312
 Alpha  occ. eigenvalues --  -10.07421 -10.07199  -1.01305  -0.98185  -0.97405
 Alpha  occ. eigenvalues --   -0.86200  -0.82270  -0.76977  -0.72032  -0.70096
 Alpha  occ. eigenvalues --   -0.67076  -0.64719  -0.60174  -0.57235  -0.56315
 Alpha  occ. eigenvalues --   -0.54324  -0.51511  -0.49091  -0.47929  -0.46548
 Alpha  occ. eigenvalues --   -0.43901  -0.42208  -0.40461  -0.38814  -0.37968
 Alpha  occ. eigenvalues --   -0.37434  -0.36379  -0.35734  -0.34656  -0.33977
 Alpha  occ. eigenvalues --   -0.33351  -0.32094  -0.30742  -0.29706  -0.29339
 Alpha  occ. eigenvalues --   -0.28112  -0.26519  -0.26358  -0.25399  -0.25337
 Alpha  occ. eigenvalues --   -0.25049  -0.24594  -0.20890  -0.19212  -0.15449
 Alpha  occ. eigenvalues --   -0.14221  -0.12785   0.03480
 Alpha virt. eigenvalues --    0.05175   0.05710   0.07430   0.07585   0.07879
 Alpha virt. eigenvalues --    0.08584   0.09091   0.09712   0.10231   0.10399
 Alpha virt. eigenvalues --    0.11423   0.11508   0.11798   0.12326   0.13147

  Beta  occ. eigenvalues --  -19.07006 -19.05787 -14.31781 -14.27972 -14.25265
  Beta  occ. eigenvalues --  -14.24275 -10.17115 -10.15814 -10.15315 -10.13362
  Beta  occ. eigenvalues --  -10.10238 -10.10181 -10.09724 -10.09411 -10.08306
  Beta  occ. eigenvalues --  -10.07395 -10.07159  -1.01295  -0.98142  -0.97401
  Beta  occ. eigenvalues --   -0.86138  -0.82188  -0.76957  -0.71997  -0.70044
  Beta  occ. eigenvalues --   -0.67052  -0.64695  -0.60109  -0.57207  -0.56282
  Beta  occ. eigenvalues --   -0.54286  -0.51465  -0.49020  -0.47901  -0.46492
  Beta  occ. eigenvalues --   -0.43858  -0.42117  -0.40414  -0.38790  -0.37936
  Beta  occ. eigenvalues --   -0.37404  -0.36327  -0.35701  -0.34624  -0.33954
  Beta  occ. eigenvalues --   -0.33321  -0.32068  -0.30701  -0.29673  -0.29315
  Beta  occ. eigenvalues --   -0.28090  -0.26475  -0.26303  -0.25375  -0.25304
  Beta  occ. eigenvalues --   -0.24996  -0.24570  -0.20868  -0.19198  -0.15421
  Beta  occ. eigenvalues --   -0.14179  -0.12745
  Beta virt. eigenvalues --    0.05759   0.06005   0.06896   0.07706   0.07919
  Beta virt. eigenvalues --    0.08348   0.08869   0.09506   0.09889   0.10459
  Beta virt. eigenvalues --    0.10593   0.11687   0.11836   0.12103   0.12525

 Mulliken charges and spin densities:
               1          2
     1  C    1.036584  -1.676865
     2  C   -0.250692   0.416815
     3  C    0.126929  -0.672934
     4  C    0.000225   1.420415
     5  C   -0.246673   0.028820
     6  C   -0.508714  -0.368984
     7  C    0.112416  -0.240425
     8  C    0.119475  -0.257615
     9  C   -0.171160  -0.647570
    10  O   -0.241450   0.015982
    11  O   -0.264887  -0.002181
    12  N    0.276631  -0.021847
    13  C    0.487354  -0.234764
    14  C   -0.052226  -0.532199
    15  N   -0.038391   0.026163
    16  N   -0.122837  -0.069635
    17  N   -0.190697  -0.125575
    18  H   -0.220508   0.385575
    19  H   -0.105712   0.237583
    20  H   -0.196682   0.340977
    21  H   -0.432457   0.577319
    22  H   -0.050597   0.198645
    23  H    0.051704   0.076597
    24  H   -0.317677   0.503051
    25  H    0.448211  -0.183979
    26  H    0.175653   0.025734
    27  H    0.056761   0.227524
    28  H    0.342191  -0.007609
    29  H   -0.161904   0.310719
    30  H   -0.065378   0.358821
    31  H   -0.595491   0.891443
 Sum of Mulliken charges =  -1.00000   1.00000

 Dipole moment (field-independent basis, Debye):
    X=              0.4476    Y=              4.1354    Z=              2.4241  Tot=              4.8143
 Quadrupole moment (field-independent basis, Debye-Ang):
   XX=           -182.2303   YY=           -155.3234   ZZ=           -133.0700
   XY=             -1.2102   XZ=              1.9459   YZ=            -10.6672

 Summary of Natural Population Analysis:

                                       Natural Population
                Natural  -----------------------------------------------
    Atom  No    Charge         Core      Valence    Rydberg      Total
 -----------------------------------------------------------------------
      C    1   -0.28269      0.99964     2.27710    0.00594     3.28269
      C    2   -0.12095      0.99959     2.11036    0.01100     3.12095
      C    3   -0.28443      0.99966     2.27801    0.00676     3.28443
      C    4   -0.05288      0.99946     2.04259    0.01083     3.05288
      C    5   -0.09651      0.99950     2.08890    0.00811     3.09651
      C    6    0.02518      0.99944     1.96377    0.01161     2.97482
      C    7    0.16690      0.99938     1.81858    0.01514     2.83310
      C    8   -0.14341      0.99949     2.13537    0.00854     3.14341
      C    9    0.17217      0.99935     1.81500    0.01349     2.82783
      O   10   -0.34038      0.99988     3.33443    0.00608     4.34038
      O   11   -0.34601      0.99987     3.33997    0.00617     4.34601
      N   12   -0.11675      0.99958     2.60471    0.01246     3.61675
      C   13    0.17756      0.99952     1.80962    0.01330     2.82244
      C   14   -0.07201      0.99955     2.05771    0.01475     3.07201
      N   15   -0.11999      0.99975     2.60636    0.01388     3.61999
      N   16   -0.09063      0.99976     2.57368    0.01718     3.59063
      N   17   -0.39445      0.99972     2.88432    0.01042     3.89445
      H   18    0.10308      0.00000     0.39536    0.00156     0.39692
      H   19    0.09901      0.00000     0.39965    0.00134     0.40099
      H   20    0.10088      0.00000     0.39775    0.00137     0.39912
      H   21    0.09191      0.00000     0.40556    0.00254     0.40809
      H   22    0.10096      0.00000     0.39780    0.00124     0.39904
      H   23    0.10116      0.00000     0.39791    0.00093     0.39884
      H   24    0.10370      0.00000     0.39534    0.00096     0.39630
      H   25    0.11467      0.00000     0.38349    0.00184     0.38533
      H   26    0.11071      0.00000     0.38809    0.00120     0.38929
      H   27    0.23941      0.00000     0.25725    0.00334     0.26059
      H   28    0.25107      0.00000     0.24544    0.00349     0.24893
      H   29    0.10496      0.00000     0.39386    0.00118     0.39504
      H   30    0.19764      0.00000     0.29845    0.00390     0.30236
      H   31    0.20012      0.00000     0.28309    0.01679     0.29988
 =======================================================================
   * Total *   -0.00000     16.99315    44.77950    0.22735    62.00000

 Normal termination of Gaussian 16 at Fri Dec 11 12:48:25 2020.
