 Gaussian 16, Revision A.03,

 -----------------------------------------------------------
 # opt freq B3LYP/6-31G(d) empiricaldispersion=gd3bj scf=xqc
 -----------------------------------------------------------

 ------------------------------
 CID_130335279_JID_420_neutraal
 ------------------------------
 Symbolic Z-matrix:
 Charge =  0 Multiplicity = 1

 SCF Done:  E(RB3LYP) =  -445.049046109     A.U. after   13 cycles
 SCF Done:  E(RB3LYP) =  -445.050948132     A.U. after   11 cycles
 SCF Done:  E(RB3LYP) =  -445.051067963     A.U. after   11 cycles
 SCF Done:  E(RB3LYP) =  -445.051280346     A.U. after   11 cycles
 SCF Done:  E(RB3LYP) =  -445.051318743     A.U. after   10 cycles
 SCF Done:  E(RB3LYP) =  -445.051323622     A.U. after    9 cycles
 SCF Done:  E(RB3LYP) =  -445.051325719     A.U. after    8 cycles
 Optimization completed.
    -- Stationary point found.
 Normal termination of Gaussian 16 at Tue Dec  8 10:32:23 2020.

 --------------------------------------------------------------------
 #N Geom=AllCheck Guess=TCheck SCRF=Check GenChk RB3LYP/6-31G(d) Freq
 --------------------------------------------------------------------

 Structure from the checkpoint file:  "JID_420.chk"
 ------------------------------
 CID_130335279_JID_420_neutraal
 ------------------------------
 Charge =  0 Multiplicity = 1

 SCF Done:  E(RB3LYP) =  -445.051325719     A.U. after    1 cycles

  Exact polarizability: 102.989   2.418  95.449   1.624   0.164  82.468
 Approx polarizability: 131.350   4.943 128.480   2.562  -0.214 123.935

                      1                      2                      3
                      A                      A                      A
 Frequencies --     65.6979                88.3429               123.2545
 Red. masses --      3.1390                 2.4223                 3.0416
 Frc consts  --      0.0080                 0.0111                 0.0272
 IR Inten    --      0.0422                 2.1525                 0.3800

                      4                      5                      6
                      A                      A                      A
 Frequencies --    171.7749               205.2356               250.5790
 Red. masses --      2.2080                 1.1642                 1.2151
 Frc consts  --      0.0384                 0.0289                 0.0450
 IR Inten    --      0.8206                 1.1241                 0.7503

                      7                      8                      9
                      A                      A                      A
 Frequencies --    273.4695               307.7209               333.1543
 Red. masses --      2.1477                 2.7686                 2.1582
 Frc consts  --      0.0946                 0.1545                 0.1411
 IR Inten    --      1.8291                 6.8981                 3.2489

                     10                     11                     12
                      A                      A                      A
 Frequencies --    391.5787               407.3806               467.6132
 Red. masses --      2.4832                 1.9881                 3.0648
 Frc consts  --      0.2243                 0.1944                 0.3948
 IR Inten    --      0.7555                 1.0806                 5.1207

                     13                     14                     15
                      A                      A                      A
 Frequencies --    484.2460               500.4336               529.2759
 Red. masses --      2.5856                 1.9602                 3.1497
 Frc consts  --      0.3572                 0.2892                 0.5198
 IR Inten    --      2.1748                 2.4667                 2.8892

                     16                     17                     18
                      A                      A                      A
 Frequencies --    642.4218               799.0506               803.2416
 Red. masses --      2.4894                 1.4901                 2.7181
 Frc consts  --      0.6053                 0.5606                 1.0333
 IR Inten    --      2.1828                 0.6498                 9.4181

                     19                     20                     21
                      A                      A                      A
 Frequencies --    821.0526               866.2698               879.8915
 Red. masses --      3.2681                 2.6922                 2.4573
 Frc consts  --      1.2981                 1.1903                 1.1209
 IR Inten    --      1.6694                 3.0870                 0.1989

                     22                     23                     24
                      A                      A                      A
 Frequencies --    887.6164               948.4584               958.5508
 Red. masses --      1.6540                 1.7713                 1.6755
 Frc consts  --      0.7678                 0.9388                 0.9070
 IR Inten    --      2.9578                 4.7775                 6.5917

                     25                     26                     27
                      A                      A                      A
 Frequencies --   1045.8771              1047.3677              1053.6450
 Red. masses --      2.6792                 1.8043                 1.6754
 Frc consts  --      1.7267                 1.1662                 1.0959
 IR Inten    --      7.0662                 0.2408                 2.2440

                     28                     29                     30
                      A                      A                      A
 Frequencies --   1088.7803              1093.5872              1100.7254
 Red. masses --      5.0478                 2.3797                 1.7571
 Frc consts  --      3.5256                 1.6768                 1.2543
 IR Inten    --     73.3554                 9.7205                 6.6505

                     31                     32                     33
                      A                      A                      A
 Frequencies --   1141.9839              1153.3870              1178.2461
 Red. masses --      1.0936                 1.3882                 1.6151
 Frc consts  --      0.8403                 1.0881                 1.3210
 IR Inten    --      1.1669                 2.9742                 3.2517

                     34                     35                     36
                      A                      A                      A
 Frequencies --   1191.9128              1209.6354              1224.4665
 Red. masses --      1.3519                 1.7440                 1.6733
 Frc consts  --      1.1316                 1.5035                 1.4781
 IR Inten    --      3.5707                 1.5568                 1.4917

                     37                     38                     39
                      A                      A                      A
 Frequencies --   1234.7004              1296.8276              1305.7530
 Red. masses --      1.8941                 1.4178                 1.2420
 Frc consts  --      1.7013                 1.4048                 1.2477
 IR Inten    --      0.8700                 1.9768                 1.2621

                     40                     41                     42
                      A                      A                      A
 Frequencies --   1314.5542              1362.1693              1371.7774
 Red. masses --      1.2703                 1.5511                 1.4221
 Frc consts  --      1.2934                 1.6957                 1.5767
 IR Inten    --      3.2331                 1.1515                 0.1790

                     43                     44                     45
                      A                      A                      A
 Frequencies --   1381.4872              1402.5360              1406.4523
 Red. masses --      1.4394                 1.4165                 1.4460
 Frc consts  --      1.6185                 1.6417                 1.6853
 IR Inten    --     15.0113                 0.0525                 2.1742

                     46                     47                     48
                      A                      A                      A
 Frequencies --   1408.8327              1421.9629              1468.2729
 Red. masses --      1.4473                 1.4193                 1.1899
 Frc consts  --      1.6925                 1.6909                 1.5114
 IR Inten    --      1.6330                 9.7028                 4.3940

                     49                     50                     51
                      A                      A                      A
 Frequencies --   1486.9599              1504.9508              1508.3961
 Red. masses --      1.1449                 1.0532                 1.0797
 Frc consts  --      1.4915                 1.4055                 1.4474
 IR Inten    --      1.9972                 1.1636                 0.8416

                     52                     53                     54
                      A                      A                      A
 Frequencies --   1513.5636              1516.8349              1519.6190
 Red. masses --      1.0754                 1.0893                 1.0823
 Frc consts  --      1.4515                 1.4767                 1.4725
 IR Inten    --      4.1221                 3.4580                12.9498

                     55                     56                     57
                      A                      A                      A
 Frequencies --   1524.5787              1528.3403              1538.7951
 Red. masses --      1.0508                 1.0849                 1.0623
 Frc consts  --      1.4391                 1.4930                 1.4820
 IR Inten    --      4.9568                 5.9057                 2.4636

                     58                     59                     60
                      A                      A                      A
 Frequencies --   1543.2830              2967.0864              2998.2674
 Red. masses --      1.0803                 1.0827                 1.0531
 Frc consts  --      1.5159                 5.6160                 5.5777
 IR Inten    --      7.8365                47.1319                65.3551

                     61                     62                     63
                      A                      A                      A
 Frequencies --   3018.3956              3021.9797              3038.5099
 Red. masses --      1.0668                 1.0336                 1.0704
 Frc consts  --      5.7264                 5.5612                 5.8229
 IR Inten    --     28.9039                51.9457                 7.8321

                     64                     65                     66
                      A                      A                      A
 Frequencies --   3043.5990              3046.5791              3048.0227
 Red. masses --      1.0620                 1.0654                 1.0675
 Frc consts  --      5.7964                 5.8264                 5.8433
 IR Inten    --     18.3940                54.7509                31.3150

                     67                     68                     69
                      A                      A                      A
 Frequencies --   3070.3805              3082.0768              3083.9051
 Red. masses --      1.0929                 1.1036                 1.1013
 Frc consts  --      6.0703                 6.1764                 6.1710
 IR Inten    --     64.0545                67.5898                34.9795

                     70                     71                     72
                      A                      A                      A
 Frequencies --   3091.0264              3094.0325              3112.9418
 Red. masses --      1.0985                 1.0994                 1.0806
 Frc consts  --      6.1841                 6.2011                 6.1695
 IR Inten    --     23.6890                80.4864                32.6599

                     73                     74                     75
                      A                      A                      A
 Frequencies --   3115.5891              3129.0585              3147.4392
 Red. masses --      1.0936                 1.1024                 1.1035
 Frc consts  --      6.2543                 6.3595                 6.4410
 IR Inten    --     30.1061                31.9669                26.5075

 - Thermochemistry -
 -------------------
 Temperature   298.150 Kelvin.  Pressure   1.00000 Atm.
 Atom     1 has atomic number  6 and mass  12.00000

 Molecular mass:   143.13101 amu.
 Principal axes and moments of inertia in atomic units:
                           1         2         3
     Eigenvalues --   904.889041758.913052174.44849
           X            0.99994   0.00002   0.01050
           Y           -0.00009   0.99998   0.00641
           Z           -0.01050  -0.00641   0.99992
 This molecule is an asymmetric top.
 Rotational symmetry number  1.
 Warning -- assumption of classical behavior for rotation
           may cause significant error
 Rotational temperatures (Kelvin)      0.09572     0.04924     0.03983
 Rotational constants (GHZ):           1.99443     1.02605     0.82998
 Zero-point vibrational energy     654390.0 (Joules/Mol)
                                  156.40296 (Kcal/Mol)
 Warning -- explicit consideration of  15 degrees of freedom as
           vibrations may cause significant error
 Vibrational temperatures:     94.52   127.11   177.34   247.15   295.29
          (Kelvin)            360.53   393.46   442.74   479.33   563.39
                              586.13   672.79   696.72   720.01   761.51
                              924.30  1149.66  1155.69  1181.31  1246.37
                             1265.97  1277.08  1364.62  1379.14  1504.78
                             1506.93  1515.96  1566.51  1573.43  1583.70
                             1643.06  1659.47  1695.23  1714.90  1740.40
                             1761.73  1776.46  1865.85  1878.69  1891.35
                             1959.86  1973.68  1987.65  2017.94  2023.57
                             2027.00  2045.89  2112.52  2139.40  2165.29
                             2170.25  2177.68  2182.39  2186.39  2193.53
                             2198.94  2213.98  2220.44  4268.98  4313.84
                             4342.80  4347.95  4371.74  4379.06  4383.35
                             4385.42  4417.59  4434.42  4437.05  4447.30
                             4451.62  4478.83  4482.64  4502.02  4528.46

 Zero-point correction=                           0.249244 (Hartree/Particle)
 Thermal correction to Energy=                    0.259809
 Thermal correction to Enthalpy=                  0.260753
 Thermal correction to Gibbs Free Energy=         0.213618
 Sum of electronic and zero-point Energies=           -444.802082
 Sum of electronic and thermal Energies=              -444.791517
 Sum of electronic and thermal Enthalpies=            -444.790573
 Sum of electronic and thermal Free Energies=         -444.837708

                     E (Thermal)             CV                S
                      KCal/Mol        Cal/Mol-Kelvin    Cal/Mol-Kelvin
 Total                  163.032             40.880             99.204
 Electronic               0.000              0.000              0.000
 Translational            0.889              2.981             40.787
 Rotational               0.889              2.981             29.627
 Vibrational            161.255             34.919             28.790
 Vibration     1          0.597              1.971              4.278
 Vibration     2          0.601              1.957              3.696
 Vibration     3          0.610              1.930              3.049
 Vibration     4          0.626              1.877              2.416
 Vibration     5          0.640              1.832              2.086
 Vibration     6          0.663              1.762              1.727
 Vibration     7          0.676              1.722              1.574
 Vibration     8          0.698              1.659              1.375
 Vibration     9          0.715              1.609              1.245
 Vibration    10          0.759              1.488              0.994
 Vibration    11          0.772              1.454              0.936
 Vibration    12          0.825              1.322              0.744
 Vibration    13          0.840              1.285              0.699
 Vibration    14          0.856              1.249              0.657
 Vibration    15          0.884              1.185              0.589

 Optimization completed.
    -- Stationary point found.
 Normal termination of Gaussian 16 at Tue Dec  8 10:38:51 2020.

 ----------------------------------------------------------------------
 # B3LYP/6-311++G(d,p) empiricaldispersion=gd3bj scf=xqc pop=npa geom=c
 heck
 ----------------------------------------------------------------------

 --------------------------------------
 CID_130335279_JID_420_Energie_neutraal
 --------------------------------------
 Structure from the checkpoint file:  "JID_420.chk"
 Charge =  0 Multiplicity = 1

 SCF Done:  E(RB3LYP) =  -445.176582423     A.U. after   13 cycles
 Normal termination of Gaussian 16 at Tue Dec  8 10:44:36 2020.

 ----------------------------------------------------------------------
 # B3LYP/6-311++G(d,p) empiricaldispersion=gd3bj scf=xqc pop=npa geom=c
 heck
 ----------------------------------------------------------------------

 ------------------------------------
 CID_130335279_JID_420_Energie_kation
 ------------------------------------
 Structure from the checkpoint file:  "JID_420.chk"
 Charge =  1 Multiplicity = 2

 SCF Done:  E(UB3LYP) =  -444.865719090     A.U. after   19 cycles
 Normal termination of Gaussian 16 at Tue Dec  8 10:49:03 2020.
 Gaussian 16:  ES64L-G16RevA.03 25-Dec-2016

 ----------------------------------------------------------------------
 # B3LYP/6-311++G(d,p) empiricaldispersion=gd3bj scf=xqc pop=npa geom=c
 heck
 ----------------------------------------------------------------------

 -----------------------------------
 CID_130335279_JID_420_Energie_anion
 -----------------------------------
 Structure from the checkpoint file:  "JID_420.chk"
 Charge = -1 Multiplicity = 2

                         Standard orientation:
 ---------------------------------------------------------------------
 Center     Atomic      Atomic             Coordinates (Angstroms)
 Number     Number       Type             X           Y           Z
 ---------------------------------------------------------------------
      1          6           0       -1.542089    1.783132   -0.353078
      2          7           0       -0.994504    0.444921   -0.150080
      3          6           0        0.051049    0.389024    0.890623
      4          6           0        0.556637   -1.055317    1.042079
      5          6           0        1.303757   -1.544292   -0.206578
      6          6           0        2.459254   -0.604608   -0.576612
      7          6           0        1.970925    0.842254   -0.731032
      8          6           0        1.233766    1.307140    0.532122
      9          8           0       -2.100735   -0.330637    0.383661
     10          6           0       -2.547883   -1.229089   -0.615546
     11          1           0       -0.804725    2.402827   -0.869739
     12          1           0       -1.835385    2.272659    0.590062
     13          1           0       -2.422552    1.699945   -0.995030
     14          1           0       -0.384053    0.722730    1.848926
     15          1           0        1.232771   -1.083020    1.907730
     16          1           0       -0.285389   -1.712426    1.275905
     17          1           0        0.601815   -1.594226   -1.047397
     18          1           0        1.679329   -2.561728   -0.040386
     19          1           0        2.945816   -0.943173   -1.499881
     20          1           0        3.223962   -0.641860    0.213714
     21          1           0        1.294894    0.906980   -1.592919
     22          1           0        2.816741    1.510579   -0.934982
     23          1           0        0.911911    2.349519    0.438712
     24          1           0        1.926583    1.279785    1.384002
     25          1           0       -2.877016   -0.699923   -1.520679
     26          1           0       -1.768875   -1.950613   -0.891014
     27          1           0       -3.400906   -1.756868   -0.177619
 ---------------------------------------------------------------------

 SCF Done:  E(UB3LYP) =  -445.157475896     A.U. after   28 cycles

 The electronic state is 2-A.
 Alpha  occ. eigenvalues --  -19.04034 -14.24630 -10.10409 -10.09106 -10.08108
 Alpha  occ. eigenvalues --  -10.05857 -10.05338 -10.05312 -10.05285 -10.05161
 Alpha  occ. eigenvalues --   -0.96055  -0.77185  -0.70808  -0.63588  -0.62939
 Alpha  occ. eigenvalues --   -0.58341  -0.53706  -0.50108  -0.48596  -0.43653
 Alpha  occ. eigenvalues --   -0.39317  -0.38354  -0.37382  -0.35375  -0.32912
 Alpha  occ. eigenvalues --   -0.32623  -0.32227  -0.30580  -0.29123  -0.27935
 Alpha  occ. eigenvalues --   -0.27165  -0.26891  -0.25780  -0.24479  -0.23248
 Alpha  occ. eigenvalues --   -0.21564  -0.19700  -0.19312  -0.16531  -0.12893
 Alpha  occ. eigenvalues --    0.04880
 Alpha virt. eigenvalues --    0.07019   0.07325   0.08129   0.09040   0.09834
 Alpha virt. eigenvalues --    0.10261   0.10370   0.10861   0.12112   0.12763
 Alpha virt. eigenvalues --    0.12834   0.13250   0.13579   0.14016   0.15030

  Beta  occ. eigenvalues --  -19.04024 -14.24617 -10.10378 -10.09103 -10.08077
  Beta  occ. eigenvalues --  -10.05835 -10.05327 -10.05292 -10.05267 -10.05147
  Beta  occ. eigenvalues --   -0.96038  -0.77164  -0.70776  -0.63553  -0.62901
  Beta  occ. eigenvalues --   -0.58281  -0.53642  -0.50057  -0.48546  -0.43608
  Beta  occ. eigenvalues --   -0.39274  -0.38307  -0.37339  -0.35333  -0.32877
  Beta  occ. eigenvalues --   -0.32597  -0.32194  -0.30545  -0.29086  -0.27902
  Beta  occ. eigenvalues --   -0.27126  -0.26856  -0.25744  -0.24443  -0.23214
  Beta  occ. eigenvalues --   -0.21528  -0.19665  -0.19276  -0.16512  -0.12827
  Beta virt. eigenvalues --    0.07139   0.07975   0.08250   0.08716   0.09766
  Beta virt. eigenvalues --    0.10559   0.10770   0.10871   0.11189   0.12829
  Beta virt. eigenvalues --    0.13255   0.13388   0.13641   0.13871   0.14411

 Mulliken charges and spin densities:
               1          2
     1  C    0.902969  -1.219923
     2  N   -0.401097   0.176137
     3  C   -0.300771   0.519004
     4  C   -0.405512  -0.208692
     5  C   -0.070350  -0.050062
     6  C    0.954895  -1.417968
     7  C   -0.116220  -0.172382
     8  C    0.438400  -0.887500
     9  O    0.013990   0.020105
    10  C    0.850988  -1.109111
    11  H   -0.342354   0.475406
    12  H   -0.160436   0.309287
    13  H   -0.151307   0.290615
    14  H    0.015440   0.179145
    15  H   -0.289626   0.417312
    16  H    0.152255   0.016049
    17  H    0.251935  -0.154828
    18  H   -0.290018   0.458551
    19  H   -0.455866   0.618333
    20  H    0.010478   0.110892
    21  H    0.079810   0.051693
    22  H   -0.437416   0.610589
    23  H   -0.101568   0.273838
    24  H   -0.270671   0.416723
    25  H   -0.215699   0.346809
    26  H   -0.406564   0.533369
    27  H   -0.255685   0.396610
 Sum of Mulliken charges =  -1.00000   1.00000

 Dipole moment (field-independent basis, Debye):
    X=             -0.8546    Y=             -0.6709    Z=              1.4174  Tot=              1.7859
 Quadrupole moment (field-independent basis, Debye-Ang):
   XX=           -123.9517   YY=           -110.6220   ZZ=            -97.3120
   XY=             -1.4643   XZ=             -0.6418   YZ=              0.0956

 Summary of Natural Population Analysis:

                                       Natural Population
                Natural  -----------------------------------------------
    Atom  No    Charge         Core      Valence    Rydberg      Total
 -----------------------------------------------------------------------
      C    1   -0.18284      0.99963     2.17382    0.00939     3.18284
      N    2   -0.12778      0.99969     2.61379    0.01430     3.62778
      C    3   -0.00672      0.99957     1.99345    0.01370     3.00672
      C    4   -0.19308      0.99960     2.18418    0.00929     3.19308
      C    5   -0.19216      0.99962     2.18387    0.00866     3.19216
      C    6   -0.18700      0.99963     2.17930    0.00807     3.18700
      C    7   -0.19161      0.99962     2.18311    0.00888     3.19161
      C    8   -0.19530      0.99960     2.18615    0.00955     3.19530
      O    9   -0.23293      0.99990     3.22307    0.00996     4.23293
      C   10   -0.09430      0.99962     2.08472    0.00997     3.09430
      H   11    0.09844      0.00000     0.40018    0.00138     0.40156
      H   12    0.08507      0.00000     0.41325    0.00168     0.41493
      H   13    0.10010      0.00000     0.39861    0.00129     0.39990
      H   14    0.08898      0.00000     0.40901    0.00201     0.41102
      H   15    0.09546      0.00000     0.40337    0.00117     0.40454
      H   16    0.10565      0.00000     0.39304    0.00131     0.39435
      H   17    0.09712      0.00000     0.40069    0.00219     0.40288
      H   18    0.09700      0.00000     0.40188    0.00112     0.40300
      H   19    0.09765      0.00000     0.40116    0.00119     0.40235
      H   20    0.09053      0.00000     0.40798    0.00150     0.40947
      H   21    0.09691      0.00000     0.40136    0.00173     0.40309
      H   22    0.09869      0.00000     0.39990    0.00142     0.40131
      H   23    0.10230      0.00000     0.39621    0.00149     0.39770
      H   24    0.09927      0.00000     0.39933    0.00140     0.40073
      H   25    0.08144      0.00000     0.41682    0.00174     0.41856
      H   26    0.08216      0.00000     0.41617    0.00167     0.41784
      H   27    0.08698      0.00000     0.41169    0.00133     0.41302
 =======================================================================
   * Total *   -0.00000      9.99649    29.87611    0.12740    40.00000

 Normal termination of Gaussian 16 at Tue Dec  8 10:56:18 2020.
