 Gaussian 16, Revision A.03,

 -----------------------------------------------------------
 # opt freq B3LYP/6-31G(d) empiricaldispersion=gd3bj scf=xqc
 -----------------------------------------------------------

 --------------------------
 CID_5395_JID_2352_neutraal
 --------------------------
 Symbolic Z-matrix:
 Charge =  0 Multiplicity = 1

 SCF Done:  E(RB3LYP) =  -559.582739425     A.U. after   13 cycles
 SCF Done:  E(RB3LYP) =  -559.584756577     A.U. after   11 cycles
 SCF Done:  E(RB3LYP) =  -559.582376167     A.U. after   12 cycles
 SCF Done:  E(RB3LYP) =  -559.585626478     A.U. after   11 cycles
 SCF Done:  E(RB3LYP) =  -559.586658678     A.U. after   11 cycles
 SCF Done:  E(RB3LYP) =  -559.586806763     A.U. after   10 cycles
 SCF Done:  E(RB3LYP) =  -559.586852787     A.U. after   10 cycles
 SCF Done:  E(RB3LYP) =  -559.586858961     A.U. after    9 cycles
 SCF Done:  E(RB3LYP) =  -559.586864495     A.U. after    9 cycles
 SCF Done:  E(RB3LYP) =  -559.586866537     A.U. after    8 cycles
 SCF Done:  E(RB3LYP) =  -559.586866936     A.U. after    7 cycles
 Optimization completed.
    -- Stationary point found.
 Normal termination of Gaussian 16 at Wed Dec  9 17:11:39 2020.

 --------------------------------------------------------------------
 #N Geom=AllCheck Guess=TCheck SCRF=Check GenChk RB3LYP/6-31G(d) Freq
 --------------------------------------------------------------------

 Structure from the checkpoint file:  "JID_2352.chk"
 --------------------------
 CID_5395_JID_2352_neutraal
 --------------------------
 Charge =  0 Multiplicity = 1

 SCF Done:  E(RB3LYP) =  -559.586866936     A.U. after    1 cycles

  Exact polarizability: 113.615  -1.545 105.023  -0.085   1.148  98.413
 Approx polarizability: 149.227  -1.998 150.771   0.219   6.134 147.025

                      1                      2                      3
                      A                      A                      A
 Frequencies --    128.1684               135.5602               174.3046
 Red. masses --      3.8238                 2.6858                 1.0799
 Frc consts  --      0.0370                 0.0291                 0.0193
 IR Inten    --      0.3013                 1.5890                 0.7569

                      4                      5                      6
                      A                      A                      A
 Frequencies --    199.2653               225.1209               234.1852
 Red. masses --      3.4838                 1.5243                 2.4044
 Frc consts  --      0.0815                 0.0455                 0.0777
 IR Inten    --      1.1605                 0.6934                 2.9800

                      7                      8                      9
                      A                      A                      A
 Frequencies --    251.4087               256.7040               296.3405
 Red. masses --      1.1287                 1.7217                 1.9088
 Frc consts  --      0.0420                 0.0668                 0.0988
 IR Inten    --      0.7845                 2.4671                 3.9346

                     10                     11                     12
                      A                      A                      A
 Frequencies --    310.5737               329.6091               334.8009
 Red. masses --      2.4693                 1.6858                 1.2862
 Frc consts  --      0.1403                 0.1079                 0.0849
 IR Inten    --      7.6073                 2.8317                79.4847

                     13                     14                     15
                      A                      A                      A
 Frequencies --    338.0027               358.3486               365.0182
 Red. masses --      1.3208                 2.0952                 2.1478
 Frc consts  --      0.0889                 0.1585                 0.1686
 IR Inten    --     88.4269                19.0416                40.8230

                     16                     17                     18
                      A                      A                      A
 Frequencies --    399.0539               427.7646               429.5008
 Red. masses --      1.8498                 2.2843                 2.2396
 Frc consts  --      0.1736                 0.2463                 0.2434
 IR Inten    --      1.7524                 1.8940                 4.8220

                     19                     20                     21
                      A                      A                      A
 Frequencies --    439.8461               515.1636               535.4268
 Red. masses --      3.3737                 2.3867                 3.2718
 Frc consts  --      0.3846                 0.3732                 0.5526
 IR Inten    --      5.7085                 0.5844                 6.7204

                     22                     23                     24
                      A                      A                      A
 Frequencies --    543.2654               575.9030               652.1091
 Red. masses --      3.2808                 3.4374                 4.5096
 Frc consts  --      0.5705                 0.6717                 1.1299
 IR Inten    --      0.6777                 7.6163                 7.8867

                     25                     26                     27
                      A                      A                      A
 Frequencies --    782.0193               794.3217               811.6739
 Red. masses --      3.0817                 3.0107                 3.7632
 Frc consts  --      1.1104                 1.1192                 1.4607
 IR Inten    --      0.8666                 4.8120                 8.7000

                     28                     29                     30
                      A                      A                      A
 Frequencies --    892.2486               905.4746               926.1150
 Red. masses --      1.8700                 2.4235                 5.1995
 Frc consts  --      0.8772                 1.1707                 2.6275
 IR Inten    --      4.2821                 7.3055                19.0763

                     31                     32                     33
                      A                      A                      A
 Frequencies --    931.2638               954.6490               961.6643
 Red. masses --      2.2719                 1.9687                 1.4947
 Frc consts  --      1.1609                 1.0571                 0.8144
 IR Inten    --      1.4051                10.1468                 0.3649

                     34                     35                     36
                      A                      A                      A
 Frequencies --    975.1364               982.3473              1007.0809
 Red. masses --      1.4976                 2.2696                 2.0407
 Frc consts  --      0.8390                 1.2904                 1.2194
 IR Inten    --      0.4630                 0.5901                10.4764

                     37                     38                     39
                      A                      A                      A
 Frequencies --   1035.1390              1045.2751              1078.2177
 Red. masses --      1.5690                 1.4478                 1.7114
 Frc consts  --      0.9906                 0.9320                 1.1722
 IR Inten    --      9.3530                 0.0197                19.9430

                     40                     41                     42
                      A                      A                      A
 Frequencies --   1081.1903              1138.7956              1184.8346
 Red. masses --      1.7362                 1.3314                 1.7893
 Frc consts  --      1.1958                 1.0173                 1.4800
 IR Inten    --     15.5011                11.6800                21.7242

                     43                     44                     45
                      A                      A                      A
 Frequencies --   1229.9292              1234.8926              1247.0600
 Red. masses --      2.2547                 1.9093                 2.6166
 Frc consts  --      2.0096                 1.7154                 2.3975
 IR Inten    --     21.8152                 4.4339                20.0445

                     46                     47                     48
                      A                      A                      A
 Frequencies --   1266.4910              1273.2275              1289.7044
 Red. masses --      2.2519                 1.7577                 1.9335
 Frc consts  --      2.1281                 1.6788                 1.8949
 IR Inten    --     26.9213                38.1907                29.7697

                     49                     50                     51
                      A                      A                      A
 Frequencies --   1334.1259              1357.2692              1374.6000
 Red. masses --      1.3323                 1.2734                 1.6155
 Frc consts  --      1.3972                 1.3822                 1.7985
 IR Inten    --     22.4687                25.9978                27.2364

                     52                     53                     54
                      A                      A                      A
 Frequencies --   1402.0470              1413.2742              1415.1527
 Red. masses --      1.5252                 1.3343                 1.2563
 Frc consts  --      1.7664                 1.5702                 1.4823
 IR Inten    --      5.8709                10.0534                 0.6150

                     55                     56                     57
                      A                      A                      A
 Frequencies --   1422.6994              1438.0424              1445.9720
 Red. masses --      1.2863                 1.2517                 1.3751
 Frc consts  --      1.5340                 1.5251                 1.6940
 IR Inten    --      3.9871                 6.9985                13.1328

                     58                     59                     60
                      A                      A                      A
 Frequencies --   1453.1593              1493.7070              1506.8178
 Red. masses --      1.3205                 1.0823                 1.0718
 Frc consts  --      1.6429                 1.4228                 1.4338
 IR Inten    --     16.7824                 4.1123                 2.5077

                     61                     62                     63
                      A                      A                      A
 Frequencies --   1508.6363              1518.2487              1519.5234
 Red. masses --      1.0683                 1.0521                 1.0621
 Frc consts  --      1.4326                 1.4289                 1.4448
 IR Inten    --      2.5623                 0.2864                 8.2176

                     64                     65                     66
                      A                      A                      A
 Frequencies --   1531.6864              1532.6010              1545.3964
 Red. masses --      1.0536                 1.0522                 1.0527
 Frc consts  --      1.4563                 1.4561                 1.4813
 IR Inten    --      0.1176                 0.4230                 0.3589

                     67                     68                     69
                      A                      A                      A
 Frequencies --   1551.1854              1581.5226              2980.9420
 Red. masses --      1.0524                 1.0504                 1.0841
 Frc consts  --      1.4920                 1.5479                 5.6760
 IR Inten    --      9.0076                 9.1141                73.6011

                     70                     71                     72
                      A                      A                      A
 Frequencies --   3028.8034              3054.6874              3055.1876
 Red. masses --      1.0682                 1.0398                 1.0401
 Frc consts  --      5.7736                 5.7166                 5.7200
 IR Inten    --     47.2349                14.4138                15.3321

                     73                     74                     75
                      A                      A                      A
 Frequencies --   3062.9997              3064.9717              3069.7244
 Red. masses --      1.0549                 1.0451                 1.0477
 Frc consts  --      5.8313                 5.7845                 5.8168
 IR Inten    --     19.4166                67.1721                20.8711

                     76                     77                     78
                      A                      A                      A
 Frequencies --   3088.1781              3105.7655              3115.3097
 Red. masses --      1.0944                 1.1039                 1.1014
 Frc consts  --      6.1492                 6.2737                 6.2978
 IR Inten    --     16.8054                17.5714                 2.9322

                     79                     80                     81
                      A                      A                      A
 Frequencies --   3116.9153              3124.0323              3128.1664
 Red. masses --      1.1012                 1.1005                 1.0991
 Frc consts  --      6.3036                 6.3281                 6.3370
 IR Inten    --     13.5734                47.8234                48.4188

                     82                     83                     84
                      A                      A                      A
 Frequencies --   3163.9696              3165.4339              3201.7302
 Red. masses --      1.0987                 1.0985                 1.0972
 Frc consts  --      6.4804                 6.4851                 6.6271
 IR Inten    --     10.2118                25.6115                 3.8778

                     85                     86                     87
                      A                      A                      A
 Frequencies --   3226.0121              3738.2294              3760.2162
 Red. masses --      1.0917                 1.0661                 1.0683
 Frc consts  --      6.6943                 8.7775                 8.8997
 IR Inten    --      9.6886                 7.9894                34.2862

 - Thermochemistry -
 -------------------
 Temperature   298.150 Kelvin.  Pressure   1.00000 Atm.
 Atom     1 has atomic number  6 and mass  12.00000

 Molecular mass:   173.14158 amu.
 Principal axes and moments of inertia in atomic units:
                           1         2         3
     Eigenvalues --  1658.264501803.162392382.45181
           X            0.99934  -0.03636   0.00028
           Y            0.03636   0.99933  -0.00332
           Z           -0.00016   0.00333   0.99999
 This molecule is an asymmetric top.
 Rotational symmetry number  1.
 Warning -- assumption of classical behavior for rotation
           may cause significant error
 Rotational temperatures (Kelvin)      0.05223     0.04803     0.03635
 Rotational constants (GHZ):           1.08833     1.00088     0.75751
 Zero-point vibrational energy     736188.7 (Joules/Mol)
                                  175.95332 (Kcal/Mol)
 Warning -- explicit consideration of  23 degrees of freedom as
           vibrations may cause significant error
 Vibrational temperatures:    184.41   195.04   250.79   286.70   323.90
          (Kelvin)            336.94   361.72   369.34   426.37   446.85
                              474.23   481.70   486.31   515.58   525.18
                              574.15   615.46   617.96   632.84   741.21
                              770.36   781.64   828.60   938.24  1125.15
                             1142.85  1167.82  1283.75  1302.78  1332.47
                             1339.88  1373.53  1383.62  1403.00  1413.38
                             1448.96  1489.33  1503.92  1551.31  1555.59
                             1638.47  1704.71  1769.59  1776.74  1794.24
                             1822.20  1831.89  1855.60  1919.51  1952.81
                             1977.74  2017.23  2033.39  2036.09  2046.95
                             2069.02  2080.43  2090.77  2149.11  2167.97
                             2170.59  2184.42  2186.26  2203.76  2205.07
                             2223.48  2231.81  2275.46  4288.91  4357.77
                             4395.01  4395.73  4406.97  4409.81  4416.65
                             4443.20  4468.50  4482.24  4484.55  4494.79
                             4500.73  4552.25  4554.35  4606.58  4641.51
                             5378.48  5410.11

 Zero-point correction=                           0.280399 (Hartree/Particle)
 Thermal correction to Energy=                    0.293469
 Thermal correction to Enthalpy=                  0.294413
 Thermal correction to Gibbs Free Energy=         0.243732
 Sum of electronic and zero-point Energies=           -559.306467
 Sum of electronic and thermal Energies=              -559.293398
 Sum of electronic and thermal Enthalpies=            -559.292454
 Sum of electronic and thermal Free Energies=         -559.343135

                     E (Thermal)             CV                S
                      KCal/Mol        Cal/Mol-Kelvin    Cal/Mol-Kelvin
 Total                  184.154             53.507            106.667
 Electronic               0.000              0.000              0.000
 Translational            0.889              2.981             41.354
 Rotational               0.889              2.981             30.344
 Vibrational            182.377             47.545             34.968
 Vibration     1          0.611              1.925              2.973
 Vibration     2          0.613              1.918              2.866
 Vibration     3          0.627              1.874              2.389
 Vibration     4          0.637              1.841              2.140
 Vibration     5          0.650              1.803              1.918
 Vibration     6          0.654              1.789              1.847
 Vibration     7          0.663              1.760              1.721
 Vibration     8          0.666              1.751              1.684
 Vibration     9          0.690              1.681              1.437
 Vibration    10          0.699              1.654              1.359
 Vibration    11          0.712              1.616              1.262
 Vibration    12          0.716              1.606              1.237
 Vibration    13          0.718              1.600              1.222
 Vibration    14          0.733              1.558              1.129
 Vibration    15          0.738              1.544              1.101
 Vibration    16          0.765              1.472              0.966
 Vibration    17          0.789              1.410              0.866
 Vibration    18          0.791              1.406              0.860
 Vibration    19          0.800              1.383              0.827
 Vibration    20          0.870              1.216              0.621
 Vibration    21          0.890              1.172              0.575
 Vibration    22          0.898              1.154              0.558
 Vibration    23          0.932              1.083              0.493

 Optimization completed.
    -- Stationary point found.
 Normal termination of Gaussian 16 at Wed Dec  9 17:20:48 2020.

 ----------------------------------------------------------------------
 # B3LYP/6-311++G(d,p) empiricaldispersion=gd3bj scf=xqc pop=npa geom=c
 heck
 ----------------------------------------------------------------------

 ----------------------------------
 CID_5395_JID_2352_Energie_neutraal
 ----------------------------------
 Structure from the checkpoint file:  "JID_2352.chk"
 Charge =  0 Multiplicity = 1

 SCF Done:  E(RB3LYP) =  -559.762232051     A.U. after   13 cycles
 Normal termination of Gaussian 16 at Wed Dec  9 17:24:09 2020.

 ----------------------------------------------------------------------
 # B3LYP/6-311++G(d,p) empiricaldispersion=gd3bj scf=xqc pop=npa geom=c
 heck
 ----------------------------------------------------------------------

 --------------------------------
 CID_5395_JID_2352_Energie_kation
 --------------------------------
 Structure from the checkpoint file:  "JID_2352.chk"
 Charge =  1 Multiplicity = 2

 SCF Done:  E(UB3LYP) =  -559.460344714     A.U. after   21 cycles
 Normal termination of Gaussian 16 at Wed Dec  9 17:32:14 2020.
 Gaussian 16:  ES64L-G16RevA.03 25-Dec-2016

 ----------------------------------------------------------------------
 # B3LYP/6-311++G(d,p) empiricaldispersion=gd3bj scf=xqc pop=npa geom=c
 heck
 ----------------------------------------------------------------------

 -------------------------------
 CID_5395_JID_2352_Energie_anion
 -------------------------------
 Structure from the checkpoint file:  "JID_2352.chk"
 Charge = -1 Multiplicity = 2

                         Standard orientation:
 ---------------------------------------------------------------------
 Center     Atomic      Atomic             Coordinates (Angstroms)
 Number     Number       Type             X           Y           Z
 ---------------------------------------------------------------------
      1          6           0       -1.534048    0.336913    1.564895
      2          6           0       -1.266760   -0.343215    0.208261
      3          6           0       -1.278177    0.663955   -0.962571
      4          6           0       -0.038297    1.564262   -1.048698
      5          6           0        1.249105    0.743876   -0.953332
      6          6           0        1.288124   -0.275009    0.207343
      7          7           0        0.030498   -1.096989    0.253028
      8          8           0        0.046374   -1.872685   -0.990441
      9          6           0        1.529009    0.403863    1.570700
     10          6           0        2.461801   -1.246972   -0.007752
     11          8           0       -0.004536    2.574814   -0.029124
     12          6           0       -2.392014   -1.373937    0.009717
     13          1           0       -2.595596    0.603705    1.618321
     14          1           0       -0.961330    1.248956    1.706218
     15          1           0       -1.318600   -0.356894    2.383147
     16          1           0       -1.339206    0.098703   -1.899643
     17          1           0       -2.185382    1.283290   -0.911098
     18          1           0       -0.048141    2.063179   -2.031181
     19          1           0        2.101381    1.428612   -0.877893
     20          1           0        1.353663    0.193324   -1.894702
     21          1           0        0.082923   -2.779730   -0.651975
     22          1           0        1.307064   -0.294146    2.383882
     23          1           0        2.586754    0.679573    1.640048
     24          1           0        0.954275    1.316230    1.701573
     25          1           0        2.387786   -1.768460   -0.962615
     26          1           0        3.404446   -0.689913    0.011182
     27          1           0        2.489127   -1.988350    0.799411
     28          1           0       -0.845230    3.056356   -0.073504
     29          1           0       -2.371210   -2.112868    0.819187
     30          1           0       -3.362774   -0.867338    0.037477
     31          1           0       -2.300596   -1.894751   -0.943887
 ---------------------------------------------------------------------

 SCF Done:  E(UB3LYP) =  -559.747300035     A.U. after   26 cycles

 The electronic state is 2-A.
 Alpha  occ. eigenvalues --  -19.03101 -19.00883 -14.24274 -10.10996 -10.10291
 Alpha  occ. eigenvalues --  -10.10053 -10.05458 -10.05173 -10.04985 -10.04737
 Alpha  occ. eigenvalues --  -10.04504 -10.04490  -0.94551  -0.91073  -0.76401
 Alpha  occ. eigenvalues --   -0.70154  -0.65702  -0.61979  -0.58217  -0.57430
 Alpha  occ. eigenvalues --   -0.57098  -0.49310  -0.47171  -0.42849  -0.40352
 Alpha  occ. eigenvalues --   -0.37619  -0.36851  -0.36098  -0.34336  -0.32604
 Alpha  occ. eigenvalues --   -0.31860  -0.31089  -0.30597  -0.29274  -0.28334
 Alpha  occ. eigenvalues --   -0.27553  -0.27158  -0.26227  -0.25411  -0.24622
 Alpha  occ. eigenvalues --   -0.24087  -0.22926  -0.22456  -0.22125  -0.20050
 Alpha  occ. eigenvalues --   -0.17787  -0.16165  -0.12084   0.04738
 Alpha virt. eigenvalues --    0.06839   0.07961   0.08409   0.09420   0.09795
 Alpha virt. eigenvalues --    0.10401   0.10525   0.10906   0.12078   0.12521
 Alpha virt. eigenvalues --    0.12852   0.13114   0.13548   0.14160   0.14873

  Beta  occ. eigenvalues --  -19.03073 -19.00844 -14.24258 -10.10979 -10.10291
  Beta  occ. eigenvalues --  -10.10054 -10.05446 -10.05141 -10.04964 -10.04728
  Beta  occ. eigenvalues --  -10.04480 -10.04472  -0.94503  -0.90989  -0.76357
  Beta  occ. eigenvalues --   -0.70137  -0.65644  -0.61940  -0.58181  -0.57381
  Beta  occ. eigenvalues --   -0.57059  -0.49245  -0.47132  -0.42782  -0.40269
  Beta  occ. eigenvalues --   -0.37578  -0.36827  -0.36044  -0.34306  -0.32570
  Beta  occ. eigenvalues --   -0.31829  -0.31061  -0.30563  -0.29241  -0.28299
  Beta  occ. eigenvalues --   -0.27532  -0.27130  -0.26203  -0.25380  -0.24590
  Beta  occ. eigenvalues --   -0.24054  -0.22898  -0.22432  -0.22096  -0.20014
  Beta  occ. eigenvalues --   -0.17755  -0.16118  -0.12048
  Beta virt. eigenvalues --    0.07084   0.08258   0.08399   0.08790   0.10046
  Beta virt. eigenvalues --    0.10228   0.10815   0.10968   0.11099   0.12581
  Beta virt. eigenvalues --    0.12865   0.13188   0.13315   0.13891   0.14372

 Mulliken charges and spin densities:
               1          2
     1  C    0.840606  -1.486212
     2  C   -1.827741   1.946910
     3  C    1.012385  -1.365765
     4  C    0.351423  -0.764925
     5  C    0.116940  -0.510057
     6  C   -1.133165   1.356710
     7  N    0.164874   0.117160
     8  O   -0.255109  -0.004861
     9  C   -0.164909  -0.525675
    10  C    1.148975  -1.551152
    11  O   -0.152716  -0.064378
    12  C    0.556521  -0.979207
    13  H   -0.264820   0.416651
    14  H    0.098534   0.008697
    15  H    0.111304   0.028026
    16  H    0.296783  -0.135179
    17  H   -0.795338   0.989849
    18  H   -0.803047   1.020317
    19  H    0.091576   0.099417
    20  H    0.105915   0.055090
    21  H   -0.065548   0.317864
    22  H    0.039506   0.098769
    23  H    0.043816   0.083787
    24  H    0.242700  -0.050913
    25  H   -0.132706   0.293825
    26  H    0.064601   0.057147
    27  H   -0.243874   0.398784
    28  H   -0.088220   0.343568
    29  H   -0.259461   0.414056
    30  H    0.046496   0.084759
    31  H   -0.146302   0.306939
 Sum of Mulliken charges =  -1.00000   1.00000

 Dipole moment (field-independent basis, Debye):
    X=              2.9406    Y=             -1.4613    Z=              1.9601  Tot=              3.8242
 Quadrupole moment (field-independent basis, Debye-Ang):
   XX=           -119.4120   YY=           -130.3848   ZZ=           -108.6191
   XY=              7.8992   XZ=             -1.4686   YZ=              4.2401

 Summary of Natural Population Analysis:

                                       Natural Population
                Natural  -----------------------------------------------
    Atom  No    Charge         Core      Valence    Rydberg      Total
 -----------------------------------------------------------------------
      C    1   -0.29203      0.99959     2.28546    0.00698     3.29203
      C    2    0.06014      0.99956     1.92404    0.01626     2.93986
      C    3   -0.21280      0.99955     2.20207    0.01118     3.21280
      C    4    0.06728      0.99954     1.91762    0.01556     2.93272
      C    5   -0.20696      0.99955     2.19674    0.01067     3.20696
      C    6    0.06175      0.99956     1.92326    0.01543     2.93825
      N    7   -0.13894      0.99964     2.62417    0.01513     3.63894
      O    8   -0.30823      0.99991     3.30084    0.00748     4.30823
      C    9   -0.29123      0.99960     2.28593    0.00570     3.29123
      C   10   -0.28664      0.99961     2.27908    0.00794     3.28664
      O   11   -0.38027      0.99989     3.37353    0.00685     4.38027
      C   12   -0.28618      0.99961     2.27935    0.00723     3.28618
      H   13    0.10093      0.00000     0.39807    0.00099     0.39907
      H   14    0.10886      0.00000     0.38967    0.00147     0.39114
      H   15    0.10135      0.00000     0.39749    0.00116     0.39865
      H   16    0.10989      0.00000     0.38833    0.00178     0.39011
      H   17    0.10538      0.00000     0.39162    0.00300     0.39462
      H   18    0.08012      0.00000     0.41761    0.00227     0.41988
      H   19    0.10492      0.00000     0.39392    0.00117     0.39508
      H   20    0.10836      0.00000     0.39031    0.00133     0.39164
      H   21    0.23553      0.00000     0.25950    0.00496     0.26447
      H   22    0.10164      0.00000     0.39728    0.00108     0.39836
      H   23    0.09714      0.00000     0.40207    0.00080     0.40286
      H   24    0.11270      0.00000     0.38590    0.00140     0.38730
      H   25    0.10835      0.00000     0.39068    0.00096     0.39165
      H   26    0.09629      0.00000     0.40292    0.00079     0.40371
      H   27    0.10087      0.00000     0.39785    0.00128     0.39913
      H   28    0.23418      0.00000     0.25914    0.00668     0.26582
      H   29    0.10031      0.00000     0.39837    0.00132     0.39969
      H   30    0.09930      0.00000     0.39967    0.00102     0.40070
      H   31    0.10798      0.00000     0.39095    0.00107     0.39202
 =======================================================================
   * Total *   -0.00000     11.99560    35.84344    0.16095    48.00000

 Normal termination of Gaussian 16 at Wed Dec  9 17:41:05 2020.
