 Gaussian 16, Revision A.03,

 -----------------------------------------------------------
 # opt freq B3LYP/6-31G(d) empiricaldispersion=gd3bj scf=xqc
 -----------------------------------------------------------

 -------------------------------
 CID_107297826_JID_1697_neutraal
 -------------------------------
 Symbolic Z-matrix:
 Charge =  0 Multiplicity = 1

 SCF Done:  E(RB3LYP) =  -803.757887751     A.U. after   13 cycles
 SCF Done:  E(RB3LYP) =  -803.760271904     A.U. after   12 cycles
 SCF Done:  E(RB3LYP) =  -803.760525020     A.U. after   11 cycles
 SCF Done:  E(RB3LYP) =  -803.760614559     A.U. after   10 cycles
 SCF Done:  E(RB3LYP) =  -803.760644002     A.U. after    9 cycles
 SCF Done:  E(RB3LYP) =  -803.760659893     A.U. after   10 cycles
 SCF Done:  E(RB3LYP) =  -803.760662322     A.U. after    8 cycles
 SCF Done:  E(RB3LYP) =  -803.760662725     A.U. after    7 cycles
 SCF Done:  E(RB3LYP) =  -803.760662920     A.U. after    7 cycles
 SCF Done:  E(RB3LYP) =  -803.760663107     A.U. after    7 cycles
 SCF Done:  E(RB3LYP) =  -803.760663300     A.U. after    7 cycles
 SCF Done:  E(RB3LYP) =  -803.760663372     A.U. after    6 cycles
 Optimization completed.
    -- Stationary point found.
 Normal termination of Gaussian 16 at Tue Dec  8 20:51:04 2020.

 --------------------------------------------------------------------
 #N Geom=AllCheck Guess=TCheck SCRF=Check GenChk RB3LYP/6-31G(d) Freq
 --------------------------------------------------------------------

 Structure from the checkpoint file:  "JID_1697.chk"
 -------------------------------
 CID_107297826_JID_1697_neutraal
 -------------------------------
 Charge =  0 Multiplicity = 1

 SCF Done:  E(RB3LYP) =  -803.760663372     A.U. after    1 cycles

  Exact polarizability: 133.065 -13.713  97.642   6.681   5.716  93.472
 Approx polarizability: 172.921 -25.845 153.892  12.626  12.047 155.877

                      1                      2                      3
                      A                      A                      A
 Frequencies --     36.3712                58.1953                64.7008
 Red. masses --      3.3977                 4.7303                 4.6298
 Frc consts  --      0.0026                 0.0094                 0.0114
 IR Inten    --      0.3454                 2.8655                 0.5842

                      4                      5                      6
                      A                      A                      A
 Frequencies --    119.6809               184.5081               217.0244
 Red. masses --      2.6983                 2.2884                 3.9959
 Frc consts  --      0.0228                 0.0459                 0.1109
 IR Inten    --      1.1760                 0.7788                 1.8521

                      7                      8                      9
                      A                      A                      A
 Frequencies --    295.4375               363.7289               420.4036
 Red. masses --      6.6385                 2.2838                 1.8124
 Frc consts  --      0.3414                 0.1780                 0.1887
 IR Inten    --      0.0096                 0.1860                 0.6042

                     10                     11                     12
                      A                      A                      A
 Frequencies --    491.7253               547.6409               625.3064
 Red. masses --      5.0573                 3.2149                 3.5504
 Frc consts  --      0.7205                 0.5681                 0.8179
 IR Inten    --      0.6434                 1.8630                 0.0602

                     13                     14                     15
                      A                      A                      A
 Frequencies --    637.8501               669.7776               681.3700
 Red. masses --      4.3966                 1.3033                 4.0699
 Frc consts  --      1.0539                 0.3445                 1.1133
 IR Inten    --     10.9514                 0.3237                 4.0662

                     16                     17                     18
                      A                      A                      A
 Frequencies --    704.0176               730.8428               769.0484
 Red. masses --      4.9582                 1.1595                 4.2339
 Frc consts  --      1.4479                 0.3649                 1.4753
 IR Inten    --      4.3158                85.4863                 2.1305

                     19                     20                     21
                      A                      A                      A
 Frequencies --    804.7639               819.5369               863.0976
 Red. masses --      1.2898                 1.8415                 1.2400
 Frc consts  --      0.4922                 0.7287                 0.5442
 IR Inten    --      1.3242                 0.9134                 0.1135

                     22                     23                     24
                      A                      A                      A
 Frequencies --    882.9828               895.5051               910.2886
 Red. masses --      1.7584                 5.7119                 1.4675
 Frc consts  --      0.8077                 2.6988                 0.7165
 IR Inten    --      5.5200                 0.0377                 2.2472

                     25                     26                     27
                      A                      A                      A
 Frequencies --    940.0946               997.2895              1004.8533
 Red. masses --      1.5764                 1.9795                 2.1071
 Frc consts  --      0.8208                 1.1600                 1.2536
 IR Inten    --      0.5401                 9.4726                 1.5293

                     28                     29                     30
                      A                      A                      A
 Frequencies --   1053.7544              1071.4163              1094.2467
 Red. masses --      1.4652                 2.0172                 1.2864
 Frc consts  --      0.9586                 1.3643                 0.9075
 IR Inten    --      0.3471                 4.1407                 1.1794

                     31                     32                     33
                      A                      A                      A
 Frequencies --   1095.7583              1103.9099              1120.2427
 Red. masses --      1.9231                 1.3672                 1.3725
 Frc consts  --      1.3604                 0.9816                 1.0148
 IR Inten    --      1.0132                13.8448                26.7084

                     34                     35                     36
                      A                      A                      A
 Frequencies --   1126.2009              1175.9186              1226.1712
 Red. masses --      2.6272                 1.2607                 1.3578
 Frc consts  --      1.9633                 1.0271                 1.2027
 IR Inten    --      4.8513                 0.0529                 1.3382

                     37                     38                     39
                      A                      A                      A
 Frequencies --   1257.8275              1277.8586              1313.6253
 Red. masses --      1.2917                 1.4199                 1.2664
 Frc consts  --      1.2041                 1.3661                 1.2875
 IR Inten    --     16.0476                 7.7373                19.2552

                     40                     41                     42
                      A                      A                      A
 Frequencies --   1314.1273              1328.4278              1348.0567
 Red. masses --      1.3117                 3.9496                 1.2897
 Frc consts  --      1.3346                 4.1066                 1.3809
 IR Inten    --      2.0474                48.3633                 1.6348

                     43                     44                     45
                      A                      A                      A
 Frequencies --   1357.2373              1404.5238              1411.9757
 Red. masses --      1.3088                 1.4969                 1.4887
 Frc consts  --      1.4205                 1.7398                 1.7487
 IR Inten    --      6.1881                 0.3572                24.2674

                     46                     47                     48
                      A                      A                      A
 Frequencies --   1440.5290              1447.8814              1510.5306
 Red. masses --      4.2355                 2.7031                 1.2122
 Frc consts  --      5.1785                 3.3387                 1.6296
 IR Inten    --      1.4918                 2.6239                12.7820

                     49                     50                     51
                      A                      A                      A
 Frequencies --   1510.9526              1523.4692              1533.0281
 Red. masses --      1.0860                 1.0979                 1.1175
 Frc consts  --      1.4607                 1.5014                 1.5474
 IR Inten    --      5.3634                 2.3521                 0.3103

                     52                     53                     54
                      A                      A                      A
 Frequencies --   1549.0530              1577.8001              3040.1800
 Red. masses --      2.3467                 4.0391                 1.0761
 Frc consts  --      3.3177                 5.9243                 5.8600
 IR Inten    --     46.4703                 0.6845                 5.7626

                     55                     56                     57
                      A                      A                      A
 Frequencies --   3050.7886              3057.1913              3065.6101
 Red. masses --      1.0730                 1.0597                 1.0636
 Frc consts  --      5.8841                 5.8352                 5.8891
 IR Inten    --     17.2056                 9.1706                60.0840

                     58                     59                     60
                      A                      A                      A
 Frequencies --   3080.9337              3104.9296              3116.4806
 Red. masses --      1.0609                 1.1055                 1.0966
 Frc consts  --      5.9331                 6.2795                 6.2754
 IR Inten    --     26.2212                13.4354                18.0736

                     61                     62                     63
                      A                      A                      A
 Frequencies --   3125.5969              3138.0126              3249.2296
 Red. masses --      1.1033                 1.1074                 1.0872
 Frc consts  --      6.3507                 6.4248                 6.7626
 IR Inten    --     17.0240                16.2963                 2.4750

                     64                     65                     66
                      A                      A                      A
 Frequencies --   3259.1582              3271.3684              3279.0686
 Red. masses --      1.0916                 1.0995                 1.1071
 Frc consts  --      6.8318                 6.9329                 7.0135
 IR Inten    --      6.8082                 7.1665                 1.9034

 - Thermochemistry -
 -------------------
 Temperature   298.150 Kelvin.  Pressure   1.00000 Atm.
 Atom     1 has atomic number  6 and mass  12.00000

 Molecular mass:   167.07687 amu.
 Principal axes and moments of inertia in atomic units:
                           1         2         3
     Eigenvalues --   672.801543906.305094123.68344
           X            0.99999  -0.00230   0.00331
           Y            0.00227   0.99994   0.01062
           Z           -0.00333  -0.01061   0.99994
 This molecule is an asymmetric top.
 Rotational symmetry number  1.
 Warning -- assumption of classical behavior for rotation
           may cause significant error
 Rotational temperatures (Kelvin)      0.12874     0.02217     0.02100
 Rotational constants (GHZ):           2.68243     0.46201     0.43765
 Zero-point vibrational energy     542800.2 (Joules/Mol)
                                  129.73237 (Kcal/Mol)
 Warning -- explicit consideration of  11 degrees of freedom as
           vibrations may cause significant error
 Vibrational temperatures:     52.33    83.73    93.09   172.19   265.47
          (Kelvin)            312.25   425.07   523.32   604.87   707.48
                              787.93   899.68   917.72   963.66   980.34
                             1012.92  1051.52  1106.49  1157.88  1179.13
                             1241.80  1270.42  1288.43  1309.70  1352.59
                             1434.88  1445.76  1516.12  1541.53  1574.38
                             1576.55  1588.28  1611.78  1620.35  1691.88
                             1764.19  1809.73  1838.55  1890.01  1890.74
                             1911.31  1939.55  1952.76  2020.80  2031.52
                             2072.60  2083.18  2173.32  2173.92  2191.93
                             2205.69  2228.74  2270.10  4374.14  4389.40
                             4398.62  4410.73  4432.78  4467.30  4483.92
                             4497.04  4514.90  4674.92  4689.20  4706.77
                             4717.85

 Zero-point correction=                           0.206742 (Hartree/Particle)
 Thermal correction to Energy=                    0.217030
 Thermal correction to Enthalpy=                  0.217974
 Thermal correction to Gibbs Free Energy=         0.169166
 Sum of electronic and zero-point Energies=           -803.553922
 Sum of electronic and thermal Energies=              -803.543634
 Sum of electronic and thermal Enthalpies=            -803.542690
 Sum of electronic and thermal Free Energies=         -803.591498

                     E (Thermal)             CV                S
                      KCal/Mol        Cal/Mol-Kelvin    Cal/Mol-Kelvin
 Total                  136.188             39.265            102.725
 Electronic               0.000              0.000              0.000
 Translational            0.889              2.981             41.248
 Rotational               0.889              2.981             30.761
 Vibrational            134.411             33.303             30.716
 Vibration     1          0.594              1.982              5.448
 Vibration     2          0.596              1.974              4.517
 Vibration     3          0.597              1.971              4.308
 Vibration     4          0.609              1.933              3.106
 Vibration     5          0.631              1.861              2.282
 Vibration     6          0.646              1.815              1.984
 Vibration     7          0.690              1.682              1.443
 Vibration     8          0.737              1.547              1.106
 Vibration     9          0.783              1.426              0.891
 Vibration    10          0.847              1.268              0.679
 Vibration    11          0.903              1.145              0.549

 Optimization completed.
    -- Stationary point found.
 Normal termination of Gaussian 16 at Tue Dec  8 20:56:48 2020.

 ----------------------------------------------------------------------
 # B3LYP/6-311++G(d,p) empiricaldispersion=gd3bj scf=xqc pop=npa geom=c
 heck
 ----------------------------------------------------------------------

 ---------------------------------------
 CID_107297826_JID_1697_Energie_neutraal
 ---------------------------------------
 Structure from the checkpoint file:  "JID_1697.chk"
 Charge =  0 Multiplicity = 1

 SCF Done:  E(RB3LYP) =  -803.896808653     A.U. after   14 cycles
 Normal termination of Gaussian 16 at Tue Dec  8 20:59:49 2020.

 ----------------------------------------------------------------------
 # B3LYP/6-311++G(d,p) empiricaldispersion=gd3bj scf=xqc pop=npa geom=c
 heck
 ----------------------------------------------------------------------

 -------------------------------------
 CID_107297826_JID_1697_Energie_kation
 -------------------------------------
 Structure from the checkpoint file:  "JID_1697.chk"
 Charge =  1 Multiplicity = 2

 SCF Done:  E(UB3LYP) =  -803.613045332     A.U. after   25 cycles
 Normal termination of Gaussian 16 at Tue Dec  8 21:07:26 2020.
 Gaussian 16:  ES64L-G16RevA.03 25-Dec-2016

 ----------------------------------------------------------------------
 # B3LYP/6-311++G(d,p) empiricaldispersion=gd3bj scf=xqc pop=npa geom=c
 heck
 ----------------------------------------------------------------------

 ------------------------------------
 CID_107297826_JID_1697_Energie_anion
 ------------------------------------
 Structure from the checkpoint file:  "JID_1697.chk"
 Charge = -1 Multiplicity = 2

                         Standard orientation:
 ---------------------------------------------------------------------
 Center     Atomic      Atomic             Coordinates (Angstroms)
 Number     Number       Type             X           Y           Z
 ---------------------------------------------------------------------
      1          6           0        0.876203    0.993905    0.268458
      2          6           0        2.196897    1.461663   -0.345035
      3         16           0        3.373834    0.039874   -0.180313
      4          6           0        2.034261   -1.170769    0.212716
      5          6           0        0.705364   -0.479123   -0.121974
      6          6           0       -0.480993   -1.166440    0.566078
      7          7           0       -1.754091   -0.542775    0.251399
      8          6           0       -2.427006   -0.675985   -0.943510
      9          6           0       -3.502485    0.186633   -0.932526
     10          6           0       -3.477600    0.877994    0.313015
     11          6           0       -2.387766    0.411954    1.017063
     12          1           0        0.924356    1.075900    1.362589
     13          1           0        0.035268    1.604084   -0.075339
     14          1           0        2.076072    1.706800   -1.404342
     15          1           0        2.613963    2.331682    0.167361
     16          1           0        2.082245   -1.430570    1.276265
     17          1           0        2.186038   -2.082403   -0.371061
     18          1           0        0.549693   -0.529634   -1.207817
     19          1           0       -0.527388   -2.221905    0.274563
     20          1           0       -0.351606   -1.134565    1.653483
     21          1           0       -2.083974   -1.377839   -1.690536
     22          1           0       -4.233942    0.296591   -1.721529
     23          1           0       -4.186210    1.617810    0.659469
     24          1           0       -2.008473    0.666489    1.996401
 ---------------------------------------------------------------------

 SCF Done:  E(UB3LYP) =  -803.881127266     A.U. after   33 cycles
 SCF Done:  E(UB3LYP) =  -803.881127266     a.u. after    1 cycles

 The electronic state is 2-A.
 Alpha  occ. eigenvalues --  -88.73262 -14.25676 -10.10891 -10.09869 -10.09295
 Alpha  occ. eigenvalues --  -10.08520 -10.08470 -10.08458 -10.07387 -10.05508
 Alpha  occ. eigenvalues --  -10.05440  -7.81868  -5.78268  -5.77916  -5.77225
 Alpha  occ. eigenvalues --   -0.88282  -0.75228  -0.70190  -0.63899  -0.62410
 Alpha  occ. eigenvalues --   -0.61990  -0.56587  -0.48582  -0.47927  -0.46859
 Alpha  occ. eigenvalues --   -0.44784  -0.42767  -0.38236  -0.37343  -0.35241
 Alpha  occ. eigenvalues --   -0.32765  -0.32547  -0.30660  -0.29711  -0.29022
 Alpha  occ. eigenvalues --   -0.27794  -0.27585  -0.26359  -0.25427  -0.24356
 Alpha  occ. eigenvalues --   -0.23351  -0.20867  -0.13779  -0.12062  -0.11506
 Alpha  occ. eigenvalues --    0.04837
 Alpha virt. eigenvalues --    0.07091   0.07469   0.07766   0.09221   0.09484
 Alpha virt. eigenvalues --    0.09974   0.10229   0.10872   0.11575   0.12291
 Alpha virt. eigenvalues --    0.12487   0.13339   0.13549   0.13915   0.14495

  Beta  occ. eigenvalues --  -88.73260 -14.25677 -10.10848 -10.09855 -10.09254
  Beta  occ. eigenvalues --  -10.08497 -10.08459 -10.08432 -10.07363 -10.05504
  Beta  occ. eigenvalues --  -10.05436  -7.81866  -5.78268  -5.77909  -5.77224
  Beta  occ. eigenvalues --   -0.88267  -0.75196  -0.70157  -0.63865  -0.62359
  Beta  occ. eigenvalues --   -0.61948  -0.56524  -0.48538  -0.47863  -0.46816
  Beta  occ. eigenvalues --   -0.44714  -0.42706  -0.38192  -0.37273  -0.35201
  Beta  occ. eigenvalues --   -0.32720  -0.32513  -0.30620  -0.29679  -0.28981
  Beta  occ. eigenvalues --   -0.27769  -0.27543  -0.26315  -0.25393  -0.24299
  Beta  occ. eigenvalues --   -0.23297  -0.20838  -0.13766  -0.12041  -0.11469
  Beta virt. eigenvalues --    0.07175   0.07917   0.08301   0.08371   0.09575
  Beta virt. eigenvalues --    0.09943   0.10566   0.10955   0.11139   0.12207
  Beta virt. eigenvalues --    0.12587   0.12668   0.13586   0.13928   0.14190

 Mulliken charges and spin densities:
               1          2
     1  C    0.997755  -1.699621
     2  C   -0.440663   0.211256
     3  S   -0.041497  -0.143061
     4  C    0.440891  -0.950214
     5  C   -1.040574   2.013548
     6  C    0.998600  -2.151408
     7  N    0.168541   0.179474
     8  C    0.100033  -0.267779
     9  C    0.211674  -0.399942
    10  C    0.172333  -0.368759
    11  C    0.048062  -0.265168
    12  H   -0.153517   0.318415
    13  H    0.235117  -0.058456
    14  H    0.031797   0.139603
    15  H   -0.056660   0.249387
    16  H   -0.161491   0.338767
    17  H   -0.384267   0.595860
    18  H    0.050537   0.118804
    19  H   -0.598914   0.804473
    20  H   -0.435435   0.649604
    21  H   -0.538349   0.678652
    22  H   -0.054531   0.190394
    23  H   -0.058001   0.198871
    24  H   -0.491441   0.617302
 Sum of Mulliken charges =  -1.00000   1.00000

 Dipole moment (field-independent basis, Debye):
    X=              0.4363    Y=              4.0740    Z=             -1.7495  Tot=              4.4552
 Quadrupole moment (field-independent basis, Debye-Ang):
   XX=           -129.7967   YY=           -116.3035   ZZ=           -113.0180
   XY=              0.6369   XZ=             -0.2917   YZ=             -3.9671

 Summary of Natural Population Analysis:

                                       Natural Population
                Natural  -----------------------------------------------
    Atom  No    Charge         Core      Valence    Rydberg      Total
 -----------------------------------------------------------------------
      C    1   -0.19835      0.99960     2.18908    0.00967     3.19835
      C    2   -0.23707      0.99960     2.22963    0.00783     3.23707
      S    3    0.06598      4.99967     2.91759    0.01676     7.93402
      C    4   -0.23807      0.99957     2.22814    0.01036     3.23807
      C    5   -0.12077      0.99957     2.10922    0.01198     3.12077
      C    6   -0.07726      0.99957     2.06418    0.01351     3.07726
      N    7   -0.20515      0.99966     2.69308    0.01241     3.70515
      C    8   -0.01768      0.99955     2.00506    0.01308     3.01768
      C    9   -0.14923      0.99957     2.14056    0.00910     3.14923
      C   10   -0.15148      0.99957     2.14272    0.00920     3.15148
      C   11   -0.01642      0.99955     2.00388    0.01300     3.01642
      H   12    0.10099      0.00000     0.39715    0.00186     0.39901
      H   13    0.11097      0.00000     0.38778    0.00125     0.38903
      H   14    0.09652      0.00000     0.40167    0.00181     0.40348
      H   15    0.10331      0.00000     0.39519    0.00150     0.39669
      H   16    0.10115      0.00000     0.39619    0.00265     0.39885
      H   17    0.10980      0.00000     0.38776    0.00243     0.39020
      H   18    0.10109      0.00000     0.39706    0.00185     0.39891
      H   19    0.10740      0.00000     0.38897    0.00364     0.39260
      H   20    0.10429      0.00000     0.39277    0.00294     0.39571
      H   21    0.10314      0.00000     0.39526    0.00160     0.39686
      H   22    0.10167      0.00000     0.39764    0.00069     0.39833
      H   23    0.10197      0.00000     0.39731    0.00072     0.39803
      H   24    0.10321      0.00000     0.39518    0.00161     0.39679
 =======================================================================
   * Total *   -0.00000     14.99549    29.85306    0.15145    45.00000

 Normal termination of Gaussian 16 at Tue Dec  8 21:17:48 2020.
