 Gaussian 16, Revision A.03,

 -----------------------------------------------------------
 # opt freq B3LYP/6-31G(d) empiricaldispersion=gd3bj scf=xqc
 -----------------------------------------------------------

 ------------------------------
 CID_71527191_JID_3377_neutraal
 ------------------------------
 Symbolic Z-matrix:
 Charge =  0 Multiplicity = 1

 SCF Done:  E(RB3LYP) =  -535.900444029     A.U. after   15 cycles
 SCF Done:  E(RB3LYP) =  -535.913871730     A.U. after   13 cycles
 SCF Done:  E(RB3LYP) =  -535.915283204     A.U. after   12 cycles
 SCF Done:  E(RB3LYP) =  -535.915597061     A.U. after   12 cycles
 SCF Done:  E(RB3LYP) =  -535.915896226     A.U. after   12 cycles
 SCF Done:  E(RB3LYP) =  -535.916016376     A.U. after   11 cycles
 SCF Done:  E(RB3LYP) =  -535.916144295     A.U. after   11 cycles
 SCF Done:  E(RB3LYP) =  -535.916164078     A.U. after   10 cycles
 SCF Done:  E(RB3LYP) =  -535.916173519     A.U. after    9 cycles
 SCF Done:  E(RB3LYP) =  -535.916199771     A.U. after   11 cycles
 SCF Done:  E(RB3LYP) =  -535.916236975     A.U. after   11 cycles
 SCF Done:  E(RB3LYP) =  -535.916262236     A.U. after   10 cycles
 SCF Done:  E(RB3LYP) =  -535.916266142     A.U. after   10 cycles
 SCF Done:  E(RB3LYP) =  -535.916267687     A.U. after    9 cycles
 SCF Done:  E(RB3LYP) =  -535.916268137     A.U. after    7 cycles
 SCF Done:  E(RB3LYP) =  -535.916268237     A.U. after    7 cycles
 Optimization completed.
    -- Stationary point found.
 Normal termination of Gaussian 16 at Wed Dec  9 23:06:10 2020.

 --------------------------------------------------------------------
 #N Geom=AllCheck Guess=TCheck SCRF=Check GenChk RB3LYP/6-31G(d) Freq
 --------------------------------------------------------------------

 Structure from the checkpoint file:  "JID_3377.chk"
 ------------------------------
 CID_71527191_JID_3377_neutraal
 ------------------------------
 Charge =  0 Multiplicity = 1

 SCF Done:  E(RB3LYP) =  -535.916268237     A.U. after    1 cycles

  Exact polarizability: 178.425   0.681 143.355  -2.045  -6.649  64.093
 Approx polarizability: 269.499   1.303 263.271  -5.752 -15.416  99.702

                      1                      2                      3
                      A                      A                      A
 Frequencies --     41.0297               103.0788               127.8373
 Red. masses --      2.2562                 3.2652                 3.0806
 Frc consts  --      0.0022                 0.0204                 0.0297
 IR Inten    --      0.2979                 0.1412                 4.0872

                      4                      5                      6
                      A                      A                      A
 Frequencies --    150.8575               171.5242               192.1680
 Red. masses --      1.7501                 1.9025                 1.1230
 Frc consts  --      0.0235                 0.0330                 0.0244
 IR Inten    --      0.4623                 0.4932                 1.4465

                      7                      8                      9
                      A                      A                      A
 Frequencies --    253.6886               279.2917               297.8642
 Red. masses --      3.9107                 4.3521                 2.8368
 Frc consts  --      0.1483                 0.2000                 0.1483
 IR Inten    --      1.1836                 1.1598                 3.3577

                     10                     11                     12
                      A                      A                      A
 Frequencies --    355.8240               400.4553               448.0574
 Red. masses --      3.0963                 3.7006                 2.9930
 Frc consts  --      0.2310                 0.3497                 0.3540
 IR Inten    --      2.0227                 0.7427                 3.8345

                     13                     14                     15
                      A                      A                      A
 Frequencies --    488.0101               507.0580               561.0961
 Red. masses --      3.5584                 5.8233                 3.4092
 Frc consts  --      0.4993                 0.8821                 0.6324
 IR Inten    --      2.9825                 0.5991                 4.4520

                     16                     17                     18
                      A                      A                      A
 Frequencies --    590.5088               601.6385               661.2704
 Red. masses --      4.0873                 3.4275                 3.2837
 Frc consts  --      0.8397                 0.7310                 0.8460
 IR Inten    --      1.1637                 5.3240                 0.6139

                     19                     20                     21
                      A                      A                      A
 Frequencies --    682.7174               704.7656               746.1294
 Red. masses --      5.3164                 4.9229                 1.3828
 Frc consts  --      1.4600                 1.4407                 0.4536
 IR Inten    --      5.0580                 0.1564                 6.3369

                     22                     23                     24
                      A                      A                      A
 Frequencies --    768.3282               792.0285               867.5366
 Red. masses --      1.4101                 3.2228                 1.6247
 Frc consts  --      0.4905                 1.1912                 0.7204
 IR Inten    --     46.8735                 2.2783                 0.7080

                     25                     26                     27
                      A                      A                      A
 Frequencies --    898.8808               930.4420               934.5331
 Red. masses --      5.1374                 1.3601                 3.2215
 Frc consts  --      2.4457                 0.6937                 1.6577
 IR Inten    --      8.7297                38.0712                 4.4569

                     28                     29                     30
                      A                      A                      A
 Frequencies --    951.3050               973.2106               983.9157
 Red. masses --      1.3204                 2.8599                 1.2444
 Frc consts  --      0.7040                 1.5960                 0.7098
 IR Inten    --      0.4398                 2.8110                 0.2513

                     31                     32                     33
                      A                      A                      A
 Frequencies --   1024.3803              1043.7220              1064.4713
 Red. masses --      2.0458                 1.4792                 2.2157
 Frc consts  --      1.2649                 0.9494                 1.4792
 IR Inten    --      2.9199                 2.2870                33.4399

                     34                     35                     36
                      A                      A                      A
 Frequencies --   1086.2624              1136.7121              1156.6276
 Red. masses --      1.4772                 2.4458                 1.3133
 Frc consts  --      1.0270                 1.8620                 1.0351
 IR Inten    --      1.3950                 3.5833                 5.0998

                     37                     38                     39
                      A                      A                      A
 Frequencies --   1164.7514              1185.9685              1260.8821
 Red. masses --      1.3890                 1.1835                 2.2811
 Frc consts  --      1.1102                 0.9808                 2.1367
 IR Inten    --      2.6747                 6.6080                17.6709

                     40                     41                     42
                      A                      A                      A
 Frequencies --   1308.9479              1328.3212              1373.0941
 Red. masses --      2.9000                 3.1289                 3.4028
 Frc consts  --      2.9274                 3.2528                 3.7799
 IR Inten    --     16.7601                30.7999                 1.3131

                     43                     44                     45
                      A                      A                      A
 Frequencies --   1404.1662              1437.6852              1445.3041
 Red. masses --      3.3164                 1.3223                 2.8483
 Frc consts  --      3.8526                 1.6103                 3.5055
 IR Inten    --     48.3361                 2.2938                 4.0570

                     46                     47                     48
                      A                      A                      A
 Frequencies --   1457.3105              1469.2799              1487.3275
 Red. masses --      1.5298                 1.3356                 2.2795
 Frc consts  --      1.9142                 1.6988                 2.9711
 IR Inten    --      4.8783                 1.2743                 5.7980

                     49                     50                     51
                      A                      A                      A
 Frequencies --   1509.2151              1513.4085              1521.1030
 Red. masses --      1.0723                 1.4186                 1.2317
 Frc consts  --      1.4390                 1.9144                 1.6791
 IR Inten    --      0.4615                14.9393                10.0554

                     52                     53                     54
                      A                      A                      A
 Frequencies --   1531.7892              1541.3653              1566.3366
 Red. masses --      1.2789                 1.3436                 4.2432
 Frc consts  --      1.7680                 1.8807                 6.1335
 IR Inten    --     11.9365                25.9516                 0.8583

                     55                     56                     57
                      A                      A                      A
 Frequencies --   1601.6819              1682.1703              1704.6844
 Red. masses --      6.0319                 6.5380                 4.6975
 Frc consts  --      9.1172                10.9003                 8.0427
 IR Inten    --      4.6309                 3.0436                17.0893

                     58                     59                     60
                      A                      A                      A
 Frequencies --   3053.1185              3072.9010              3109.5215
 Red. masses --      1.0369                 1.0369                 1.0990
 Frc consts  --      5.6949                 5.7690                 6.2608
 IR Inten    --     16.9448                45.7975                21.8295

                     61                     62                     63
                      A                      A                      A
 Frequencies --   3135.1267              3143.0629              3171.0029
 Red. masses --      1.1018                 1.1033                 1.0599
 Frc consts  --      6.3809                 6.4214                 6.2795
 IR Inten    --     19.2294                12.7892                 5.2770

                     64                     65                     66
                      A                      A                      A
 Frequencies --   3184.0869              3192.4826              3196.0561
 Red. masses --      1.0856                 1.1027                 1.0884
 Frc consts  --      6.4844                 6.6218                 6.5506
 IR Inten    --      3.0947                 2.3312                13.1721

                     67                     68                     69
                      A                      A                      A
 Frequencies --   3208.9890              3216.6772              3256.0295
 Red. masses --      1.0945                 1.0959                 1.1163
 Frc consts  --      6.6407                 6.6807                 6.9727
 IR Inten    --     26.3045                21.2146                13.0628

 - Thermochemistry -
 -------------------
 Temperature   298.150 Kelvin.  Pressure   1.00000 Atm.
 Atom     1 has atomic number  6 and mass  12.00000

 Molecular mass:   172.10005 amu.
 Principal axes and moments of inertia in atomic units:
                           1         2         3
     Eigenvalues --  1271.656522700.954633766.99788
           X            0.99997  -0.00655   0.00515
           Y            0.00656   0.99998  -0.00197
           Z           -0.00514   0.00200   0.99998
 This molecule is an asymmetric top.
 Rotational symmetry number  1.
 Warning -- assumption of classical behavior for rotation
           may cause significant error
 Rotational temperatures (Kelvin)      0.06811     0.03207     0.02299
 Rotational constants (GHZ):           1.41920     0.66819     0.47909
 Zero-point vibrational energy     546759.6 (Joules/Mol)
                                  130.67869 (Kcal/Mol)
 Warning -- explicit consideration of  17 degrees of freedom as
           vibrations may cause significant error
 Vibrational temperatures:     59.03   148.31   183.93   217.05   246.79
          (Kelvin)            276.49   365.00   401.84   428.56   511.95
                              576.17   644.65   702.14   729.54   807.29
                              849.61   865.62   951.42   982.28  1014.00
                             1073.51  1105.45  1139.55  1248.19  1293.29
                             1338.70  1344.58  1368.72  1400.23  1415.64
                             1473.85  1501.68  1531.54  1562.89  1635.48
                             1664.13  1675.82  1706.34  1814.13  1883.28
                             1911.16  1975.58  2020.28  2068.51  2079.47
                             2096.74  2113.97  2139.93  2171.42  2177.46
                             2188.53  2203.90  2217.68  2253.61  2304.46
                             2420.27  2452.66  4392.76  4421.22  4473.91
                             4510.75  4522.17  4562.37  4581.19  4593.27
                             4598.41  4617.02  4628.08  4684.70

 Zero-point correction=                           0.208250 (Hartree/Particle)
 Thermal correction to Energy=                    0.219678
 Thermal correction to Enthalpy=                  0.220622
 Thermal correction to Gibbs Free Energy=         0.170829
 Sum of electronic and zero-point Energies=           -535.708018
 Sum of electronic and thermal Energies=              -535.696590
 Sum of electronic and thermal Enthalpies=            -535.695646
 Sum of electronic and thermal Free Energies=         -535.745439

                     E (Thermal)             CV                S
                      KCal/Mol        Cal/Mol-Kelvin    Cal/Mol-Kelvin
 Total                  137.850             44.440            104.798
 Electronic               0.000              0.000              0.000
 Translational            0.889              2.981             41.336
 Rotational               0.889              2.981             30.937
 Vibrational            136.073             38.479             32.525
 Vibration     1          0.594              1.981              5.209
 Vibration     2          0.605              1.947              3.395
 Vibration     3          0.611              1.925              2.978
 Vibration     4          0.618              1.902              2.661
 Vibration     5          0.626              1.878              2.419
 Vibration     6          0.634              1.851              2.207
 Vibration     7          0.665              1.757              1.705
 Vibration     8          0.680              1.712              1.538
 Vibration     9          0.691              1.678              1.429
 Vibration    10          0.731              1.563              1.140
 Vibration    11          0.766              1.469              0.961
 Vibration    12          0.807              1.365              0.802
 Vibration    13          0.844              1.277              0.689
 Vibration    14          0.862              1.234              0.641
 Vibration    15          0.917              1.115              0.522
 Vibration    16          0.948              1.052              0.466
 Vibration    17          0.960              1.028              0.447

 Optimization completed.
    -- Stationary point found.
 Normal termination of Gaussian 16 at Wed Dec  9 23:12:18 2020.

 ----------------------------------------------------------------------
 # B3LYP/6-311++G(d,p) empiricaldispersion=gd3bj scf=xqc pop=npa geom=c
 heck
 ----------------------------------------------------------------------

 --------------------------------------
 CID_71527191_JID_3377_Energie_neutraal
 --------------------------------------
 Structure from the checkpoint file:  "JID_3377.chk"
 Charge =  0 Multiplicity = 1

 SCF Done:  E(RB3LYP) =  -536.053363701     A.U. after   15 cycles
 Normal termination of Gaussian 16 at Wed Dec  9 23:14:56 2020.

 ----------------------------------------------------------------------
 # B3LYP/6-311++G(d,p) empiricaldispersion=gd3bj scf=xqc pop=npa geom=c
 heck
 ----------------------------------------------------------------------

 ------------------------------------
 CID_71527191_JID_3377_Energie_kation
 ------------------------------------
 Structure from the checkpoint file:  "JID_3377.chk"
 Charge =  1 Multiplicity = 2

 SCF Done:  E(UB3LYP) =  -535.783256390     A.U. after   21 cycles
 Normal termination of Gaussian 16 at Wed Dec  9 23:20:12 2020.
 Gaussian 16:  ES64L-G16RevA.03 25-Dec-2016

 ----------------------------------------------------------------------
 # B3LYP/6-311++G(d,p) empiricaldispersion=gd3bj scf=xqc pop=npa geom=c
 heck
 ----------------------------------------------------------------------

 -----------------------------------
 CID_71527191_JID_3377_Energie_anion
 -----------------------------------
 Structure from the checkpoint file:  "JID_3377.chk"
 Charge = -1 Multiplicity = 2

                         Standard orientation:
 ---------------------------------------------------------------------
 Center     Atomic      Atomic             Coordinates (Angstroms)
 Number     Number       Type             X           Y           Z
 ---------------------------------------------------------------------
      1          6           0       -3.084142   -0.728491   -0.887070
      2          6           0       -1.932408   -0.991636    0.058246
      3          6           0       -1.891373   -2.096979    0.818842
      4          6           0       -0.790220   -0.066496    0.067306
      5          6           0        0.587155   -0.353501    0.002761
      6          6           0        1.355752   -1.537513   -0.094313
      7          6           0        2.726172   -1.418106   -0.152944
      8          6           0        3.364520   -0.142341   -0.121740
      9          6           0        2.642601    1.026146   -0.042405
     10          6           0        1.230069    0.928029    0.016673
     11          7           0        0.328993    1.929014    0.090044
     12          7           0       -0.866076    1.297002    0.110732
     13          6           0       -2.055645    2.120819    0.241178
     14          1           0       -3.759599   -1.588110   -0.917131
     15          1           0       -2.718193   -0.538687   -1.903122
     16          1           0       -3.675913    0.144715   -0.591623
     17          1           0       -1.072126   -2.285384    1.505029
     18          1           0       -2.682187   -2.840565    0.774460
     19          1           0        0.871852   -2.508930   -0.126859
     20          1           0        3.341734   -2.310041   -0.227564
     21          1           0        4.449240   -0.100567   -0.168187
     22          1           0        3.122640    1.999396   -0.027604
     23          1           0       -1.727574    3.098925    0.590653
     24          1           0       -2.565767    2.231299   -0.720703
     25          1           0       -2.739416    1.676244    0.968014
 ---------------------------------------------------------------------

 SCF Done:  E(UB3LYP) =  -536.050457892     A.U. after   32 cycles

 The electronic state is 2-A.
 Alpha  occ. eigenvalues --  -14.24158 -14.17117 -10.08320 -10.05892 -10.05423
 Alpha  occ. eigenvalues --  -10.04914 -10.04754 -10.03449 -10.03055 -10.03016
 Alpha  occ. eigenvalues --  -10.02956 -10.02791 -10.02485  -0.90395  -0.72208
 Alpha  occ. eigenvalues --   -0.69801  -0.66801  -0.63155  -0.59436  -0.57155
 Alpha  occ. eigenvalues --   -0.56402  -0.48270  -0.46987  -0.45357  -0.41073
 Alpha  occ. eigenvalues --   -0.36952  -0.35901  -0.34928  -0.34566  -0.30882
 Alpha  occ. eigenvalues --   -0.30583  -0.30271  -0.29096  -0.28341  -0.28007
 Alpha  occ. eigenvalues --   -0.26832  -0.25076  -0.23823  -0.22924  -0.20830
 Alpha  occ. eigenvalues --   -0.20414  -0.16252  -0.14806  -0.12939  -0.10804
 Alpha  occ. eigenvalues --   -0.07011   0.05039
 Alpha virt. eigenvalues --    0.07681   0.08982   0.09367   0.10233   0.10495
 Alpha virt. eigenvalues --    0.10850   0.11852   0.12457   0.12593   0.13005
 Alpha virt. eigenvalues --    0.13617   0.14425   0.15200   0.15663   0.16759

  Beta  occ. eigenvalues --  -14.23770 -14.16879 -10.08328 -10.05757 -10.05356
  Beta  occ. eigenvalues --  -10.04978 -10.04732 -10.03443 -10.03094 -10.02951
  Beta  occ. eigenvalues --  -10.02830 -10.02615 -10.02311  -0.89865  -0.71953
  Beta  occ. eigenvalues --   -0.69465  -0.66517  -0.62957  -0.59132  -0.57047
  Beta  occ. eigenvalues --   -0.56184  -0.47893  -0.46837  -0.45053  -0.40887
  Beta  occ. eigenvalues --   -0.36748  -0.35742  -0.34492  -0.34108  -0.30738
  Beta  occ. eigenvalues --   -0.30479  -0.30155  -0.28989  -0.28243  -0.27853
  Beta  occ. eigenvalues --   -0.26419  -0.24980  -0.23701  -0.22809  -0.20474
  Beta  occ. eigenvalues --   -0.19832  -0.15477  -0.14391  -0.12091  -0.10026
  Beta  occ. eigenvalues --   -0.05701
  Beta virt. eigenvalues --    0.08086   0.08949   0.09349   0.09776   0.10363
  Beta virt. eigenvalues --    0.10602   0.11255   0.12262   0.12616   0.12839
  Beta virt. eigenvalues --    0.13250   0.13683   0.14482   0.15586   0.15793

 Mulliken charges and spin densities:
               1          2
     1  C    0.296213  -0.895092
     2  C    0.292189   0.527985
     3  C   -0.781934   0.129781
     4  C    0.032465   0.268558
     5  C    0.777329   0.050791
     6  C   -0.523183   0.099266
     7  C   -0.443339   0.066693
     8  C   -0.361572  -0.019888
     9  C   -0.318119   0.116708
    10  C   -0.478432  -0.288348
    11  N   -0.200817   0.176724
    12  N    0.165382   0.123818
    13  C    0.170057  -0.546457
    14  H    0.009419   0.126385
    15  H    0.089356   0.068154
    16  H   -0.310895   0.459698
    17  H    0.116537   0.010520
    18  H    0.077136  -0.010106
    19  H    0.119164  -0.003515
    20  H    0.107656  -0.003746
    21  H    0.102774  -0.001292
    22  H    0.125490  -0.005091
    23  H    0.160584  -0.013045
    24  H   -0.306270   0.496199
    25  H    0.082810   0.065299
 Sum of Mulliken charges =  -1.00000   1.00000

 Dipole moment (field-independent basis, Debye):
    X=              1.6854    Y=             -1.4689    Z=              0.7148  Tot=              2.3472
 Quadrupole moment (field-independent basis, Debye-Ang):
   XX=           -122.3012   YY=           -100.9869   ZZ=            -93.4613
   XY=              2.0333   XZ=             -3.5880   YZ=              4.2562

 Summary of Natural Population Analysis:

                                       Natural Population
                Natural  -----------------------------------------------
    Atom  No    Charge         Core      Valence    Rydberg      Total
 -----------------------------------------------------------------------
      C    1   -0.29424      0.99963     2.28871    0.00590     3.29424
      C    2   -0.01900      0.99951     2.01020    0.00929     3.01900
      C    3   -0.16238      0.99953     2.15542    0.00743     3.16238
      C    4    0.09059      0.99945     1.89752    0.01243     2.90941
      C    5   -0.06833      0.99946     2.06006    0.00882     3.06833
      C    6   -0.07310      0.99954     2.06555    0.00801     3.07310
      C    7   -0.11518      0.99958     2.10605    0.00955     3.11518
      C    8   -0.11840      0.99959     2.10909    0.00973     3.11840
      C    9   -0.07700      0.99952     2.06831    0.00916     3.07700
      C   10    0.04901      0.99952     1.93841    0.01307     2.95099
      N   11   -0.14081      0.99971     2.62958    0.01152     3.64081
      N   12   -0.04026      0.99962     2.52894    0.01169     3.54026
      C   13   -0.17863      0.99965     2.17139    0.00759     3.17863
      H   14    0.09689      0.00000     0.40236    0.00076     0.40311
      H   15    0.10041      0.00000     0.39855    0.00104     0.39959
      H   16    0.10350      0.00000     0.39429    0.00221     0.39650
      H   17    0.09283      0.00000     0.40625    0.00092     0.40717
      H   18    0.08336      0.00000     0.41578    0.00086     0.41664
      H   19    0.09683      0.00000     0.40180    0.00137     0.40317
      H   20    0.08903      0.00000     0.41001    0.00096     0.41097
      H   21    0.08901      0.00000     0.40999    0.00100     0.41099
      H   22    0.09347      0.00000     0.40498    0.00154     0.40653
      H   23    0.10488      0.00000     0.39380    0.00132     0.39512
      H   24    0.10070      0.00000     0.39669    0.00262     0.39930
      H   25    0.09682      0.00000     0.40226    0.00092     0.40318
 =======================================================================
   * Total *    0.00000     12.99431    32.86598    0.13971    46.00000

 Normal termination of Gaussian 16 at Wed Dec  9 23:28:08 2020.
