 Gaussian 16, Revision A.03,

 -----------------------------------------------------------
 # opt freq B3LYP/6-31G(d) empiricaldispersion=gd3bj scf=xqc
 -----------------------------------------------------------

 --------------------------------
 CID_136819650_JID_10116_neutraal
 --------------------------------
 Symbolic Z-matrix:
 Charge =  0 Multiplicity = 1

 SCF Done:  E(RB3LYP) =  -1219.55140997     A.U. after   15 cycles
 SCF Done:  E(RB3LYP) =  -1219.55594181     A.U. after   13 cycles
 SCF Done:  E(RB3LYP) =  -1219.55656647     A.U. after   13 cycles
 SCF Done:  E(RB3LYP) =  -1219.55688729     A.U. after   13 cycles
 SCF Done:  E(RB3LYP) =  -1219.55713421     A.U. after   13 cycles
 SCF Done:  E(RB3LYP) =  -1219.55733984     A.U. after   13 cycles
 SCF Done:  E(RB3LYP) =  -1219.55745078     A.U. after   12 cycles
 SCF Done:  E(RB3LYP) =  -1219.55753771     A.U. after   12 cycles
 SCF Done:  E(RB3LYP) =  -1219.55755186     A.U. after   11 cycles
 SCF Done:  E(RB3LYP) =  -1219.55755374     A.U. after   10 cycles
 SCF Done:  E(RB3LYP) =  -1219.55755659     A.U. after   11 cycles
 SCF Done:  E(RB3LYP) =  -1219.55755819     A.U. after   10 cycles
 SCF Done:  E(RB3LYP) =  -1219.55756064     A.U. after   10 cycles
 SCF Done:  E(RB3LYP) =  -1219.55756171     A.U. after   10 cycles
 SCF Done:  E(RB3LYP) =  -1219.55756175     A.U. after    7 cycles
 Optimization completed.
    -- Stationary point found.
 Normal termination of Gaussian 16 at Thu Dec 17 20:17:59 2020.

 --------------------------------------------------------------------
 #N Geom=AllCheck Guess=TCheck SCRF=Check GenChk RB3LYP/6-31G(d) Freq
 --------------------------------------------------------------------

 Structure from the checkpoint file:  "JID_10116.chk"
 --------------------------------
 CID_136819650_JID_10116_neutraal
 --------------------------------
 Charge =  0 Multiplicity = 1

 SCF Done:  E(RB3LYP) =  -1219.55756175     A.U. after    1 cycles

  Exact polarizability: 196.788 -26.453 200.106  -4.837  -4.517 155.373
 Approx polarizability: 274.120 -50.282 332.869  -7.095  -7.489 260.662

                      1                      2                      3
                      A                      A                      A
 Frequencies --     15.7086                17.5549                42.0157
 Red. masses --      7.4317                 5.9894                 3.9664
 Frc consts  --      0.0011                 0.0011                 0.0041
 IR Inten    --      2.5180                 1.4922                 0.0701

                      4                      5                      6
                      A                      A                      A
 Frequencies --     62.5056                88.1123               110.8760
 Red. masses --      5.6161                 4.7920                 5.9841
 Frc consts  --      0.0129                 0.0219                 0.0433
 IR Inten    --      1.5429                 1.0641                 6.0807

                      7                      8                      9
                      A                      A                      A
 Frequencies --    139.3330               144.3199               175.2105
 Red. masses --      7.3934                 5.8742                 4.2675
 Frc consts  --      0.0846                 0.0721                 0.0772
 IR Inten    --      3.7135                 0.2306                 1.3555

                     10                     11                     12
                      A                      A                      A
 Frequencies --    205.1310               225.9520               260.2101
 Red. masses --      3.1576                 2.6141                 4.1575
 Frc consts  --      0.0783                 0.0786                 0.1659
 IR Inten    --      3.6605                 7.6034                 0.2111

                     13                     14                     15
                      A                      A                      A
 Frequencies --    278.0219               297.7224               313.2074
 Red. masses --      2.0107                 4.8803                 2.9495
 Frc consts  --      0.0916                 0.2549                 0.1705
 IR Inten    --     14.5086                 1.7532                 2.4381

                     16                     17                     18
                      A                      A                      A
 Frequencies --    337.1814               368.8004               395.1975
 Red. masses --      1.4166                 2.4741                 4.6549
 Frc consts  --      0.0949                 0.1983                 0.4283
 IR Inten    --     82.2295                 3.4524                 3.1613

                     19                     20                     21
                      A                      A                      A
 Frequencies --    427.5710               440.6546               450.9837
 Red. masses --      2.0245                 3.8671                 2.7546
 Frc consts  --      0.2181                 0.4424                 0.3301
 IR Inten    --      0.6586                 2.4520                 2.9857

                     22                     23                     24
                      A                      A                      A
 Frequencies --    466.3915               486.4372               508.0165
 Red. masses --      7.6966                 5.0900                 3.8326
 Frc consts  --      0.9864                 0.7096                 0.5828
 IR Inten    --      0.6527                 6.8231                 2.8313

                     25                     26                     27
                      A                      A                      A
 Frequencies --    522.4771               560.7543               574.6241
 Red. masses --      4.5397                 6.3436                 5.2359
 Frc consts  --      0.7302                 1.1752                 1.0186
 IR Inten    --      5.7988                 2.7795                 5.5538

                     28                     29                     30
                      A                      A                      A
 Frequencies --    584.0121               632.4016               640.4241
 Red. masses --      5.9741                 5.6351                 2.2666
 Frc consts  --      1.2005                 1.3278                 0.5477
 IR Inten    --     11.9505                 5.2354                 2.1935

                     31                     32                     33
                      A                      A                      A
 Frequencies --    671.5718               708.9528               724.4734
 Red. masses --      7.2656                 2.5678                 5.1567
 Frc consts  --      1.9307                 0.7604                 1.5946
 IR Inten    --      8.5652                12.8383                10.6853

                     34                     35                     36
                      A                      A                      A
 Frequencies --    745.5050               760.1552               802.6052
 Red. masses --      4.7474                 4.8128                 2.3132
 Frc consts  --      1.5545                 1.6385                 0.8780
 IR Inten    --      2.0590                11.1967                 8.8268

                     37                     38                     39
                      A                      A                      A
 Frequencies --    818.1382               835.7725               872.6015
 Red. masses --      1.5300                 1.8576                 3.0059
 Frc consts  --      0.6034                 0.7645                 1.3485
 IR Inten    --     25.4584                 3.1076                10.7182

                     40                     41                     42
                      A                      A                      A
 Frequencies --    903.2027               913.4193               921.5870
 Red. masses --      1.6578                 2.7341                 2.2415
 Frc consts  --      0.7968                 1.3440                 1.1217
 IR Inten    --     13.7995                 2.5927                 3.6494

                     43                     44                     45
                      A                      A                      A
 Frequencies --    942.0474               960.5772               985.0666
 Red. masses --      1.3481                 1.8209                 2.3407
 Frc consts  --      0.7049                 0.9899                 1.3382
 IR Inten    --      0.9043                 2.2454                12.9840

                     46                     47                     48
                      A                      A                      A
 Frequencies --    997.9709              1018.6641              1021.2022
 Red. masses --      1.3225                 2.4568                 3.9026
 Frc consts  --      0.7760                 1.5021                 2.3979
 IR Inten    --      2.3792                 2.1613                 2.9148

                     49                     50                     51
                      A                      A                      A
 Frequencies --   1025.7087              1035.4014              1052.8984
 Red. masses --      2.1871                 3.4577                 1.6855
 Frc consts  --      1.3557                 2.1840                 1.1009
 IR Inten    --     17.0951                 8.8329                 9.2058

                     52                     53                     54
                      A                      A                      A
 Frequencies --   1059.5142              1093.3962              1126.2640
 Red. masses --      2.3770                 1.7114                 1.6542
 Frc consts  --      1.5722                 1.2055                 1.2363
 IR Inten    --      0.7648                 8.7742                 4.1349

                     55                     56                     57
                      A                      A                      A
 Frequencies --   1137.8749              1154.2127              1179.6638
 Red. masses --      3.2927                 2.5717                 1.7146
 Frc consts  --      2.5118                 2.0186                 1.4058
 IR Inten    --     19.2363                52.8599                 1.5626

                     58                     59                     60
                      A                      A                      A
 Frequencies --   1207.4155              1208.5551              1217.3872
 Red. masses --      1.2114                 2.3134                 1.4203
 Frc consts  --      1.0405                 1.9909                 1.2402
 IR Inten    --      7.7033                26.4341                17.0976

                     61                     62                     63
                      A                      A                      A
 Frequencies --   1239.8478              1262.1662              1264.1046
 Red. masses --      1.7722                 1.6136                 1.8331
 Frc consts  --      1.6051                 1.5145                 1.7259
 IR Inten    --     38.6842                32.4522                45.4151

                     64                     65                     66
                      A                      A                      A
 Frequencies --   1269.1655              1278.0104              1318.7841
 Red. masses --      2.4128                 1.5303                 1.4588
 Frc consts  --      2.2899                 1.4726                 1.4948
 IR Inten    --      7.9973                29.1275                13.6033

                     67                     68                     69
                      A                      A                      A
 Frequencies --   1323.9299              1334.3153              1336.7314
 Red. masses --      1.6658                 1.5941                 1.2828
 Frc consts  --      1.7203                 1.6721                 1.3505
 IR Inten    --     17.3458                 6.9755                 9.8180

                     70                     71                     72
                      A                      A                      A
 Frequencies --   1364.7407              1371.1195              1372.6323
 Red. masses --      2.1828                 1.5598                 1.4550
 Frc consts  --      2.3953                 1.7277                 1.6152
 IR Inten    --      3.7074                38.8476                 6.5830

                     73                     74                     75
                      A                      A                      A
 Frequencies --   1398.9456              1402.5733              1442.3142
 Red. masses --      1.2722                 1.4661                 1.3524
 Frc consts  --      1.4669                 1.6993                 1.6576
 IR Inten    --      7.2173                14.4904                 7.6239

                     76                     77                     78
                      A                      A                      A
 Frequencies --   1457.4818              1472.6954              1493.1848
 Red. masses --      1.5702                 2.9738                 1.0941
 Frc consts  --      1.9652                 3.8001                 1.4372
 IR Inten    --     44.5130                12.1386                 3.3235

                     79                     80                     81
                      A                      A                      A
 Frequencies --   1509.2282              1513.0068              1522.6471
 Red. masses --      1.0973                 1.0989                 1.2364
 Frc consts  --      1.4726                 1.4821                 1.6889
 IR Inten    --      4.1682                 7.9013                18.6149

                     82                     83                     84
                      A                      A                      A
 Frequencies --   1528.3205              1535.8780              1539.7870
 Red. masses --      1.0988                 1.8237                 1.1043
 Frc consts  --      1.5122                 2.5347                 1.5426
 IR Inten    --      1.3778                11.4241                 3.7163

                     85                     86                     87
                      A                      A                      A
 Frequencies --   1637.9385              1658.4223              1716.2679
 Red. masses --      5.3422                 5.6335                 7.9569
 Frc consts  --      8.4443                 9.1288                13.8091
 IR Inten    --     13.7403                 2.5471               640.0922

                     88                     89                     90
                      A                      A                      A
 Frequencies --   2350.8070              2961.1509              2970.9291
 Red. masses --     12.6804                 1.0736                 1.0729
 Frc consts  --     41.2874                 5.5464                 5.5793
 IR Inten    --     29.2304                28.3256                76.8802

                     91                     92                     93
                      A                      A                      A
 Frequencies --   2976.9196              3055.4966              3060.0107
 Red. masses --      1.0729                 1.0602                 1.0602
 Frc consts  --      5.6018                 5.8317                 5.8492
 IR Inten    --     57.2003                10.3870                18.2209

                     94                     95                     96
                      A                      A                      A
 Frequencies --   3068.9838              3084.8322              3106.3560
 Red. masses --      1.0892                 1.0618                 1.1041
 Frc consts  --      6.0443                 5.9531                 6.2770
 IR Inten    --     31.1614                21.2019                19.5686

                     97                     98                     99
                      A                      A                      A
 Frequencies --   3108.7705              3119.3638              3121.8907
 Red. masses --      1.1041                 1.0906                 1.0922
 Frc consts  --      6.2866                 6.2524                 6.2720
 IR Inten    --     26.2758                33.2933                37.0335

                    100                    101                    102
                      A                      A                      A
 Frequencies --   3151.5619              3191.8300              3200.4956
 Red. masses --      1.1049                 1.0908                 1.0874
 Frc consts  --      6.4656                 6.5474                 6.5626
 IR Inten    --      8.4522                 4.3197                 4.7452

                    103                    104                    105
                      A                      A                      A
 Frequencies --   3217.2913              3225.4353              3634.8698
 Red. masses --      1.0919                 1.0959                 1.0760
 Frc consts  --      6.6590                 6.7176                 8.3763
 IR Inten    --      2.5185                 7.0747                28.0258

 - Thermochemistry -
 -------------------
 Temperature   298.150 Kelvin.  Pressure   1.00000 Atm.
 Atom     1 has atomic number  6 and mass  12.00000

 Molecular mass:   287.10923 amu.
 Principal axes and moments of inertia in atomic units:
                           1         2         3
     Eigenvalues --  4307.219957386.625939940.71222
           X            0.99911   0.04224  -0.00186
           Y           -0.04224   0.99911   0.00023
           Z            0.00187  -0.00015   1.00000
 This molecule is an asymmetric top.
 Rotational symmetry number  1.
 Warning -- assumption of classical behavior for rotation
           may cause significant error
 Rotational temperatures (Kelvin)      0.02011     0.01173     0.00871
 Rotational constants (GHZ):           0.41900     0.24433     0.18155
 Zero-point vibrational energy     795784.9 (Joules/Mol)
                                  190.19716 (Kcal/Mol)
 Warning -- explicit consideration of  28 degrees of freedom as
           vibrations may cause significant error
 Vibrational temperatures:     22.60    25.26    60.45    89.93   126.77
          (Kelvin)            159.53   200.47   207.64   252.09   295.14
                              325.09   374.38   400.01   428.36   450.64
                              485.13   530.62   568.60   615.18   634.00
                              648.86   671.03   699.87   730.92   751.73
                              806.80   826.76   840.26   909.88   921.43
                              966.24  1020.02  1042.36  1072.62  1093.69
                             1154.77  1177.12  1202.49  1255.48  1299.51
                             1314.21  1325.96  1355.40  1382.06  1417.29
                             1435.86  1465.63  1469.28  1475.77  1489.71
                             1514.89  1524.40  1573.15  1620.44  1637.15
                             1660.65  1697.27  1737.20  1738.84  1751.55
                             1783.86  1815.98  1818.76  1826.05  1838.77
                             1897.44  1904.84  1919.78  1923.26  1963.56
                             1972.74  1974.91  2012.77  2017.99  2075.17
                             2096.99  2118.88  2148.36  2171.44  2176.88
                             2190.75  2198.91  2209.79  2215.41  2356.63
                             2386.10  2469.33  3382.29  4260.44  4274.50
                             4283.12  4396.18  4402.67  4415.58  4438.39
                             4469.35  4472.83  4488.07  4491.70  4534.39
                             4592.33  4604.80  4628.96  4640.68  5229.77

 Zero-point correction=                           0.303098 (Hartree/Particle)
 Thermal correction to Energy=                    0.320856
 Thermal correction to Enthalpy=                  0.321800
 Thermal correction to Gibbs Free Energy=         0.255063
 Sum of electronic and zero-point Energies=          -1219.254463
 Sum of electronic and thermal Energies=             -1219.236706
 Sum of electronic and thermal Enthalpies=           -1219.235762
 Sum of electronic and thermal Free Energies=        -1219.302499

                     E (Thermal)             CV                S
                      KCal/Mol        Cal/Mol-Kelvin    Cal/Mol-Kelvin
 Total                  201.340             69.019            140.459
 Electronic               0.000              0.000              0.000
 Translational            0.889              2.981             42.862
 Rotational               0.889              2.981             34.113
 Vibrational            199.562             63.057             63.484
 Vibration     1          0.593              1.986              7.114
 Vibration     2          0.593              1.986              6.893
 Vibration     3          0.595              1.980              5.162
 Vibration     4          0.597              1.972              4.376
 Vibration     5          0.601              1.958              3.702
 Vibration     6          0.607              1.940              3.254
 Vibration     7          0.615              1.914              2.813
 Vibration     8          0.616              1.909              2.746
 Vibration     9          0.627              1.873              2.379
 Vibration    10          0.640              1.833              2.087
 Vibration    11          0.650              1.801              1.911
 Vibration    12          0.668              1.745              1.660
 Vibration    13          0.679              1.714              1.546
 Vibration    14          0.691              1.678              1.430
 Vibration    15          0.701              1.648              1.345
 Vibration    16          0.718              1.601              1.225
 Vibration    17          0.741              1.536              1.085
 Vibration    18          0.762              1.480              0.980
 Vibration    19          0.789              1.410              0.867
 Vibration    20          0.801              1.381              0.825
 Vibration    21          0.810              1.359              0.793
 Vibration    22          0.824              1.325              0.748
 Vibration    23          0.842              1.280              0.693
 Vibration    24          0.863              1.232              0.638
 Vibration    25          0.877              1.200              0.604
 Vibration    26          0.916              1.116              0.522
 Vibration    27          0.931              1.086              0.495
 Vibration    28          0.941              1.066              0.478

                           ! Non-Optimized Parameters !
 Normal termination of Gaussian 16 at Thu Dec 17 20:40:00 2020.

 ----------------------------------------------------------------------
 # B3LYP/6-311++G(d,p) empiricaldispersion=gd3bj scf=xqc pop=npa geom=c
 heck
 ----------------------------------------------------------------------

 ----------------------------------------
 CID_136819650_JID_10116_Energie_neutraal
 ----------------------------------------
 Structure from the checkpoint file:  "JID_10116.chk"
 Charge =  0 Multiplicity = 1

 SCF Done:  E(RB3LYP) =  -1219.80457644     A.U. after   16 cycles
 Normal termination of Gaussian 16 at Thu Dec 17 20:50:16 2020.

 ----------------------------------------------------------------------
 # B3LYP/6-311++G(d,p) empiricaldispersion=gd3bj scf=xqc pop=npa geom=c
 heck
 ----------------------------------------------------------------------

 --------------------------------------
 CID_136819650_JID_10116_Energie_kation
 --------------------------------------
 Structure from the checkpoint file:  "JID_10116.chk"
 Charge =  1 Multiplicity = 2

 SCF Done:  E(UB3LYP) =  -1219.50227643     A.U. after   30 cycles
 Normal termination of Gaussian 16 at Thu Dec 17 21:18:11 2020.
 Gaussian 16:  ES64L-G16RevA.03 25-Dec-2016

 ----------------------------------------------------------------------
 # B3LYP/6-311++G(d,p) empiricaldispersion=gd3bj scf=xqc pop=npa geom=c
 heck
 ----------------------------------------------------------------------

 -------------------------------------
 CID_136819650_JID_10116_Energie_anion
 -------------------------------------
 Structure from the checkpoint file:  "JID_10116.chk"
 Charge = -1 Multiplicity = 2

                         Standard orientation:
 ---------------------------------------------------------------------
 Center     Atomic      Atomic             Coordinates (Angstroms)
 Number     Number       Type             X           Y           Z
 ---------------------------------------------------------------------
      1          6           0        1.588469    1.581264    1.447209
      2          6           0        0.854399    2.688197    0.682490
      3          8           0        1.662501    3.247034   -0.340315
      4          6           0        2.061057    2.272878   -1.294450
      5          6           0        2.887132    1.160683   -0.649374
      6          6           0        2.095535    0.487056    0.493753
      7          6           0        2.933375   -0.570297    1.236400
      8         16           0        2.763938   -2.129544    0.277877
      9          6           0        1.196228   -1.587961   -0.402841
     10          7           0        0.482273   -2.380403   -1.105055
     11          6           0       -0.723499   -1.824330   -1.711365
     12          6           0       -1.763470   -1.344930   -0.709133
     13          6           0       -2.432730   -0.135902   -0.894197
     14          6           0       -3.370173    0.313186    0.052453
     15          6           0       -3.645287   -0.457311    1.190734
     16          6           0       -2.976332   -1.666528    1.371850
     17          6           0       -2.041908   -2.104081    0.435807
     18          6           0       -4.030222    1.569823   -0.142561
     19          7           0       -4.557328    2.594650   -0.300362
     20          7           0        0.965038   -0.284803   -0.027390
     21          1           0        2.448940    2.023075    1.963500
     22          1           0        0.927526    1.137774    2.200663
     23          1           0        0.591126    3.512092    1.350857
     24          1           0       -0.088132    2.301508    0.253378
     25          1           0        1.172203    1.848536   -1.794910
     26          1           0        2.642560    2.806114   -2.050779
     27          1           0        3.803703    1.600768   -0.238261
     28          1           0        3.175717    0.411180   -1.394672
     29          1           0        3.985505   -0.284885    1.292258
     30          1           0        2.547901   -0.722941    2.248779
     31          1           0       -0.480485   -0.990324   -2.391987
     32          1           0       -1.165175   -2.608953   -2.336823
     33          1           0       -2.232589    0.472648   -1.772110
     34          1           0       -4.367980   -0.103571    1.918134
     35          1           0       -3.181407   -2.266715    2.253205
     36          1           0       -1.499741   -3.031494    0.591336
     37          1           0        0.171980    0.195030   -0.427074
 ---------------------------------------------------------------------

 SCF Done:  E(UB3LYP) =  -1219.81570100     A.U. after   33 cycles
 SCF Done:  E(UB3LYP) =  -1219.81570100     a.u. after    1 cycles

 The electronic state is 2-A.
 Alpha  occ. eigenvalues --  -88.76281 -19.04646 -14.24148 -14.18358 -14.16247
 Alpha  occ. eigenvalues --  -10.16746 -10.14974 -10.14032 -10.13738 -10.12341
 Alpha  occ. eigenvalues --  -10.09496 -10.09424 -10.09287 -10.06413 -10.05961
 Alpha  occ. eigenvalues --  -10.05874 -10.05074 -10.05055 -10.04932 -10.03137
 Alpha  occ. eigenvalues --   -7.84939  -5.81308  -5.80970  -5.80320  -0.96259
 Alpha  occ. eigenvalues --   -0.88613  -0.80327  -0.76739  -0.73473  -0.71812
 Alpha  occ. eigenvalues --   -0.70117  -0.69123  -0.65263  -0.63350  -0.60627
 Alpha  occ. eigenvalues --   -0.57020  -0.56406  -0.53238  -0.51095  -0.50171
 Alpha  occ. eigenvalues --   -0.48355  -0.47635  -0.42733  -0.41619  -0.40244
 Alpha  occ. eigenvalues --   -0.39509  -0.38635  -0.38040  -0.37123  -0.35972
 Alpha  occ. eigenvalues --   -0.34913  -0.33460  -0.32609  -0.32041  -0.31664
 Alpha  occ. eigenvalues --   -0.31176  -0.30430  -0.29674  -0.29106  -0.28580
 Alpha  occ. eigenvalues --   -0.27529  -0.26725  -0.25602  -0.24680  -0.24400
 Alpha  occ. eigenvalues --   -0.23119  -0.22717  -0.22366  -0.20996  -0.19559
 Alpha  occ. eigenvalues --   -0.18189  -0.15620  -0.15422  -0.13895  -0.13544
 Alpha  occ. eigenvalues --   -0.12624   0.03767
 Alpha virt. eigenvalues --    0.05215   0.06844   0.07593   0.08061   0.08834
 Alpha virt. eigenvalues --    0.09176   0.09709   0.09933   0.10170   0.10429
 Alpha virt. eigenvalues --    0.11033   0.11299   0.11427   0.11897   0.12403

  Beta  occ. eigenvalues --  -88.76278 -19.04643 -14.24122 -14.18359 -14.15970
  Beta  occ. eigenvalues --  -10.16741 -10.14973 -10.14025 -10.13734 -10.12326
  Beta  occ. eigenvalues --  -10.09489 -10.09420 -10.09279 -10.06410 -10.06031
  Beta  occ. eigenvalues --  -10.05574 -10.04975 -10.04932 -10.04917 -10.02756
  Beta  occ. eigenvalues --   -7.84936  -5.81300  -5.80968  -5.80318  -0.96252
  Beta  occ. eigenvalues --   -0.88589  -0.80317  -0.76308  -0.73115  -0.71778
  Beta  occ. eigenvalues --   -0.70076  -0.69110  -0.65018  -0.62798  -0.60524
  Beta  occ. eigenvalues --   -0.56985  -0.56282  -0.53199  -0.50438  -0.50030
  Beta  occ. eigenvalues --   -0.48294  -0.47547  -0.42658  -0.41536  -0.40229
  Beta  occ. eigenvalues --   -0.39487  -0.38571  -0.38020  -0.37078  -0.35657
  Beta  occ. eigenvalues --   -0.34819  -0.33440  -0.32509  -0.31969  -0.31565
  Beta  occ. eigenvalues --   -0.31154  -0.30346  -0.29639  -0.29009  -0.28527
  Beta  occ. eigenvalues --   -0.27487  -0.26377  -0.24850  -0.24531  -0.24159
  Beta  occ. eigenvalues --   -0.22953  -0.22703  -0.22020  -0.19902  -0.19398
  Beta  occ. eigenvalues --   -0.18170  -0.15602  -0.15397  -0.13458  -0.12792
  Beta  occ. eigenvalues --   -0.11048
  Beta virt. eigenvalues --    0.05644   0.06923   0.07662   0.08020   0.08850
  Beta virt. eigenvalues --    0.09009   0.09217   0.09746   0.09908   0.10245
  Beta virt. eigenvalues --    0.10411   0.11089   0.11285   0.11477   0.11880

 Mulliken charges and spin densities:
               1          2
     1  C   -0.151246   0.002588
     2  C   -0.395929  -0.085306
     3  O   -0.103022   0.003349
     4  C   -0.488306  -0.012271
     5  C    0.361771  -0.692447
     6  C   -0.762250   0.820773
     7  C    0.041557  -0.590733
     8  S   -0.165675  -0.025086
     9  C   -0.288807  -0.029062
    10  N    0.077523  -0.010834
    11  C   -0.442241   0.009189
    12  C    0.432975  -0.036033
    13  C   -0.513029   0.290535
    14  C    1.291294   0.193480
    15  C   -0.287394   0.086527
    16  C   -0.449601   0.095108
    17  C   -0.128825   0.145792
    18  C   -1.289346  -0.097781
    19  N   -0.326040   0.152222
    20  N    0.491754  -0.068225
    21  H   -0.024493   0.191248
    22  H    0.154820   0.007029
    23  H    0.133535   0.076789
    24  H    0.195753  -0.015671
    25  H    0.114687   0.030471
    26  H    0.070482   0.124121
    27  H    0.020990   0.156590
    28  H    0.120016   0.026576
    29  H   -0.120839   0.328065
    30  H    0.173643   0.054466
    31  H    0.152297   0.001698
    32  H    0.169019   0.035450
    33  H    0.173634  -0.002856
    34  H    0.149497  -0.003584
    35  H    0.119232   0.013096
    36  H    0.149690  -0.024281
    37  H    0.342873  -0.150997
 Sum of Mulliken charges =  -1.00000   1.00000

 Dipole moment (field-independent basis, Debye):
    X=              7.6543    Y=             -1.3437    Z=              0.6335  Tot=              7.7972
 Quadrupole moment (field-independent basis, Debye-Ang):
   XX=           -206.6127   YY=           -179.2797   ZZ=           -136.0853
   XY=             20.3378   XZ=             -4.3700   YZ=             -0.6467

 Summary of Natural Population Analysis:

                                       Natural Population
                Natural  -----------------------------------------------
    Atom  No    Charge         Core      Valence    Rydberg      Total
 -----------------------------------------------------------------------
      C    1   -0.20817      0.99957     2.19801    0.01059     3.20817
      C    2   -0.01197      0.99959     2.00071    0.01167     3.01197
      O    3   -0.29860      0.99989     3.28984    0.00888     4.29860
      C    4   -0.01105      0.99958     1.99964    0.01182     3.01105
      C    5   -0.21295      0.99958     2.20330    0.01008     3.21295
      C    6    0.06268      0.99955     1.92353    0.01424     2.93732
      C    7   -0.24382      0.99953     2.23233    0.01196     3.24382
      S    8    0.11151      4.99956     2.86967    0.01926     7.88849
      C    9    0.16951      0.99955     1.81008    0.02086     2.83049
      N   10   -0.28543      0.99963     2.77383    0.01196     3.78543
      C   11   -0.10400      0.99957     2.09183    0.01261     3.10400
      C   12   -0.04683      0.99950     2.03796    0.00936     3.04683
      C   13   -0.06783      0.99949     2.05866    0.00968     3.06783
      C   14   -0.05059      0.99942     2.04048    0.01069     3.05059
      C   15   -0.06065      0.99954     2.05360    0.00751     3.06065
      C   16   -0.10889      0.99957     2.10055    0.00876     3.10889
      C   17   -0.02833      0.99951     2.01962    0.00920     3.02833
      C   18    0.14833      0.99964     1.83353    0.01850     2.85167
      N   19   -0.16853      0.99979     2.65769    0.01105     3.66853
      N   20   -0.34648      0.99962     2.83482    0.01205     3.84648
      H   21    0.10193      0.00000     0.39681    0.00126     0.39807
      H   22    0.11072      0.00000     0.38823    0.00105     0.38928
      H   23    0.09468      0.00000     0.40428    0.00104     0.40532
      H   24    0.08432      0.00000     0.41411    0.00157     0.41568
      H   25    0.07939      0.00000     0.41919    0.00142     0.42061
      H   26    0.09273      0.00000     0.40622    0.00105     0.40727
      H   27    0.10107      0.00000     0.39750    0.00143     0.39893
      H   28    0.10918      0.00000     0.38965    0.00117     0.39082
      H   29    0.10904      0.00000     0.38958    0.00138     0.39096
      H   30    0.10441      0.00000     0.39427    0.00132     0.39559
      H   31    0.08457      0.00000     0.41374    0.00169     0.41543
      H   32    0.09867      0.00000     0.40027    0.00106     0.40133
      H   33    0.09560      0.00000     0.40327    0.00113     0.40440
      H   34    0.09636      0.00000     0.40277    0.00087     0.40364
      H   35    0.09305      0.00000     0.40600    0.00095     0.40695
      H   36    0.09569      0.00000     0.40282    0.00150     0.40431
      H   37    0.21067      0.00000     0.28637    0.00296     0.28933
 =======================================================================
   * Total *   -0.00000     23.99168    51.74475    0.26357    76.00000

 Normal termination of Gaussian 16 at Thu Dec 17 21:47:26 2020.
