 Gaussian 16, Revision A.03,

 -----------------------------------------------------------
 # opt freq B3LYP/6-31G(d) empiricaldispersion=gd3bj scf=xqc
 -----------------------------------------------------------

 -------------------------------
 CID_112601250_JID_9755_neutraal
 -------------------------------
 Symbolic Z-matrix:
 Charge =  0 Multiplicity = 1

 SCF Done:  E(RB3LYP) =  -882.068375152     A.U. after   15 cycles
 SCF Done:  E(RB3LYP) =  -882.074351778     A.U. after   12 cycles
 SCF Done:  E(RB3LYP) =  -882.074997799     A.U. after   12 cycles
 SCF Done:  E(RB3LYP) =  -882.075128653     A.U. after   12 cycles
 SCF Done:  E(RB3LYP) =  -882.075227187     A.U. after   11 cycles
 SCF Done:  E(RB3LYP) =  -882.075499920     A.U. after   11 cycles
 SCF Done:  E(RB3LYP) =  -882.075623195     A.U. after   11 cycles
 SCF Done:  E(RB3LYP) =  -882.075654669     A.U. after   11 cycles
 SCF Done:  E(RB3LYP) =  -882.075668156     A.U. after    9 cycles
 SCF Done:  E(RB3LYP) =  -882.075672697     A.U. after    9 cycles
 SCF Done:  E(RB3LYP) =  -882.075674663     A.U. after    8 cycles
 SCF Done:  E(RB3LYP) =  -882.075674819     A.U. after    8 cycles
 SCF Done:  E(RB3LYP) =  -882.075674936     A.U. after    8 cycles
 SCF Done:  E(RB3LYP) =  -882.075675018     A.U. after    8 cycles
 SCF Done:  E(RB3LYP) =  -882.075675038     A.U. after    6 cycles
 Optimization completed.
    -- Stationary point found.
 Normal termination of Gaussian 16 at Sat Dec 12 10:12:25 2020.

 --------------------------------------------------------------------
 #N Geom=AllCheck Guess=TCheck SCRF=Check GenChk RB3LYP/6-31G(d) Freq
 --------------------------------------------------------------------

 Structure from the checkpoint file:  "JID_9755.chk"
 -------------------------------
 CID_112601250_JID_9755_neutraal
 -------------------------------
 Charge =  0 Multiplicity = 1

 SCF Done:  E(RB3LYP) =  -882.075675038     A.U. after    1 cycles

  Exact polarizability: 193.031   3.663 151.917  -1.813  -0.103 132.171
 Approx polarizability: 257.067   7.064 257.801  -1.204  -0.931 189.675

                      1                      2                      3
                      A                      A                      A
 Frequencies --     31.5825                41.2868                65.1514
 Red. masses --      3.9096                 5.3244                 4.2453
 Frc consts  --      0.0023                 0.0053                 0.0106
 IR Inten    --      0.9528                 0.5294                 0.2201

                      4                      5                      6
                      A                      A                      A
 Frequencies --     88.2459               126.1154               141.9318
 Red. masses --      3.6783                 9.2785                 4.5084
 Frc consts  --      0.0169                 0.0869                 0.0535
 IR Inten    --      0.1950                 3.4593                 2.3907

                      7                      8                      9
                      A                      A                      A
 Frequencies --    170.2256               193.8177               199.7407
 Red. masses --      3.5453                 1.8953                 1.8247
 Frc consts  --      0.0605                 0.0419                 0.0429
 IR Inten    --      1.7065                 0.5285                 0.8643

                     10                     11                     12
                      A                      A                      A
 Frequencies --    233.1887               241.5623               246.2708
 Red. masses --      2.0404                 3.1797                 1.5059
 Frc consts  --      0.0654                 0.1093                 0.0538
 IR Inten    --      1.6330                 1.7496                 0.3701

                     13                     14                     15
                      A                      A                      A
 Frequencies --    250.0627               265.2803               285.2042
 Red. masses --      2.1511                 1.0580                 1.2529
 Frc consts  --      0.0793                 0.0439                 0.0600
 IR Inten    --      0.3905                 0.1663                 0.5014

                     16                     17                     18
                      A                      A                      A
 Frequencies --    294.3244               308.8515               321.4220
 Red. masses --      1.5668                 3.0578                 2.9232
 Frc consts  --      0.0800                 0.1719                 0.1779
 IR Inten    --      0.7638                 7.5795                 1.6537

                     19                     20                     21
                      A                      A                      A
 Frequencies --    335.8302               340.3901               371.1595
 Red. masses --      3.0030                 2.1792                 2.5632
 Frc consts  --      0.1995                 0.1488                 0.2080
 IR Inten    --      5.5974                 1.2392                 4.7501

                     22                     23                     24
                      A                      A                      A
 Frequencies --    391.8446               416.5225               442.9719
 Red. masses --      2.8930                 6.4826                 5.8345
 Frc consts  --      0.2617                 0.6626                 0.6745
 IR Inten    --      3.1359                14.0150                 6.5217

                     25                     26                     27
                      A                      A                      A
 Frequencies --    454.3077               476.5495               478.5361
 Red. masses --      3.1769                 4.1232                 3.5961
 Frc consts  --      0.3863                 0.5517                 0.4852
 IR Inten    --      2.3749                 9.2191                25.2983

                     28                     29                     30
                      A                      A                      A
 Frequencies --    499.8582               549.3443               563.1658
 Red. masses --      3.6564                 2.1617                 3.7521
 Frc consts  --      0.5383                 0.3844                 0.7011
 IR Inten    --      5.7398                 1.1463                14.5566

                     31                     32                     33
                      A                      A                      A
 Frequencies --    631.1168               676.8375               696.6554
 Red. masses --      6.3329                 1.2622                 4.1070
 Frc consts  --      1.4862                 0.3407                 1.1744
 IR Inten    --      2.1681                56.2728                 3.7673

                     34                     35                     36
                      A                      A                      A
 Frequencies --    723.2950               743.7905               752.5451
 Red. masses --      4.0975                 4.8686                 4.4613
 Frc consts  --      1.2630                 1.5869                 1.4886
 IR Inten    --      7.0735                11.5601                15.3603

                     37                     38                     39
                      A                      A                      A
 Frequencies --    761.9150               773.0018               811.3747
 Red. masses --      5.7260                 6.3236                 1.8304
 Frc consts  --      1.9585                 2.2262                 0.7100
 IR Inten    --     26.4605                11.3288                 0.7140

                     40                     41                     42
                      A                      A                      A
 Frequencies --    848.4660               862.1121               891.9988
 Red. masses --      2.0552                 2.4813                 1.7712
 Frc consts  --      0.8717                 1.0866                 0.8303
 IR Inten    --      1.5063                 0.7970                 5.8870

                     43                     44                     45
                      A                      A                      A
 Frequencies --    923.3764               935.6802               949.9499
 Red. masses --      2.2820                 1.8465                 2.0515
 Frc consts  --      1.1464                 0.9525                 1.0908
 IR Inten    --      4.1471                 4.2452                 3.0624

                     46                     47                     48
                      A                      A                      A
 Frequencies --    960.0091               972.2253               991.3158
 Red. masses --      1.5389                 1.7140                 1.8779
 Frc consts  --      0.8356                 0.9546                 1.0873
 IR Inten    --      0.4296                 2.4097                 8.2274

                     49                     50                     51
                      A                      A                      A
 Frequencies --   1003.6403              1035.3740              1038.2328
 Red. masses --      1.8505                 2.0038                 1.3388
 Frc consts  --      1.0982                 1.2656                 0.8502
 IR Inten    --      4.8246                10.0733                 2.9289

                     52                     53                     54
                      A                      A                      A
 Frequencies --   1048.1792              1064.5935              1083.3276
 Red. masses --      1.3815                 1.6650                 2.0283
 Frc consts  --      0.8943                 1.1118                 1.4025
 IR Inten    --      0.8549                 8.9397                14.0397

                     55                     56                     57
                      A                      A                      A
 Frequencies --   1098.1069              1119.8841              1166.0726
 Red. masses --      2.4101                 2.1546                 3.0131
 Frc consts  --      1.7123                 1.5921                 2.4139
 IR Inten    --      2.4833                11.4722                 2.5071

                     58                     59                     60
                      A                      A                      A
 Frequencies --   1179.4189              1192.8314              1200.8474
 Red. masses --      1.8936                 1.7542                 2.2504
 Frc consts  --      1.5520                 1.4705                 1.9120
 IR Inten    --      5.3925                 6.7733                 7.6003

                     61                     62                     63
                      A                      A                      A
 Frequencies --   1227.3615              1234.3655              1246.0196
 Red. masses --      2.6241                 2.5981                 2.4288
 Frc consts  --      2.3290                 2.3324                 2.2217
 IR Inten    --     17.1503                51.4735                 0.8482

                     64                     65                     66
                      A                      A                      A
 Frequencies --   1271.1447              1284.8003              1305.8758
 Red. masses --      2.7276                 1.9629                 1.3101
 Frc consts  --      2.5967                 1.9090                 1.3163
 IR Inten    --     76.5493                20.3482                 3.5687

                     67                     68                     69
                      A                      A                      A
 Frequencies --   1334.7679              1362.0153              1371.5354
 Red. masses --      1.7190                 2.2992                 1.5105
 Frc consts  --      1.8044                 2.5129                 1.6742
 IR Inten    --      0.5277               169.4119                67.3696

                     70                     71                     72
                      A                      A                      A
 Frequencies --   1386.2671              1392.1095              1401.9784
 Red. masses --      1.4217                 1.4098                 1.4722
 Frc consts  --      1.6097                 1.6098                 1.7048
 IR Inten    --      9.1271                 6.0546                19.0127

                     73                     74                     75
                      A                      A                      A
 Frequencies --   1415.2473              1415.7078              1419.9485
 Red. masses --      1.3850                 1.3894                 4.0882
 Frc consts  --      1.6344                 1.6407                 4.8565
 IR Inten    --     48.7426                11.4171               251.0939

                     76                     77                     78
                      A                      A                      A
 Frequencies --   1433.4540              1435.2147              1445.5441
 Red. masses --      1.2495                 1.5497                 1.4164
 Frc consts  --      1.5127                 1.8807                 1.7438
 IR Inten    --     10.2765                27.4872                70.7772

                     79                     80                     81
                      A                      A                      A
 Frequencies --   1456.7801              1475.9442              1508.9842
 Red. masses --      1.2602                 1.5079                 1.0713
 Frc consts  --      1.5757                 1.9354                 1.4373
 IR Inten    --     10.3285                85.3975                 3.2662

                     82                     83                     84
                      A                      A                      A
 Frequencies --   1511.2258              1513.3154              1515.2361
 Red. masses --      1.0632                 1.0512                 1.0463
 Frc consts  --      1.4306                 1.4184                 1.4154
 IR Inten    --      1.2108                 3.2860                 1.5371

                     85                     86                     87
                      A                      A                      A
 Frequencies --   1519.7332              1523.8586              1529.9307
 Red. masses --      1.0836                 1.0719                 1.0601
 Frc consts  --      1.4745                 1.4665                 1.4620
 IR Inten    --      3.8007                 5.0046                31.4415

                     88                     89                     90
                      A                      A                      A
 Frequencies --   1532.4142              1535.9530              1538.1425
 Red. masses --      1.0687                 1.0722                 1.0658
 Frc consts  --      1.4787                 1.4904                 1.4857
 IR Inten    --      0.6540                 1.6345                 6.3527

                     91                     92                     93
                      A                      A                      A
 Frequencies --   1542.0321              1545.7134              1771.7291
 Red. masses --      1.0630                 1.0793                12.0088
 Frc consts  --      1.4893                 1.5193                22.2097
 IR Inten    --     23.7069                 4.0685               366.0929

                     94                     95                     96
                      A                      A                      A
 Frequencies --   1811.5803              1834.4886              3024.0732
 Red. masses --      8.1905                11.9875                 1.0638
 Frc consts  --     15.8371                23.7689                 5.7319
 IR Inten    --    520.0886                54.1095                15.6465

                     97                     98                     99
                      A                      A                      A
 Frequencies --   3026.7141              3043.1037              3048.0434
 Red. masses --      1.0674                 1.0627                 1.0364
 Frc consts  --      5.7611                 5.7981                 5.6731
 IR Inten    --     33.2051                16.6661                24.4327

                    100                    101                    102
                      A                      A                      A
 Frequencies --   3058.4894              3061.8739              3062.7266
 Red. masses --      1.0483                 1.0718                 1.0336
 Frc consts  --      5.7777                 5.9203                 5.7123
 IR Inten    --     24.6119                25.4201                15.6384

                    103                    104                    105
                      A                      A                      A
 Frequencies --   3071.1110              3079.1570              3080.5937
 Red. masses --      1.0937                 1.0944                 1.0381
 Frc consts  --      6.0778                 6.1135                 5.8043
 IR Inten    --     50.9637                58.6093                14.0336

                    106                    107                    108
                      A                      A                      A
 Frequencies --   3085.7122              3108.1708              3119.6707
 Red. masses --      1.1043                 1.1010                 1.0841
 Frc consts  --      6.1950                 6.2668                 6.2166
 IR Inten    --     47.0351                33.3500                 8.8454

                    109                    110                    111
                      A                      A                      A
 Frequencies --   3127.3164              3129.9216              3138.0140
 Red. masses --      1.0938                 1.1014                 1.1025
 Frc consts  --      6.3025                 6.3572                 6.3965
 IR Inten    --     47.1368                20.8487                14.2169

                    112                    113                    114
                      A                      A                      A
 Frequencies --   3153.1720              3153.9376              3154.3402
 Red. masses --      1.0996                 1.1026                 1.0980
 Frc consts  --      6.4414                 6.4619                 6.4368
 IR Inten    --      9.4675                17.5824                 7.8184

                    115                    116                    117
                      A                      A                      A
 Frequencies --   3160.6079              3180.6679              3597.4280
 Red. masses --      1.0954                 1.1048                 1.0771
 Frc consts  --      6.4470                 6.5851                 8.2129
 IR Inten    --     18.3385                 6.0654                68.6024

 - Thermochemistry -
 -------------------
 Temperature   298.150 Kelvin.  Pressure   1.00000 Atm.
 Atom     1 has atomic number  6 and mass  12.00000

 Molecular mass:   266.16304 amu.
 Principal axes and moments of inertia in atomic units:
                           1         2         3
     Eigenvalues --  2492.361856721.200887234.95098
           X            0.99990   0.01325  -0.00404
           Y           -0.01320   0.99984   0.01207
           Z            0.00420  -0.01201   0.99992
 This molecule is an asymmetric top.
 Rotational symmetry number  1.
 Warning -- assumption of classical behavior for rotation
           may cause significant error
 Rotational temperatures (Kelvin)      0.03475     0.01289     0.01197
 Rotational constants (GHZ):           0.72411     0.26851     0.24945
 Zero-point vibrational energy     937131.7 (Joules/Mol)
                                  223.97985 (Kcal/Mol)
 Warning -- explicit consideration of  30 degrees of freedom as
           vibrations may cause significant error
 Vibrational temperatures:     45.44    59.40    93.74   126.97   181.45
          (Kelvin)            204.21   244.92   278.86   287.38   335.51
                              347.55   354.33   359.78   381.68   410.35
                              423.47   444.37   462.45   483.18   489.75
                              534.02   563.78   599.28   637.34   653.65
                              685.65   688.51   719.18   790.38   810.27
                              908.04   973.82  1002.33  1040.66  1070.15
                             1082.74  1096.23  1112.18  1167.39  1220.75
                             1240.39  1283.39  1328.53  1346.24  1366.77
                             1381.24  1398.82  1426.28  1444.01  1489.67
                             1493.79  1508.10  1531.71  1558.67  1579.93
                             1611.26  1677.72  1696.92  1716.22  1727.75
                             1765.90  1775.98  1792.74  1828.89  1848.54
                             1878.86  1920.43  1959.64  1973.33  1994.53
                             2002.94  2017.13  2036.23  2036.89  2042.99
                             2062.42  2064.95  2079.82  2095.98  2123.55
                             2171.09  2174.32  2177.32  2180.09  2186.56
                             2192.49  2201.23  2204.80  2209.89  2213.04
                             2218.64  2223.94  2549.12  2606.46  2639.42
                             4350.97  4354.77  4378.35  4385.45  4400.48
                             4405.35  4406.58  4418.64  4430.22  4432.29
                             4439.65  4471.96  4488.51  4499.51  4503.26
                             4514.90  4536.71  4537.81  4538.39  4547.41
                             4576.27  5175.90

 Zero-point correction=                           0.356935 (Hartree/Particle)
 Thermal correction to Energy=                    0.375482
 Thermal correction to Enthalpy=                  0.376426
 Thermal correction to Gibbs Free Energy=         0.311429
 Sum of electronic and zero-point Energies=           -881.718740
 Sum of electronic and thermal Energies=              -881.700193
 Sum of electronic and thermal Enthalpies=            -881.699249
 Sum of electronic and thermal Free Energies=         -881.764246

                     E (Thermal)             CV                S
                      KCal/Mol        Cal/Mol-Kelvin    Cal/Mol-Kelvin
 Total                  235.619             73.192            136.798
 Electronic               0.000              0.000              0.000
 Translational            0.889              2.981             42.636
 Rotational               0.889              2.981             33.160
 Vibrational            233.841             67.230             61.002
 Vibration     1          0.594              1.983              5.727
 Vibration     2          0.594              1.981              5.196
 Vibration     3          0.597              1.971              4.295
 Vibration     4          0.601              1.957              3.699
 Vibration     5          0.611              1.927              3.004
 Vibration     6          0.615              1.911              2.778
 Vibration     7          0.625              1.879              2.433
 Vibration     8          0.635              1.848              2.191
 Vibration     9          0.638              1.840              2.135
 Vibration    10          0.654              1.790              1.854
 Vibration    11          0.658              1.777              1.791
 Vibration    12          0.661              1.769              1.757
 Vibration    13          0.663              1.763              1.730
 Vibration    14          0.671              1.737              1.627
 Vibration    15          0.683              1.701              1.502
 Vibration    16          0.689              1.684              1.449
 Vibration    17          0.698              1.657              1.368
 Vibration    18          0.707              1.633              1.303
 Vibration    19          0.717              1.604              1.232
 Vibration    20          0.720              1.595              1.210
 Vibration    21          0.743              1.531              1.075
 Vibration    22          0.759              1.488              0.993
 Vibration    23          0.780              1.434              0.904
 Vibration    24          0.803              1.376              0.817
 Vibration    25          0.813              1.351              0.783
 Vibration    26          0.833              1.302              0.719
 Vibration    27          0.835              1.298              0.714
 Vibration    28          0.855              1.250              0.658
 Vibration    29          0.905              1.141              0.546
 Vibration    30          0.919              1.111              0.518

 Optimization completed.
    -- Stationary point found.
 Normal termination of Gaussian 16 at Sat Dec 12 10:36:33 2020.

 ----------------------------------------------------------------------
 # B3LYP/6-311++G(d,p) empiricaldispersion=gd3bj scf=xqc pop=npa geom=c
 heck
 ----------------------------------------------------------------------

 ---------------------------------------
 CID_112601250_JID_9755_Energie_neutraal
 ---------------------------------------
 Structure from the checkpoint file:  "JID_9755.chk"
 Charge =  0 Multiplicity = 1

 SCF Done:  E(RB3LYP) =  -882.324372367     A.U. after   17 cycles
 Normal termination of Gaussian 16 at Sat Dec 12 10:48:43 2020.

 ----------------------------------------------------------------------
 # B3LYP/6-311++G(d,p) empiricaldispersion=gd3bj scf=xqc pop=npa geom=c
 heck
 ----------------------------------------------------------------------

 -------------------------------------
 CID_112601250_JID_9755_Energie_kation
 -------------------------------------
 Structure from the checkpoint file:  "JID_9755.chk"
 Charge =  1 Multiplicity = 2

 SCF Done:  E(UB3LYP) =  -881.985047656     A.U. after   32 cycles
 Normal termination of Gaussian 16 at Sat Dec 12 11:22:39 2020.
 Gaussian 16:  ES64L-G16RevA.03 25-Dec-2016

 ----------------------------------------------------------------------
 # B3LYP/6-311++G(d,p) empiricaldispersion=gd3bj scf=xqc pop=npa geom=c
 heck
 ----------------------------------------------------------------------

 ------------------------------------
 CID_112601250_JID_9755_Energie_anion
 ------------------------------------
 Structure from the checkpoint file:  "JID_9755.chk"
 Charge = -1 Multiplicity = 2

                         Standard orientation:
 ---------------------------------------------------------------------
 Center     Atomic      Atomic             Coordinates (Angstroms)
 Number     Number       Type             X           Y           Z
 ---------------------------------------------------------------------
      1          6           0        1.786169   -1.345376    1.495150
      2          6           0        1.995242    0.078388    0.950984
      3          6           0        3.505304    0.333562    0.704301
      4          6           0        4.092596   -0.474123   -0.459254
      5          6           0        3.324829   -0.202802   -1.758399
      6          6           0        1.827009   -0.482980   -1.579243
      7          6           0        1.290438    0.353698   -0.409231
      8          7           0       -0.202800    0.355322   -0.314683
      9          6           0       -0.939485   -0.832880   -0.299666
     10          8           0       -0.414370   -1.916822   -0.473832
     11          6           0       -2.426432   -0.760370    0.067400
     12          6           0       -3.076867    0.580295   -0.222159
     13          8           0       -4.277911    0.748053   -0.307578
     14          7           0       -2.197556    1.643697   -0.307070
     15          6           0       -0.807216    1.619782   -0.332762
     16          8           0       -0.185041    2.664552   -0.390398
     17          6           0       -2.498203   -0.961408    1.607891
     18          6           0       -3.197477   -1.877104   -0.648277
     19          6           0        1.500977    1.081818    2.006123
     20          1           0        2.043327   -2.120074    0.770291
     21          1           0        2.412808   -1.487590    2.383897
     22          1           0        0.748028   -1.513256    1.792832
     23          1           0        3.648026    1.404223    0.498308
     24          1           0        4.051695    0.120424    1.631799
     25          1           0        4.052788   -1.546624   -0.228693
     26          1           0        5.152743   -0.222365   -0.584325
     27          1           0        3.721579   -0.816368   -2.575836
     28          1           0        3.469974    0.847121   -2.051498
     29          1           0        1.660311   -1.546785   -1.409316
     30          1           0        1.275515   -0.214185   -2.488448
     31          1           0        1.513343    1.395074   -0.644970
     32          1           0       -2.600459    2.568776   -0.408023
     33          1           0       -3.544274   -0.942611    1.925612
     34          1           0       -2.058949   -1.928996    1.865553
     35          1           0       -1.955115   -0.175280    2.142836
     36          1           0       -3.136743   -1.760650   -1.734710
     37          1           0       -2.773341   -2.846553   -0.383757
     38          1           0       -4.248428   -1.835049   -0.356668
     39          1           0        2.074095    0.967162    2.933306
     40          1           0        1.607412    2.114779    1.660258
     41          1           0        0.445437    0.916434    2.251131
 ---------------------------------------------------------------------

 SCF Done:  E(UB3LYP) =  -882.324332861     A.U. after   33 cycles
 SCF Done:  E(UB3LYP) =  -882.324332861     a.u. after    1 cycles

 The electronic state is 2-A.
 Alpha  occ. eigenvalues --  -18.96953 -18.96294 -18.96107 -14.23884 -14.23517
 Alpha  occ. eigenvalues --  -10.16724 -10.14416 -10.13848 -10.09646 -10.08255
 Alpha  occ. eigenvalues --  -10.07933 -10.06617 -10.06591 -10.06429 -10.05676
 Alpha  occ. eigenvalues --  -10.05520 -10.05054 -10.04696 -10.04693  -0.94772
 Alpha  occ. eigenvalues --   -0.92206  -0.91711  -0.82356  -0.79808  -0.73617
 Alpha  occ. eigenvalues --   -0.69835  -0.67620  -0.63766  -0.58313  -0.58052
 Alpha  occ. eigenvalues --   -0.57665  -0.55455  -0.52888  -0.51914  -0.48753
 Alpha  occ. eigenvalues --   -0.47936  -0.44104  -0.42837  -0.40838  -0.37452
 Alpha  occ. eigenvalues --   -0.37162  -0.35127  -0.34501  -0.34268  -0.33694
 Alpha  occ. eigenvalues --   -0.32660  -0.32007  -0.31546  -0.31168  -0.30692
 Alpha  occ. eigenvalues --   -0.29922  -0.29615  -0.29402  -0.27757  -0.27210
 Alpha  occ. eigenvalues --   -0.26751  -0.25847  -0.25423  -0.25114  -0.25017
 Alpha  occ. eigenvalues --   -0.24834  -0.23920  -0.23471  -0.22724  -0.21405
 Alpha  occ. eigenvalues --   -0.20598  -0.20159  -0.16617  -0.16481  -0.15079
 Alpha  occ. eigenvalues --   -0.14770  -0.12482   0.04809
 Alpha virt. eigenvalues --    0.06279   0.07709   0.08412   0.08848   0.09405
 Alpha virt. eigenvalues --    0.10030   0.10259   0.10703   0.11194   0.11362
 Alpha virt. eigenvalues --    0.11934   0.12050   0.12625   0.13276   0.13734

  Beta  occ. eigenvalues --  -18.96708 -18.96000 -18.95818 -14.23999 -14.23614
  Beta  occ. eigenvalues --  -10.16385 -10.14160 -10.13550 -10.09640 -10.08302
  Beta  occ. eigenvalues --  -10.07937 -10.06606 -10.06584 -10.06422 -10.05553
  Beta  occ. eigenvalues --  -10.05520 -10.05050 -10.04691 -10.04659  -0.94327
  Beta  occ. eigenvalues --   -0.91749  -0.91172  -0.82123  -0.79793  -0.73596
  Beta  occ. eigenvalues --   -0.69634  -0.67612  -0.63717  -0.58242  -0.57943
  Beta  occ. eigenvalues --   -0.57639  -0.54937  -0.52735  -0.51537  -0.48634
  Beta  occ. eigenvalues --   -0.47880  -0.44021  -0.42682  -0.40788  -0.37395
  Beta  occ. eigenvalues --   -0.36765  -0.35089  -0.34216  -0.34061  -0.33528
  Beta  occ. eigenvalues --   -0.32280  -0.31844  -0.31288  -0.31038  -0.30205
  Beta  occ. eigenvalues --   -0.29651  -0.29218  -0.29140  -0.27684  -0.27088
  Beta  occ. eigenvalues --   -0.26487  -0.25389  -0.25160  -0.25083  -0.24846
  Beta  occ. eigenvalues --   -0.24520  -0.23850  -0.23424  -0.22064  -0.21222
  Beta  occ. eigenvalues --   -0.20467  -0.20125  -0.16387  -0.15657  -0.14848
  Beta  occ. eigenvalues --   -0.14275  -0.12236
  Beta virt. eigenvalues --    0.06685   0.07821   0.08476   0.08835   0.09497
  Beta virt. eigenvalues --    0.09691   0.10239   0.10630   0.10893   0.11201
  Beta virt. eigenvalues --    0.11623   0.11941   0.12440   0.13165   0.13387

 Mulliken charges and spin densities:
               1          2
     1  C   -0.387707  -0.300997
     2  C    0.802415   0.220388
     3  C   -0.607286   0.258831
     4  C    0.006326  -0.457125
     5  C   -0.398851  -0.185117
     6  C    0.086104  -0.015202
     7  C   -0.820388  -0.263210
     8  N    0.533653  -0.055541
     9  C   -0.739082   0.180268
    10  O   -0.222695   0.098544
    11  C    0.469188   0.217688
    12  C   -0.289313   0.110623
    13  O   -0.369190   0.083341
    14  N   -0.368838  -0.060584
    15  C    0.340165   0.211108
    16  O   -0.334852   0.105235
    17  C   -0.245088  -0.191277
    18  C   -0.527060  -0.066670
    19  C   -0.354580  -0.209787
    20  H    0.169346   0.000731
    21  H   -0.022770   0.163289
    22  H    0.218060  -0.025923
    23  H    0.100863   0.043489
    24  H   -0.014340   0.155965
    25  H    0.121486  -0.003840
    26  H   -0.367453   0.544491
    27  H    0.009188   0.156240
    28  H    0.132100  -0.019061
    29  H    0.176533   0.035321
    30  H    0.164776  -0.012560
    31  H    0.285024  -0.022805
    32  H    0.333728   0.002882
    33  H    0.148486   0.050436
    34  H    0.110065   0.051305
    35  H    0.107783   0.042555
    36  H    0.138527   0.009708
    37  H    0.162512   0.002083
    38  H    0.165919   0.000731
    39  H    0.066856   0.091709
    40  H    0.130763   0.051807
    41  H    0.089626   0.000929
 Sum of Mulliken charges =  -1.00000   1.00000

 Dipole moment (field-independent basis, Debye):
    X=              1.1926    Y=             -0.5812    Z=              0.1936  Tot=              1.3408
 Quadrupole moment (field-independent basis, Debye-Ang):
   XX=           -188.2872   YY=           -146.1510   ZZ=           -134.4408
   XY=              2.8462   XZ=             -1.5214   YZ=              0.4257

 Summary of Natural Population Analysis:

                                       Natural Population
                Natural  -----------------------------------------------
    Atom  No    Charge         Core      Valence    Rydberg      Total
 -----------------------------------------------------------------------
      C    1   -0.28857      0.99962     2.28091    0.00803     3.28857
      C    2   -0.04320      0.99955     2.03325    0.01040     3.04320
      C    3   -0.18693      0.99959     2.17672    0.01061     3.18693
      C    4   -0.19168      0.99963     2.18330    0.00875     3.19168
      C    5   -0.18789      0.99963     2.17968    0.00858     3.18789
      C    6   -0.19756      0.99960     2.18841    0.00954     3.19756
      C    7   -0.00305      0.99950     1.98818    0.01536     3.00305
      N    8   -0.28657      0.99960     2.77627    0.01070     3.78657
      C    9    0.39949      0.99961     1.57516    0.02574     2.60051
      O   10   -0.29296      0.99988     3.28795    0.00513     4.29296
      C   11   -0.11712      0.99952     2.10647    0.01114     3.11712
      C   12    0.38673      0.99962     1.58942    0.02423     2.61327
      O   13   -0.29949      0.99988     3.29337    0.00625     4.29949
      N   14   -0.34001      0.99964     2.83035    0.01002     3.84001
      C   15    0.45661      0.99969     1.52344    0.02026     2.54339
      O   16   -0.30508      0.99987     3.30027    0.00494     4.30508
      C   17   -0.26290      0.99963     2.25624    0.00702     3.26290
      C   18   -0.27456      0.99965     2.26848    0.00644     3.27456
      C   19   -0.28463      0.99963     2.27906    0.00595     3.28463
      H   20    0.10413      0.00000     0.39498    0.00089     0.39587
      H   21    0.09248      0.00000     0.40673    0.00080     0.40752
      H   22    0.10608      0.00000     0.39307    0.00085     0.39392
      H   23    0.09569      0.00000     0.40329    0.00102     0.40431
      H   24    0.09839      0.00000     0.40068    0.00093     0.40161
      H   25    0.09447      0.00000     0.40447    0.00106     0.40553
      H   26    0.09708      0.00000     0.40178    0.00114     0.40292
      H   27    0.09663      0.00000     0.40257    0.00080     0.40337
      H   28    0.09062      0.00000     0.40834    0.00104     0.40938
      H   29    0.11281      0.00000     0.38594    0.00125     0.38719
      H   30    0.09929      0.00000     0.39935    0.00136     0.40071
      H   31    0.11788      0.00000     0.38071    0.00141     0.38212
      H   32    0.20136      0.00000     0.29678    0.00186     0.29864
      H   33    0.10161      0.00000     0.39746    0.00092     0.39839
      H   34    0.10166      0.00000     0.39747    0.00086     0.39834
      H   35    0.09820      0.00000     0.40081    0.00098     0.40180
      H   36    0.09990      0.00000     0.39940    0.00070     0.40010
      H   37    0.10470      0.00000     0.39442    0.00088     0.39530
      H   38    0.10347      0.00000     0.39570    0.00084     0.39653
      H   39    0.09477      0.00000     0.40445    0.00078     0.40523
      H   40    0.10714      0.00000     0.39198    0.00088     0.39286
      H   41    0.10099      0.00000     0.39807    0.00094     0.39901
 =======================================================================
   * Total *    0.00000     18.99333    52.77540    0.23127    72.00000

 Normal termination of Gaussian 16 at Sat Dec 12 11:57:26 2020.
