 Gaussian 16, Revision A.03,

 -----------------------------------------------------------
 # opt freq B3LYP/6-31G(d) empiricaldispersion=gd3bj scf=xqc
 -----------------------------------------------------------

 --------------------------------
 CID_107236555_JID_10631_neutraal
 --------------------------------
 Symbolic Z-matrix:
 Charge =  0 Multiplicity = 1

 SCF Done:  E(RB3LYP) =  -829.800527996     A.U. after   14 cycles
 SCF Done:  E(RB3LYP) =  -829.807774107     A.U. after   12 cycles
 SCF Done:  E(RB3LYP) =  -829.801066093     A.U. after   14 cycles
 SCF Done:  E(RB3LYP) =  -829.804812252     A.U. after   12 cycles
 SCF Done:  E(RB3LYP) =  -829.809910397     A.U. after   10 cycles
 SCF Done:  E(RB3LYP) =  -829.810577443     A.U. after   11 cycles
 SCF Done:  E(RB3LYP) =  -829.810726252     A.U. after   11 cycles
 SCF Done:  E(RB3LYP) =  -829.810809276     A.U. after   10 cycles
 SCF Done:  E(RB3LYP) =  -829.810859041     A.U. after   11 cycles
 SCF Done:  E(RB3LYP) =  -829.810900058     A.U. after   10 cycles
 SCF Done:  E(RB3LYP) =  -829.810940967     A.U. after    7 cycles
 SCF Done:  E(RB3LYP) =  -829.810941041     A.U. after    7 cycles
 SCF Done:  E(RB3LYP) =  -829.810941102     A.U. after    7 cycles
 SCF Done:  E(RB3LYP) =  -829.810941136     A.U. after    7 cycles
 SCF Done:  E(RB3LYP) =  -829.810941159     A.U. after    6 cycles
 Optimization completed.
    -- Stationary point found.
 Normal termination of Gaussian 16 at Sun Dec 13 20:58:48 2020.

 --------------------------------------------------------------------
 #N Geom=AllCheck Guess=TCheck SCRF=Check GenChk RB3LYP/6-31G(d) Freq
 --------------------------------------------------------------------

 Structure from the checkpoint file:  "JID_10631.chk"
 --------------------------------
 CID_107236555_JID_10631_neutraal
 --------------------------------
 Charge =  0 Multiplicity = 1

 SCF Done:  E(RB3LYP) =  -829.810941159     A.U. after    1 cycles

  Exact polarizability: 244.070 -15.321 179.914  15.153  29.123 165.453
 Approx polarizability: 340.393 -40.159 290.906  26.014  69.685 270.494

                      1                      2                      3
                      A                      A                      A
 Frequencies --     12.7322                29.7396                51.2277
 Red. masses --      3.4405                 4.0670                 3.4477
 Frc consts  --      0.0003                 0.0021                 0.0053
 IR Inten    --      0.1658                 0.4190                 0.1860

                      4                      5                      6
                      A                      A                      A
 Frequencies --     64.6564                69.3057               106.3607
 Red. masses --      1.3967                 4.1357                 4.1563
 Frc consts  --      0.0034                 0.0117                 0.0277
 IR Inten    --      0.1529                 0.3702                 4.2913

                      7                      8                      9
                      A                      A                      A
 Frequencies --    127.4229               137.9123               173.7580
 Red. masses --      3.0863                 2.5241                 3.1936
 Frc consts  --      0.0295                 0.0283                 0.0568
 IR Inten    --      1.3682                 1.2656                 0.6185

                     10                     11                     12
                      A                      A                      A
 Frequencies --    191.5004               214.3200               237.2114
 Red. masses --      3.2821                 5.1689                 3.7891
 Frc consts  --      0.0709                 0.1399                 0.1256
 IR Inten    --      0.8602                 0.5688                 0.7352

                     13                     14                     15
                      A                      A                      A
 Frequencies --    244.3303               284.3175               296.7403
 Red. masses --      3.0598                 2.2774                 3.4481
 Frc consts  --      0.1076                 0.1085                 0.1789
 IR Inten    --      1.1654                 0.4230                 1.3724

                     16                     17                     18
                      A                      A                      A
 Frequencies --    326.1502               364.4608               391.4908
 Red. masses --      2.3802                 1.5860                 3.7450
 Frc consts  --      0.1492                 0.1241                 0.3382
 IR Inten    --     12.1473                42.8061                11.7390

                     19                     20                     21
                      A                      A                      A
 Frequencies --    401.0477               417.5697               431.9462
 Red. masses --      1.9217                 1.9046                 2.6252
 Frc consts  --      0.1821                 0.1957                 0.2886
 IR Inten    --     39.3688                17.6488                27.2802

                     22                     23                     24
                      A                      A                      A
 Frequencies --    443.4832               457.1613               520.7601
 Red. masses --      3.0616                 3.1322                 1.9940
 Frc consts  --      0.3548                 0.3857                 0.3186
 IR Inten    --      2.4855                 1.7290                 7.4737

                     25                     26                     27
                      A                      A                      A
 Frequencies --    548.3790               557.7013               580.8550
 Red. masses --      4.5228                 2.9386                 4.0460
 Frc consts  --      0.8013                 0.5385                 0.8043
 IR Inten    --      0.8697                 0.3222                 3.4634

                     28                     29                     30
                      A                      A                      A
 Frequencies --    582.6320               621.6108               626.3717
 Red. masses --      4.9787                 3.3687                 3.7321
 Frc consts  --      0.9958                 0.7669                 0.8627
 IR Inten    --     10.6766                 4.0444                11.0102

                     31                     32                     33
                      A                      A                      A
 Frequencies --    667.2908               734.1669               755.4807
 Red. masses --      3.0156                 4.1001                 1.2774
 Frc consts  --      0.7911                 1.3021                 0.4296
 IR Inten    --      2.7233                 0.1774                61.9671

                     34                     35                     36
                      A                      A                      A
 Frequencies --    766.2270               779.2110               790.3730
 Red. masses --      3.0095                 2.8153                 4.2361
 Frc consts  --      1.0410                 1.0071                 1.5591
 IR Inten    --      1.2479                 1.9660                 5.0347

                     37                     38                     39
                      A                      A                      A
 Frequencies --    802.3140               803.8819               818.5035
 Red. masses --      2.0097                 1.5364                 3.5235
 Frc consts  --      0.7622                 0.5850                 1.3908
 IR Inten    --      2.8728                 0.5503                11.0649

                     40                     41                     42
                      A                      A                      A
 Frequencies --    830.1860               858.9718               874.1296
 Red. masses --      2.8546                 1.4999                 2.3194
 Frc consts  --      1.1592                 0.6520                 1.0442
 IR Inten    --      1.4857                 0.3731                 3.5421

                     43                     44                     45
                      A                      A                      A
 Frequencies --    888.3478               894.5644               911.7001
 Red. masses --      1.6640                 1.6130                 2.2323
 Frc consts  --      0.7737                 0.7605                 1.0932
 IR Inten    --     10.5348                 9.0499                 1.0643

                     46                     47                     48
                      A                      A                      A
 Frequencies --    926.6053               954.4392               969.1659
 Red. masses --      1.3536                 1.3745                 1.2298
 Frc consts  --      0.6848                 0.7377                 0.6806
 IR Inten    --      1.5819                 1.3141                 0.4295

                     49                     50                     51
                      A                      A                      A
 Frequencies --    995.8007              1035.1156              1043.9606
 Red. masses --      1.6168                 5.2213                 2.5314
 Frc consts  --      0.9446                 3.2962                 1.6255
 IR Inten    --     26.7778                41.7672                 6.0959

                     52                     53                     54
                      A                      A                      A
 Frequencies --   1045.8572              1050.8545              1054.3859
 Red. masses --      2.1159                 2.0170                 1.8332
 Frc consts  --      1.3636                 1.3123                 1.2008
 IR Inten    --      5.5746                 5.8991                 4.9947

                     55                     56                     57
                      A                      A                      A
 Frequencies --   1061.9340              1092.6972              1104.0191
 Red. masses --      2.2992                 2.5016                 1.8877
 Frc consts  --      1.5276                 1.7598                 1.3556
 IR Inten    --     28.7901                15.5423                 0.8082

                     58                     59                     60
                      A                      A                      A
 Frequencies --   1127.4987              1137.4031              1159.9050
 Red. masses --      1.8476                 1.0944                 1.6126
 Frc consts  --      1.3838                 0.8342                 1.2783
 IR Inten    --     14.9271                 2.9506                 5.3882

                     61                     62                     63
                      A                      A                      A
 Frequencies --   1160.3311              1163.1157              1172.6953
 Red. masses --      1.3807                 1.6042                 1.5681
 Frc consts  --      1.0952                 1.2787                 1.2705
 IR Inten    --      1.6117                16.9583                 0.5482

                     64                     65                     66
                      A                      A                      A
 Frequencies --   1192.8171              1206.6396              1214.1323
 Red. masses --      1.3859                 1.8684                 1.2528
 Frc consts  --      1.1618                 1.6028                 1.0881
 IR Inten    --     25.6008                14.2525                19.3982

                     67                     68                     69
                      A                      A                      A
 Frequencies --   1233.8829              1275.2914              1288.8957
 Red. masses --      1.4519                 1.3177                 1.8304
 Frc consts  --      1.3024                 1.2627                 1.7916
 IR Inten    --      4.5367                 6.6422                13.7425

                     70                     71                     72
                      A                      A                      A
 Frequencies --   1299.4567              1315.0813              1330.8905
 Red. masses --      1.3470                 1.2165                 1.3946
 Frc consts  --      1.3401                 1.2395                 1.4554
 IR Inten    --      1.3035                 6.6506                 4.5196

                     73                     74                     75
                      A                      A                      A
 Frequencies --   1348.4088              1367.7465              1369.4157
 Red. masses --      1.4270                 1.8131                 1.4068
 Frc consts  --      1.5287                 1.9984                 1.5544
 IR Inten    --     13.2228                12.4955                 2.1083

                     76                     77                     78
                      A                      A                      A
 Frequencies --   1371.6232              1384.5229              1398.3417
 Red. masses --      1.5144                 4.7212                 1.3960
 Frc consts  --      1.6786                 5.3322                 1.6083
 IR Inten    --      9.7128                35.3777                 2.6692

                     79                     80                     81
                      A                      A                      A
 Frequencies --   1402.3768              1403.9019              1408.9119
 Red. masses --      1.5122                 1.6944                 1.5501
 Frc consts  --      1.7522                 1.9676                 1.8129
 IR Inten    --      2.4382                11.2311                10.6406

                     82                     83                     84
                      A                      A                      A
 Frequencies --   1414.1291              1415.6041              1437.2912
 Red. masses --      2.6003                 2.3698                 1.5795
 Frc consts  --      3.0637                 2.7979                 1.9224
 IR Inten    --     14.4797                30.6120                20.0220

                     85                     86                     87
                      A                      A                      A
 Frequencies --   1442.5341              1477.8655              1508.6822
 Red. masses --      1.4199                 1.3285                 1.0417
 Frc consts  --      1.7408                 1.7096                 1.3970
 IR Inten    --     59.4515                26.8581                 6.8050

                     88                     89                     90
                      A                      A                      A
 Frequencies --   1514.0143              1515.1206              1516.8527
 Red. masses --      1.1703                 2.0554                 1.0896
 Frc consts  --      1.5806                 2.7800                 1.4771
 IR Inten    --      7.6475                43.0994                 0.6046

                     91                     92                     93
                      A                      A                      A
 Frequencies --   1522.3069              1528.1972              1530.3806
 Red. masses --      1.0962                 1.0940                 2.4882
 Frc consts  --      1.4968                 1.5053                 3.4334
 IR Inten    --      2.1783                 6.6242                 5.0970

                     94                     95                     96
                      A                      A                      A
 Frequencies --   1539.3104              1549.5429              1554.9628
 Red. masses --      1.0960                 1.1925                 1.0842
 Frc consts  --      1.5301                 1.6871                 1.5446
 IR Inten    --     11.8412                 8.5004                 1.8386

                     97                     98                     99
                      A                      A                      A
 Frequencies --   1586.1177              1629.3699              1672.6701
 Red. masses --      5.1153                 6.0210                 6.5154
 Frc consts  --      7.5822                 9.4179                10.7402
 IR Inten    --     39.3325                 0.9387                 6.3461

                    100                    101                    102
                      A                      A                      A
 Frequencies --   1703.1621              3017.4732              3019.1019
 Red. masses --      8.0990                 1.0737                 1.0791
 Frc consts  --     13.8418                 5.7601                 5.7953
 IR Inten    --     25.8597                59.3654                14.0567

                    103                    104                    105
                      A                      A                      A
 Frequencies --   3020.4101              3028.5272              3034.2496
 Red. masses --      1.0666                 1.0734                 1.0651
 Frc consts  --      5.7330                 5.8008                 5.7774
 IR Inten    --     28.4602                13.0288                 8.6560

                    106                    107                    108
                      A                      A                      A
 Frequencies --   3035.6685              3042.5173              3045.9624
 Red. masses --      1.0619                 1.0740                 1.0354
 Frc consts  --      5.7654                 5.8578                 5.6601
 IR Inten    --     24.3363                52.9420                75.4828

                    109                    110                    111
                      A                      A                      A
 Frequencies --   3066.6222              3071.9618              3079.4760
 Red. masses --      1.0930                 1.1025                 1.1033
 Frc consts  --      6.0559                 6.1302                 6.1643
 IR Inten    --     75.1880                39.2014               111.8171

                    112                    113                    114
                      A                      A                      A
 Frequencies --   3099.4224              3112.3776              3115.0832
 Red. masses --      1.1057                 1.0923                 1.0860
 Frc consts  --      6.2585                 6.2340                 6.2091
 IR Inten    --     23.9552                10.4467                47.8049

                    115                    116                    117
                      A                      A                      A
 Frequencies --   3135.8766              3155.9712              3170.4058
 Red. masses --      1.0895                 1.1007                 1.0866
 Frc consts  --      6.3126                 6.4591                 6.4351
 IR Inten    --     37.2825                 8.9925                11.0654

                    118                    119                    120
                      A                      A                      A
 Frequencies --   3185.0157              3195.1939              3206.3955
 Red. masses --      1.0851                 1.0887                 1.0934
 Frc consts  --      6.4855                 6.5486                 6.6230
 IR Inten    --      0.0621                12.1181                36.4678

                    121                    122                    123
                      A                      A                      A
 Frequencies --   3214.6733              3258.9742              3726.5121
 Red. masses --      1.0959                 1.0962                 1.0660
 Frc consts  --      6.6726                 6.8595                 8.7220
 IR Inten    --     17.9657                 1.1936                 6.4433

 - Thermochemistry -
 -------------------
 Temperature   298.150 Kelvin.  Pressure   1.00000 Atm.
 Atom     1 has atomic number  6 and mass  12.00000

 Molecular mass:   269.17796 amu.
 Principal axes and moments of inertia in atomic units:
                           1         2         3
     Eigenvalues --  3325.304428268.769168904.39941
           X            0.99998  -0.00027  -0.00583
           Y            0.00039   0.99980   0.01989
           Z            0.00582  -0.01989   0.99979
 This molecule is an asymmetric top.
 Rotational symmetry number  1.
 Warning -- assumption of classical behavior for rotation
           may cause significant error
 Rotational temperatures (Kelvin)      0.02605     0.01047     0.00973
 Rotational constants (GHZ):           0.54273     0.21826     0.20268
 Zero-point vibrational energy     992018.9 (Joules/Mol)
                                  237.09821 (Kcal/Mol)
 Warning -- explicit consideration of  28 degrees of freedom as
           vibrations may cause significant error
 Vibrational temperatures:     18.32    42.79    73.71    93.03    99.72
          (Kelvin)            153.03   183.33   198.43   250.00   275.53
                              308.36   341.29   351.54   409.07   426.94
                              469.26   524.38   563.27   577.02   600.79
                              621.47   638.07   657.75   749.26   789.00
                              802.41   835.72   838.28   894.36   901.21
                              960.08  1056.30  1086.97  1102.43  1121.11
                             1137.17  1154.35  1156.61  1177.64  1194.45
                             1235.87  1257.68  1278.13  1287.08  1311.73
                             1333.18  1373.23  1394.41  1432.74  1489.30
                             1502.03  1504.76  1511.95  1517.03  1527.89
                             1572.15  1588.44  1622.22  1636.47  1668.84
                             1669.46  1673.46  1687.25  1716.20  1736.09
                             1746.87  1775.28  1834.86  1854.43  1869.63
                             1892.11  1914.85  1940.06  1967.88  1970.28
                             1973.46  1992.02  2011.90  2017.71  2019.90
                             2027.11  2034.62  2036.74  2067.94  2075.48
                             2126.32  2170.66  2178.33  2179.92  2182.41
                             2190.26  2198.73  2201.88  2214.72  2229.45
                             2237.24  2282.07  2344.30  2406.60  2450.47
                             4341.47  4343.81  4345.70  4357.38  4365.61
                             4367.65  4377.50  4382.46  4412.19  4419.87
                             4430.68  4459.38  4478.02  4481.91  4511.83
                             4540.74  4561.51  4582.53  4597.17  4613.29
                             4625.20  4688.94  5361.62

 Zero-point correction=                           0.377840 (Hartree/Particle)
 Thermal correction to Energy=                    0.396189
 Thermal correction to Enthalpy=                  0.397133
 Thermal correction to Gibbs Free Energy=         0.329817
 Sum of electronic and zero-point Energies=           -829.433101
 Sum of electronic and thermal Energies=              -829.414753
 Sum of electronic and thermal Enthalpies=            -829.413808
 Sum of electronic and thermal Free Energies=         -829.481124

                     E (Thermal)             CV                S
                      KCal/Mol        Cal/Mol-Kelvin    Cal/Mol-Kelvin
 Total                  248.612             72.435            141.677
 Electronic               0.000              0.000              0.000
 Translational            0.889              2.981             42.670
 Rotational               0.889              2.981             33.859
 Vibrational            246.835             66.474             65.149
 Vibration     1          0.593              1.987              7.531
 Vibration     2          0.594              1.984              5.847
 Vibration     3          0.595              1.977              4.769
 Vibration     4          0.597              1.971              4.310
 Vibration     5          0.598              1.969              4.173
 Vibration     6          0.605              1.944              3.334
 Vibration     7          0.611              1.926              2.985
 Vibration     8          0.614              1.915              2.833
 Vibration     9          0.627              1.875              2.394
 Vibration    10          0.634              1.852              2.213
 Vibration    11          0.644              1.819              2.007
 Vibration    12          0.656              1.784              1.824
 Vibration    13          0.660              1.772              1.771
 Vibration    14          0.683              1.703              1.508
 Vibration    15          0.690              1.680              1.435
 Vibration    16          0.710              1.623              1.279
 Vibration    17          0.738              1.545              1.103
 Vibration    18          0.759              1.488              0.994
 Vibration    19          0.767              1.468              0.959
 Vibration    20          0.781              1.432              0.900
 Vibration    21          0.793              1.401              0.852
 Vibration    22          0.803              1.375              0.816
 Vibration    23          0.815              1.345              0.774
 Vibration    24          0.876              1.204              0.608
 Vibration    25          0.904              1.143              0.548
 Vibration    26          0.913              1.123              0.528
 Vibration    27          0.938              1.073              0.484
 Vibration    28          0.939              1.069              0.481

                           ! Non-Optimized Parameters !
 Normal termination of Gaussian 16 at Sun Dec 13 21:22:54 2020.

 ----------------------------------------------------------------------
 # B3LYP/6-311++G(d,p) empiricaldispersion=gd3bj scf=xqc pop=npa geom=c
 heck
 ----------------------------------------------------------------------

 ----------------------------------------
 CID_107236555_JID_10631_Energie_neutraal
 ----------------------------------------
 Structure from the checkpoint file:  "JID_10631.chk"
 Charge =  0 Multiplicity = 1

 SCF Done:  E(RB3LYP) =  -830.036044533     A.U. after   15 cycles
 Normal termination of Gaussian 16 at Sun Dec 13 21:32:41 2020.

 ----------------------------------------------------------------------
 # B3LYP/6-311++G(d,p) empiricaldispersion=gd3bj scf=xqc pop=npa geom=c
 heck
 ----------------------------------------------------------------------

 --------------------------------------
 CID_107236555_JID_10631_Energie_kation
 --------------------------------------
 Structure from the checkpoint file:  "JID_10631.chk"
 Charge =  1 Multiplicity = 2

 SCF Done:  E(UB3LYP) =  -829.774203562     A.U. after   23 cycles
 Normal termination of Gaussian 16 at Sun Dec 13 21:52:16 2020.
 Gaussian 16:  ES64L-G16RevA.03 25-Dec-2016

 ----------------------------------------------------------------------
 # B3LYP/6-311++G(d,p) empiricaldispersion=gd3bj scf=xqc pop=npa geom=c
 heck
 ----------------------------------------------------------------------

 -------------------------------------
 CID_107236555_JID_10631_Energie_anion
 -------------------------------------
 Structure from the checkpoint file:  "JID_10631.chk"
 Charge = -1 Multiplicity = 2

                         Standard orientation:
 ---------------------------------------------------------------------
 Center     Atomic      Atomic             Coordinates (Angstroms)
 Number     Number       Type             X           Y           Z
 ---------------------------------------------------------------------
      1          6           0       -3.899471    2.155783    1.061176
      2          7           0       -2.844850    1.182336    0.882712
      3          6           0       -1.629335    1.161882    1.541458
      4          6           0       -0.856260    0.108932    1.103862
      5          6           0       -1.659006   -0.593605    0.127692
      6          6           0       -1.465926   -1.754348   -0.635965
      7          6           0       -2.471562   -2.166726   -1.501626
      8          6           0       -3.676029   -1.444044   -1.615810
      9          6           0       -3.903871   -0.299077   -0.859699
     10          6           0       -2.888490    0.110904    0.009429
     11          6           0        0.474363   -0.261691    1.595717
     12          6           0        1.604877   -0.536833    0.909745
     13          6           0        2.736823   -1.139733    1.716560
     14          8           0        2.956215   -2.509854    1.358442
     15          6           0        1.804550   -0.418922   -0.606927
     16          6           0        1.095631    0.791246   -1.258641
     17          6           0        1.733358    2.123598   -0.850988
     18          6           0        3.214824    2.166341   -1.244561
     19          6           0        3.971626    0.966873   -0.660138
     20          6           0        3.295195   -0.364991   -1.021929
     21          1           0       -4.099919    2.692305    0.126377
     22          1           0       -4.825690    1.671950    1.392698
     23          1           0       -3.592061    2.878358    1.819677
     24          1           0       -1.396183    1.927840    2.268800
     25          1           0       -0.546527   -2.323146   -0.540365
     26          1           0       -2.331163   -3.062341   -2.099920
     27          1           0       -4.443072   -1.790227   -2.302478
     28          1           0       -4.837174    0.250302   -0.940791
     29          1           0        0.538610   -0.365109    2.680663
     30          1           0        3.695153   -0.649992    1.536137
     31          1           0        2.517294   -1.049148    2.790421
     32          1           0        2.097317   -2.953991    1.444446
     33          1           0        1.386888   -1.328783   -1.059893
     34          1           0        1.185341    0.673568   -2.347939
     35          1           0        0.030130    0.797057   -1.036230
     36          1           0        1.634935    2.252238    0.235735
     37          1           0        1.190850    2.955342   -1.317943
     38          1           0        3.677746    3.105473   -0.915525
     39          1           0        3.293197    2.143440   -2.341549
     40          1           0        4.016764    1.081291    0.431387
     41          1           0        5.010652    0.961596   -1.013122
     42          1           0        3.841035   -1.213378   -0.599942
     43          1           0        3.332324   -0.485701   -2.113278
 ---------------------------------------------------------------------

 SCF Done:  E(UB3LYP) =  -830.027244780     A.U. after   33 cycles
 SCF Done:  E(UB3LYP) =  -830.027244780     a.u. after    1 cycles

 The electronic state is 2-A.
 Alpha  occ. eigenvalues --  -19.03170 -14.25554 -10.12052 -10.10565 -10.09848
 Alpha  occ. eigenvalues --  -10.09141 -10.08160 -10.07850 -10.07759 -10.07518
 Alpha  occ. eigenvalues --  -10.07279 -10.07123 -10.07002 -10.06887 -10.06873
 Alpha  occ. eigenvalues --  -10.06751 -10.06703 -10.06651 -10.06216 -10.06136
 Alpha  occ. eigenvalues --   -0.93023  -0.88424  -0.75031  -0.74365  -0.71229
 Alpha  occ. eigenvalues --   -0.68623  -0.65009  -0.64667  -0.64219  -0.62081
 Alpha  occ. eigenvalues --   -0.60186  -0.56272  -0.52830  -0.51613  -0.51528
 Alpha  occ. eigenvalues --   -0.49102  -0.47545  -0.46553  -0.43382  -0.40641
 Alpha  occ. eigenvalues --   -0.39771  -0.38973  -0.38587  -0.37406  -0.36691
 Alpha  occ. eigenvalues --   -0.36508  -0.35702  -0.34765  -0.33876  -0.33120
 Alpha  occ. eigenvalues --   -0.32816  -0.31991  -0.31007  -0.30113  -0.29654
 Alpha  occ. eigenvalues --   -0.29109  -0.28799  -0.28177  -0.28015  -0.26137
 Alpha  occ. eigenvalues --   -0.25812  -0.24974  -0.24482  -0.23202  -0.23177
 Alpha  occ. eigenvalues --   -0.22541  -0.21659  -0.20929  -0.18452  -0.17850
 Alpha  occ. eigenvalues --   -0.15200  -0.12595  -0.09888   0.04202
 Alpha virt. eigenvalues --    0.06173   0.06234   0.06865   0.07390   0.07893
 Alpha virt. eigenvalues --    0.08133   0.08678   0.08967   0.09034   0.09687
 Alpha virt. eigenvalues --    0.10218   0.10470   0.10758   0.11131   0.11361

  Beta  occ. eigenvalues --  -19.03149 -14.25527 -10.12043 -10.10506 -10.09858
  Beta  occ. eigenvalues --  -10.08989 -10.08161 -10.07849 -10.07756 -10.07482
  Beta  occ. eigenvalues --  -10.07277 -10.07070 -10.06939 -10.06871 -10.06865
  Beta  occ. eigenvalues --  -10.06744 -10.06682 -10.06617 -10.06213 -10.06142
  Beta  occ. eigenvalues --   -0.92970  -0.88339  -0.74994  -0.74313  -0.71144
  Beta  occ. eigenvalues --   -0.68555  -0.64993  -0.64593  -0.64172  -0.61957
  Beta  occ. eigenvalues --   -0.60100  -0.56203  -0.52780  -0.51569  -0.51408
  Beta  occ. eigenvalues --   -0.49068  -0.47474  -0.46500  -0.43316  -0.40608
  Beta  occ. eigenvalues --   -0.39703  -0.38937  -0.38512  -0.37330  -0.36618
  Beta  occ. eigenvalues --   -0.36444  -0.35627  -0.34731  -0.33821  -0.33093
  Beta  occ. eigenvalues --   -0.32763  -0.31967  -0.30961  -0.30045  -0.29596
  Beta  occ. eigenvalues --   -0.29082  -0.28748  -0.28107  -0.28007  -0.26104
  Beta  occ. eigenvalues --   -0.25777  -0.24953  -0.24455  -0.23180  -0.22980
  Beta  occ. eigenvalues --   -0.22447  -0.21616  -0.20912  -0.18413  -0.17655
  Beta  occ. eigenvalues --   -0.14935  -0.12325  -0.09556
  Beta virt. eigenvalues --    0.06038   0.06811   0.06834   0.07172   0.07836
  Beta virt. eigenvalues --    0.08039   0.08290   0.09144   0.09217   0.09345
  Beta virt. eigenvalues --    0.09889   0.10460   0.10672   0.10939   0.11348

 Mulliken charges and spin densities:
               1          2
     1  C    1.522393  -1.806560
     2  N   -0.077306   0.209214
     3  C   -0.539537   0.559663
     4  C    1.095650  -0.745531
     5  C    0.639428  -0.300247
     6  C   -0.355761   0.026506
     7  C   -0.493533  -0.071735
     8  C   -0.262540  -0.103890
     9  C   -0.563777   0.411770
    10  C    0.027614  -0.197381
    11  C   -0.178883  -0.133354
    12  C   -0.691991   0.458556
    13  C    0.549740  -1.186665
    14  O   -0.142458  -0.001672
    15  C    0.527267   0.267553
    16  C   -0.393176  -0.056670
    17  C   -0.295006  -0.034819
    18  C   -0.495155  -0.028205
    19  C   -0.221565  -0.046400
    20  C   -0.556049   0.010581
    21  H   -0.159952   0.325720
    22  H   -0.590419   0.778452
    23  H   -0.620180   0.770005
    24  H   -0.523398   0.702817
    25  H    0.080767   0.051260
    26  H    0.119482   0.015018
    27  H    0.067173   0.072971
    28  H   -0.146171   0.295699
    29  H   -0.259054   0.445956
    30  H    0.118117   0.053810
    31  H    0.020728   0.128706
    32  H    0.168413   0.074094
    33  H    0.219537  -0.006684
    34  H    0.143116   0.011273
    35  H    0.323167  -0.131865
    36  H    0.188064  -0.043831
    37  H    0.058450   0.092613
    38  H    0.056307   0.102346
    39  H    0.131220  -0.022135
    40  H    0.064984   0.016511
    41  H    0.134496   0.024452
    42  H    0.182197   0.007370
    43  H    0.127603   0.004726
 Sum of Mulliken charges =  -1.00000   1.00000

 Dipole moment (field-independent basis, Debye):
    X=              7.3666    Y=             -2.5804    Z=             -5.8756  Tot=              9.7697
 Quadrupole moment (field-independent basis, Debye-Ang):
   XX=           -209.8262   YY=           -165.6430   ZZ=           -162.8654
   XY=             21.5861   XZ=             10.6870   YZ=             -8.4401

 Summary of Natural Population Analysis:

                                       Natural Population
                Natural  -----------------------------------------------
    Atom  No    Charge         Core      Valence    Rydberg      Total
 -----------------------------------------------------------------------
      C    1   -0.17234      0.99964     2.16442    0.00829     3.17234
      N    2   -0.20139      0.99962     2.69192    0.00985     3.70139
      C    3    0.05209      0.99949     1.93642    0.01201     2.94791
      C    4   -0.08743      0.99948     2.07620    0.01175     3.08743
      C    5   -0.03944      0.99946     2.02975    0.01023     3.03944
      C    6   -0.08924      0.99952     2.08189    0.00783     3.08924
      C    7   -0.11763      0.99958     2.10832    0.00974     3.11763
      C    8   -0.10909      0.99958     2.10004    0.00947     3.10909
      C    9   -0.10893      0.99952     2.10028    0.00913     3.10893
      C   10    0.08092      0.99947     1.90775    0.01186     2.91908
      C   11   -0.08121      0.99946     2.07034    0.01141     3.08121
      C   12   -0.01855      0.99948     2.00790    0.01117     3.01855
      C   13   -0.02366      0.99954     2.01056    0.01356     3.02366
      O   14   -0.37167      0.99990     3.36563    0.00613     4.37167
      C   15   -0.12427      0.99956     2.11415    0.01056     3.12427
      C   16   -0.18950      0.99962     2.18054    0.00934     3.18950
      C   17   -0.19463      0.99963     2.18561    0.00939     3.19463
      C   18   -0.18785      0.99963     2.18110    0.00712     3.18785
      C   19   -0.19216      0.99963     2.18507    0.00746     3.19216
      C   20   -0.19183      0.99962     2.18406    0.00815     3.19183
      H   21    0.09453      0.00000     0.40422    0.00125     0.40547
      H   22    0.10227      0.00000     0.39423    0.00350     0.39773
      H   23    0.10592      0.00000     0.39155    0.00253     0.39408
      H   24    0.10100      0.00000     0.39759    0.00141     0.39900
      H   25    0.09863      0.00000     0.39992    0.00145     0.40137
      H   26    0.09550      0.00000     0.40372    0.00077     0.40450
      H   27    0.09601      0.00000     0.40325    0.00074     0.40399
      H   28    0.10362      0.00000     0.39537    0.00102     0.39638
      H   29    0.09708      0.00000     0.40135    0.00158     0.40292
      H   30    0.08569      0.00000     0.41288    0.00144     0.41431
      H   31    0.08017      0.00000     0.41835    0.00148     0.41983
      H   32    0.22747      0.00000     0.26963    0.00289     0.27253
      H   33    0.10613      0.00000     0.39189    0.00198     0.39387
      H   34    0.09045      0.00000     0.40855    0.00100     0.40955
      H   35    0.11352      0.00000     0.38508    0.00140     0.38648
      H   36    0.09964      0.00000     0.39911    0.00125     0.40036
      H   37    0.09706      0.00000     0.40212    0.00082     0.40294
      H   38    0.09522      0.00000     0.40380    0.00098     0.40478
      H   39    0.08874      0.00000     0.41006    0.00120     0.41126
      H   40    0.09331      0.00000     0.40518    0.00151     0.40669
      H   41    0.09463      0.00000     0.40438    0.00099     0.40537
      H   42    0.10777      0.00000     0.39114    0.00109     0.39223
      H   43    0.09345      0.00000     0.40545    0.00110     0.40655
 =======================================================================
   * Total *    0.00000     19.99143    52.78075    0.22782    73.00000

 Normal termination of Gaussian 16 at Sun Dec 13 22:21:03 2020.
