 Gaussian 16, Revision A.03,

 -----------------------------------------------------------
 # opt freq B3LYP/6-31G(d) empiricaldispersion=gd3bj scf=xqc
 -----------------------------------------------------------

 -------------------------------
 CID_146701746_JID_1225_neutraal
 -------------------------------
 Symbolic Z-matrix:
 Charge =  0 Multiplicity = 1

 SCF Done:  E(RB3LYP) =  -1162.61725236     A.U. after   15 cycles
 SCF Done:  E(RB3LYP) =  -1162.62138944     A.U. after   13 cycles
 SCF Done:  E(RB3LYP) =  -1162.62193847     A.U. after   13 cycles
 SCF Done:  E(RB3LYP) =  -1162.62214804     A.U. after   13 cycles
 SCF Done:  E(RB3LYP) =  -1162.62242973     A.U. after   12 cycles
 SCF Done:  E(RB3LYP) =  -1162.62261850     A.U. after   12 cycles
 SCF Done:  E(RB3LYP) =  -1162.62279897     A.U. after   13 cycles
 SCF Done:  E(RB3LYP) =  -1162.62288443     A.U. after   11 cycles
 SCF Done:  E(RB3LYP) =  -1162.62292427     A.U. after   11 cycles
 SCF Done:  E(RB3LYP) =  -1162.62292964     A.U. after   10 cycles
 SCF Done:  E(RB3LYP) =  -1162.62293157     A.U. after   10 cycles
 SCF Done:  E(RB3LYP) =  -1162.62293240     A.U. after    9 cycles
 SCF Done:  E(RB3LYP) =  -1162.62293325     A.U. after    9 cycles
 SCF Done:  E(RB3LYP) =  -1162.62293339     A.U. after    8 cycles
 Optimization completed.
    -- Stationary point found.
 Normal termination of Gaussian 16 at Tue Dec  8 19:30:46 2020.

 --------------------------------------------------------------------
 #N Geom=AllCheck Guess=TCheck SCRF=Check GenChk RB3LYP/6-31G(d) Freq
 --------------------------------------------------------------------

 Structure from the checkpoint file:  "JID_1225.chk"
 -------------------------------
 CID_146701746_JID_1225_neutraal
 -------------------------------
 Charge =  0 Multiplicity = 1

 SCF Done:  E(RB3LYP) =  -1162.62293339     A.U. after    1 cycles

  Exact polarizability: 216.727  -6.089 120.944   5.954  -1.595  76.838
 Approx polarizability: 332.802  -9.800 189.602  19.270  -4.655 121.908

                      1                      2                      3
                      A                      A                      A
 Frequencies --     50.1206                65.3963                83.4090
 Red. masses --      3.0491                 4.6002                 2.5324
 Frc consts  --      0.0045                 0.0116                 0.0104
 IR Inten    --      1.3897                 1.1455                 4.4651

                      4                      5                      6
                      A                      A                      A
 Frequencies --    143.5503               148.2267               193.0889
 Red. masses --      2.7157                 4.1064                 2.6030
 Frc consts  --      0.0330                 0.0532                 0.0572
 IR Inten    --      1.9158                 2.8642                 0.5077

                      7                      8                      9
                      A                      A                      A
 Frequencies --    204.1196               261.1943               308.2419
 Red. masses --      1.8447                 6.0899                 2.9121
 Frc consts  --      0.0453                 0.2448                 0.1630
 IR Inten    --      0.3981                 3.9731                 1.1894

                     10                     11                     12
                      A                      A                      A
 Frequencies --    320.9115               380.6328               396.2130
 Red. masses --      3.8559                 3.8761                 4.7079
 Frc consts  --      0.2340                 0.3309                 0.4355
 IR Inten    --      1.9645                 5.3947                10.7331

                     13                     14                     15
                      A                      A                      A
 Frequencies --    439.8915               479.4478               550.9275
 Red. masses --      3.1434                 2.8862                 2.9852
 Frc consts  --      0.3584                 0.3909                 0.5338
 IR Inten    --      1.2170                 8.7800                 3.7058

                     16                     17                     18
                      A                      A                      A
 Frequencies --    628.1157               688.8509               699.7893
 Red. masses --      3.8302                 4.5389                 3.5673
 Frc consts  --      0.8903                 1.2690                 1.0292
 IR Inten    --      9.8289                 2.4363                10.1588

                     19                     20                     21
                      A                      A                      A
 Frequencies --    724.6163               732.5061               765.7201
 Red. masses --      2.5387                 1.6046                 1.8119
 Frc consts  --      0.7854                 0.5073                 0.6259
 IR Inten    --      7.3311                38.2617                 5.6238

                     22                     23                     24
                      A                      A                      A
 Frequencies --    779.2743               816.6376               852.0799
 Red. masses --      1.7242                 1.5358                 2.8572
 Frc consts  --      0.6169                 0.6034                 1.2222
 IR Inten    --      4.4976                60.5429                 2.3487

                     25                     26                     27
                      A                      A                      A
 Frequencies --    938.4379               959.0205               989.7903
 Red. masses --      2.1883                 1.3463                 1.7766
 Frc consts  --      1.1354                 0.7295                 1.0255
 IR Inten    --      2.4295                35.4402                 8.7864

                     28                     29                     30
                      A                      A                      A
 Frequencies --    997.7140              1010.8078              1014.9807
 Red. masses --      1.3512                 1.3024                 2.1194
 Frc consts  --      0.7925                 0.7841                 1.2864
 IR Inten    --      2.0814                35.7915                14.3533

                     31                     32                     33
                      A                      A                      A
 Frequencies --   1058.1140              1141.2138              1184.0292
 Red. masses --      2.0483                 2.8660                 1.3043
 Frc consts  --      1.3512                 2.1992                 1.0773
 IR Inten    --      3.1433               125.6857                 3.0584

                     34                     35                     36
                      A                      A                      A
 Frequencies --   1204.4098              1248.6780              1288.2124
 Red. masses --      2.0860                 1.7288                 1.6472
 Frc consts  --      1.7828                 1.5882                 1.6106
 IR Inten    --     90.8435                22.2390                 1.9782

                     37                     38                     39
                      A                      A                      A
 Frequencies --   1351.0334              1362.3666              1382.3529
 Red. masses --      1.3920                 1.3965                 1.1832
 Frc consts  --      1.4970                 1.5272                 1.3322
 IR Inten    --      1.1276                 7.4445                 1.2958

                     40                     41                     42
                      A                      A                      A
 Frequencies --   1397.2181              1408.4487              1476.0156
 Red. masses --      2.3916                 2.2290                 1.2311
 Frc consts  --      2.7508                 2.6052                 1.5803
 IR Inten    --    259.1078                 5.3605                33.6181

                     43                     44                     45
                      A                      A                      A
 Frequencies --   1488.8468              1494.3431              1518.1857
 Red. masses --      1.0541                 1.0891                 1.0626
 Frc consts  --      1.3766                 1.4329                 1.4431
 IR Inten    --     10.4749                13.8457                 2.5893

                     46                     47                     48
                      A                      A                      A
 Frequencies --   1519.1558              1540.6487              1651.4789
 Red. masses --      1.0971                 2.0822                 5.6250
 Frc consts  --      1.4918                 2.9119                 9.0390
 IR Inten    --     11.6864               336.9072                78.1442

                     49                     50                     51
                      A                      A                      A
 Frequencies --   1719.8484              3039.0317              3053.1010
 Red. masses --      5.3584                 1.0694                 1.0683
 Frc consts  --      9.3383                 5.8189                 5.8671
 IR Inten    --      2.4286                11.5879                14.3391

                     52                     53                     54
                      A                      A                      A
 Frequencies --   3072.3762              3113.8717              3144.3228
 Red. masses --      1.0288                 1.0973                 1.0933
 Frc consts  --      5.7215                 6.2684                 6.3684
 IR Inten    --     24.0029                18.7229                 5.9538

                     55                     56                     57
                      A                      A                      A
 Frequencies --   3158.1228              3161.4791              3166.1177
 Red. masses --      1.0883                 1.1065                 1.1064
 Frc consts  --      6.3951                 6.5162                 6.5348
 IR Inten    --     18.3612                 6.7808                 5.2649

                     58                     59                     60
                      A                      A                      A
 Frequencies --   3172.3088              3260.9376              3559.7933
 Red. masses --      1.0604                 1.1165                 1.0763
 Frc consts  --      6.2871                 6.9954                 8.0355
 IR Inten    --      4.4546                 3.0601                16.8304

 - Thermochemistry -
 -------------------
 Temperature   298.150 Kelvin.  Pressure   1.00000 Atm.
 Atom     1 has atomic number  6 and mass  12.00000

 Molecular mass:   185.03329 amu.
 Principal axes and moments of inertia in atomic units:
                           1         2         3
     Eigenvalues --  1051.785284055.632844787.50821
           X            0.99996   0.00194  -0.00877
           Y           -0.00195   1.00000  -0.00064
           Z            0.00877   0.00066   0.99996
 This molecule is an asymmetric top.
 Rotational symmetry number  1.
 Warning -- assumption of classical behavior for rotation
           may cause significant error
 Rotational temperatures (Kelvin)      0.08235     0.02136     0.01809
 Rotational constants (GHZ):           1.71588     0.44500     0.37697
 Zero-point vibrational energy     466303.0 (Joules/Mol)
                                  111.44909 (Kcal/Mol)
 Warning -- explicit consideration of  15 degrees of freedom as
           vibrations may cause significant error
 Vibrational temperatures:     72.11    94.09   120.01   206.54   213.27
          (Kelvin)            277.81   293.68   375.80   443.49   461.72
                              547.65   570.06   632.91   689.82   792.66
                              903.72   991.10  1006.84  1042.56  1053.91
                             1101.70  1121.20  1174.96  1225.95  1350.20
                             1379.82  1424.09  1435.49  1454.33  1460.33
                             1522.39  1641.95  1703.55  1732.88  1796.57
                             1853.45  1943.84  1960.14  1988.90  2010.29
                             2026.44  2123.66  2142.12  2150.03  2184.33
                             2185.73  2216.65  2376.11  2474.48  4372.49
                             4392.73  4420.46  4480.17  4523.98  4543.83
                             4548.66  4555.34  4564.24  4691.76  5121.75

 Zero-point correction=                           0.177605 (Hartree/Particle)
 Thermal correction to Energy=                    0.189198
 Thermal correction to Enthalpy=                  0.190142
 Thermal correction to Gibbs Free Energy=         0.139077
 Sum of electronic and zero-point Energies=          -1162.445328
 Sum of electronic and thermal Energies=             -1162.433735
 Sum of electronic and thermal Enthalpies=           -1162.432791
 Sum of electronic and thermal Free Energies=        -1162.483856

                     E (Thermal)             CV                S
                      KCal/Mol        Cal/Mol-Kelvin    Cal/Mol-Kelvin
 Total                  118.724             42.768            107.476
 Electronic               0.000              0.000              0.000
 Translational            0.889              2.981             41.552
 Rotational               0.889              2.981             31.391
 Vibrational            116.946             36.806             34.532
 Vibration     1          0.595              1.978              4.813
 Vibration     2          0.597              1.971              4.287
 Vibration     3          0.600              1.961              3.809
 Vibration     4          0.616              1.910              2.756
 Vibration     5          0.618              1.905              2.695
 Vibration     6          0.635              1.849              2.198
 Vibration     7          0.640              1.834              2.096
 Vibration     8          0.669              1.744              1.654
 Vibration     9          0.698              1.658              1.372
 Vibration    10          0.706              1.634              1.305
 Vibration    11          0.750              1.511              1.037
 Vibration    12          0.763              1.478              0.977
 Vibration    13          0.800              1.383              0.827
 Vibration    14          0.836              1.296              0.712
 Vibration    15          0.906              1.138              0.542

 Optimization completed.
    -- Stationary point found.
 Normal termination of Gaussian 16 at Tue Dec  8 19:35:34 2020.

 ----------------------------------------------------------------------
 # B3LYP/6-311++G(d,p) empiricaldispersion=gd3bj scf=xqc pop=npa geom=c
 heck
 ----------------------------------------------------------------------

 ---------------------------------------
 CID_146701746_JID_1225_Energie_neutraal
 ---------------------------------------
 Structure from the checkpoint file:  "JID_1225.chk"
 Charge =  0 Multiplicity = 1

 SCF Done:  E(RB3LYP) =  -1162.77554531     A.U. after   16 cycles
 Normal termination of Gaussian 16 at Tue Dec  8 19:38:03 2020.

 ----------------------------------------------------------------------
 # B3LYP/6-311++G(d,p) empiricaldispersion=gd3bj scf=xqc pop=npa geom=c
 heck
 ----------------------------------------------------------------------

 -------------------------------------
 CID_146701746_JID_1225_Energie_kation
 -------------------------------------
 Structure from the checkpoint file:  "JID_1225.chk"
 Charge =  1 Multiplicity = 2

 SCF Done:  E(UB3LYP) =  -1162.50085377     A.U. after   28 cycles
 Normal termination of Gaussian 16 at Tue Dec  8 19:44:07 2020.
 Gaussian 16:  ES64L-G16RevA.03 25-Dec-2016

 ----------------------------------------------------------------------
 # B3LYP/6-311++G(d,p) empiricaldispersion=gd3bj scf=xqc pop=npa geom=c
 heck
 ----------------------------------------------------------------------

 ------------------------------------
 CID_146701746_JID_1225_Energie_anion
 ------------------------------------
 Structure from the checkpoint file:  "JID_1225.chk"
 Charge = -1 Multiplicity = 2

                         Standard orientation:
 ---------------------------------------------------------------------
 Center     Atomic      Atomic             Coordinates (Angstroms)
 Number     Number       Type             X           Y           Z
 ---------------------------------------------------------------------
      1          6           0       -3.349882    0.163949    1.104565
      2         16           0       -3.052478   -0.993532   -0.280734
      3          6           0       -1.301112   -1.212203   -0.272507
      4          6           0       -0.298872   -0.303806   -0.182561
      5          6           0       -0.371250    1.171958   -0.197092
      6          6           0       -1.312889    1.852706   -0.862628
      7          6           0        0.777731    1.855157    0.503066
      8          6           0        2.103368    1.340401   -0.074371
      9          6           0        2.195201   -0.166100   -0.002641
     10         16           0        3.633381   -0.990817    0.119012
     11          7           0        1.010122   -0.824833   -0.044146
     12          1           0       -4.426696    0.137942    1.289511
     13          1           0       -3.043444    1.182925    0.859861
     14          1           0       -2.818283   -0.178948    1.994865
     15          1           0       -1.021393   -2.262153   -0.339862
     16          1           0       -1.297418    2.938796   -0.879342
     17          1           0       -2.106229    1.356793   -1.411264
     18          1           0        0.747872    1.635586    1.579229
     19          1           0        0.703898    2.939986    0.386016
     20          1           0        2.966789    1.763583    0.441691
     21          1           0        2.183265    1.631553   -1.130663
     22          1           0        1.092560   -1.835034    0.011543
 ---------------------------------------------------------------------

 SCF Done:  E(UB3LYP) =  -1162.79372812     A.U. after   25 cycles

 The electronic state is 2-A.
 Alpha  occ. eigenvalues --  -88.71518 -88.65422 -14.23187 -10.10730 -10.07537
 Alpha  occ. eigenvalues --  -10.06283 -10.06020 -10.05895 -10.05248 -10.03970
 Alpha  occ. eigenvalues --  -10.02543  -7.80015  -7.74210  -5.76422  -5.76024
 Alpha  occ. eigenvalues --   -5.75435  -5.70560  -5.70114  -5.69767  -0.84203
 Alpha  occ. eigenvalues --   -0.69695  -0.68659  -0.65198  -0.59714  -0.58248
 Alpha  occ. eigenvalues --   -0.52558  -0.51543  -0.49005  -0.43367  -0.39912
 Alpha  occ. eigenvalues --   -0.37185  -0.34464  -0.32776  -0.31238  -0.31061
 Alpha  occ. eigenvalues --   -0.30213  -0.28994  -0.27950  -0.25885  -0.25757
 Alpha  occ. eigenvalues --   -0.24715  -0.21468  -0.21248  -0.19980  -0.16834
 Alpha  occ. eigenvalues --   -0.12950  -0.11250  -0.07995  -0.06797   0.03438
 Alpha virt. eigenvalues --    0.08162   0.08640   0.09214   0.10070   0.10828
 Alpha virt. eigenvalues --    0.11152   0.12098   0.12355   0.12988   0.13873
 Alpha virt. eigenvalues --    0.14247   0.14684   0.15101   0.16013   0.16533

  Beta  occ. eigenvalues --  -88.71509 -88.65379 -14.23297 -10.10352 -10.07370
  Beta  occ. eigenvalues --  -10.06149 -10.06040 -10.05888 -10.05206 -10.03609
  Beta  occ. eigenvalues --  -10.02328  -7.80005  -7.74172  -5.76423  -5.76029
  Beta  occ. eigenvalues --   -5.75396  -5.70550  -5.69969  -5.69744  -0.84067
  Beta  occ. eigenvalues --   -0.69431  -0.68310  -0.64843  -0.59380  -0.57895
  Beta  occ. eigenvalues --   -0.52296  -0.51318  -0.48741  -0.42951  -0.39721
  Beta  occ. eigenvalues --   -0.36959  -0.34252  -0.32486  -0.31142  -0.30852
  Beta  occ. eigenvalues --   -0.30035  -0.28652  -0.27718  -0.25613  -0.25386
  Beta  occ. eigenvalues --   -0.24437  -0.21339  -0.20994  -0.19612  -0.15725
  Beta  occ. eigenvalues --   -0.12008  -0.10619  -0.07897  -0.05700
  Beta virt. eigenvalues --    0.07576   0.08911   0.09517   0.09800   0.10044
  Beta virt. eigenvalues --    0.11089   0.11231   0.12132   0.12275   0.13133
  Beta virt. eigenvalues --    0.13936   0.14240   0.14704   0.15057   0.16159

 Mulliken charges and spin densities:
               1          2
     1  C   -0.259292  -0.348070
     2  S   -0.224204   0.172946
     3  C   -0.228025   0.278270
     4  C   -0.911873  -0.057069
     5  C    1.145425   0.146213
     6  C   -0.852134   0.335842
     7  C   -0.130667  -0.136548
     8  C   -0.018283  -0.098248
     9  C    0.006753   0.265295
    10  S   -0.944898   0.106731
    11  N    0.157675  -0.046999
    12  H    0.005383   0.133178
    13  H    0.078382   0.105088
    14  H    0.059196   0.094245
    15  H    0.215030  -0.024872
    16  H    0.054253   0.018329
    17  H    0.134747  -0.032740
    18  H    0.110902   0.027097
    19  H    0.134474   0.011509
    20  H    0.167698  -0.011596
    21  H    0.108467   0.044615
    22  H    0.190993   0.016781
 Sum of Mulliken charges =  -1.00000   1.00000

 Dipole moment (field-independent basis, Debye):
    X=             -2.2515    Y=              2.4162    Z=              0.6090  Tot=              3.3583
 Quadrupole moment (field-independent basis, Debye-Ang):
   XX=           -145.3633   YY=            -95.9461   ZZ=            -94.5500
   XY=              7.2149   XZ=             -1.6483   YZ=              0.3097

 Summary of Natural Population Analysis:

                                       Natural Population
                Natural  -----------------------------------------------
    Atom  No    Charge         Core      Valence    Rydberg      Total
 -----------------------------------------------------------------------
      C    1   -0.33760      0.99962     2.33223    0.00576     3.33760
      S    2    0.09943      4.99958     2.87678    0.02422     7.90057
      C    3   -0.12735      0.99942     2.11753    0.01039     3.12735
      C    4    0.07861      0.99939     1.90860    0.01339     2.92139
      C    5   -0.02828      0.99950     2.01680    0.01198     3.02828
      C    6   -0.14896      0.99952     2.14146    0.00798     3.14896
      C    7   -0.19377      0.99960     2.18591    0.00826     3.19377
      C    8   -0.21893      0.99957     2.21054    0.00882     3.21893
      C    9    0.12150      0.99964     1.86117    0.01770     2.87850
      S   10   -0.13142      4.99955     3.11607    0.01579     8.13142
      N   11   -0.29593      0.99961     2.78563    0.01069     3.79593
      H   12    0.09634      0.00000     0.40217    0.00149     0.40366
      H   13    0.10487      0.00000     0.39309    0.00204     0.39513
      H   14    0.09995      0.00000     0.39836    0.00169     0.40005
      H   15    0.08973      0.00000     0.40927    0.00100     0.41027
      H   16    0.08357      0.00000     0.41540    0.00103     0.41643
      H   17    0.09886      0.00000     0.39962    0.00151     0.40114
      H   18    0.09832      0.00000     0.40009    0.00159     0.40168
      H   19    0.09708      0.00000     0.40144    0.00147     0.40292
      H   20    0.10907      0.00000     0.39000    0.00093     0.39093
      H   21    0.10908      0.00000     0.38940    0.00152     0.39092
      H   22    0.19582      0.00000     0.30169    0.00249     0.30418
 =======================================================================
   * Total *    0.00000     18.99500    29.85325    0.15175    49.00000

 Normal termination of Gaussian 16 at Tue Dec  8 19:50:04 2020.
