 Gaussian 16, Revision A.03,

 -----------------------------------------------------------
 # opt freq B3LYP/6-31G(d) empiricaldispersion=gd3bj scf=xqc
 -----------------------------------------------------------

 -------------------------------
 CID_150984711_JID_4478_neutraal
 -------------------------------
 Symbolic Z-matrix:
 Charge =  0 Multiplicity = 1

 SCF Done:  E(RB3LYP) =  -676.492701236     A.U. after   17 cycles
 SCF Done:  E(RB3LYP) =  -676.496383467     A.U. after   17 cycles
 SCF Done:  E(RB3LYP) =  -676.495210859     A.U. after   16 cycles
 SCF Done:  E(RB3LYP) =  -676.496571804     A.U. after   14 cycles
 SCF Done:  E(RB3LYP) =  -676.497650921     A.U. after   12 cycles
 SCF Done:  E(RB3LYP) =  -676.498238426     A.U. after   15 cycles
 SCF Done:  E(RB3LYP) =  -676.497770465     A.U. after   15 cycles
 SCF Done:  E(RB3LYP) =  -676.498494116     A.U. after   15 cycles
 SCF Done:  E(RB3LYP) =  -676.498759056     A.U. after   14 cycles
 SCF Done:  E(RB3LYP) =  -676.498712717     A.U. after   16 cycles
 SCF Done:  E(RB3LYP) =  -676.503304722     A.U. after   12 cycles
 SCF Done:  E(RB3LYP) =  -676.503323100     A.U. after   11 cycles
 SCF Done:  E(RB3LYP) =  -676.503336855     A.U. after   12 cycles
 SCF Done:  E(RB3LYP) =  -676.503338457     A.U. after   11 cycles
 SCF Done:  E(RB3LYP) =  -676.503338587     A.U. after    9 cycles
 SCF Done:  E(RB3LYP) =  -676.503338650     A.U. after    9 cycles
 Optimization completed.
    -- Stationary point found.
 Normal termination of Gaussian 16 at Thu Dec 10 09:55:55 2020.

 --------------------------------------------------------------------
 #N Geom=AllCheck Guess=TCheck SCRF=Check GenChk RB3LYP/6-31G(d) Freq
 --------------------------------------------------------------------

 Structure from the checkpoint file:  "JID_4478.chk"
 -------------------------------
 CID_150984711_JID_4478_neutraal
 -------------------------------
 Charge =  0 Multiplicity = 1

 SCF Done:  E(RB3LYP) =  -676.503338651     A.U. after    1 cycles

  Exact polarizability: 200.653  -5.538 112.353   2.325   0.594  48.769
 Approx polarizability: 361.329 -22.377 188.352  14.846   3.844  94.418

                      1                      2                      3
                      A                      A                      A
 Frequencies --     46.3824                52.9040                92.5529
 Red. masses --     12.3236                 8.5277                 8.4557
 Frc consts  --      0.0156                 0.0141                 0.0427
 IR Inten    --      0.1728                 0.2732                 0.1935

                      4                      5                      6
                      A                      A                      A
 Frequencies --    118.9083               137.1793               162.6332
 Red. masses --      8.2929                 6.4346                 4.8512
 Frc consts  --      0.0691                 0.0713                 0.0756
 IR Inten    --      0.2535                 2.5895                 0.7994

                      7                      8                      9
                      A                      A                      A
 Frequencies --    208.5377               230.8867               330.5547
 Red. masses --      9.3314                 6.6800                 9.6899
 Frc consts  --      0.2391                 0.2098                 0.6238
 IR Inten    --      1.1671                 0.2528                 0.9843

                     10                     11                     12
                      A                      A                      A
 Frequencies --    352.3757               382.5024               456.9327
 Red. masses --      6.6228                 7.9792                 5.8438
 Frc consts  --      0.4845                 0.6878                 0.7189
 IR Inten    --      1.4704                 2.1579                 0.2031

                     13                     14                     15
                      A                      A                      A
 Frequencies --    485.7026               510.5981               537.1959
 Red. masses --      7.9817                 7.9296                13.4307
 Frc consts  --      1.1094                 1.2180                 2.2836
 IR Inten    --      0.0448                 0.3785                 8.8847

                     16                     17                     18
                      A                      A                      A
 Frequencies --    555.2772               593.7990               599.2867
 Red. masses --      6.8317                 3.0414                 2.4839
 Frc consts  --      1.2411                 0.6318                 0.5256
 IR Inten    --      3.6600                 8.4219                23.3045

                     19                     20                     21
                      A                      A                      A
 Frequencies --    625.2296               647.4502               703.0414
 Red. masses --      2.2630                 1.2402                 6.6005
 Frc consts  --      0.5212                 0.3063                 1.9222
 IR Inten    --     11.4592                41.6497                22.3270

                     22                     23                     24
                      A                      A                      A
 Frequencies --    730.8114               771.3231               785.1412
 Red. masses --      5.9742                 4.1356                 4.3679
 Frc consts  --      1.8799                 1.4497                 1.5864
 IR Inten    --     14.2268                 9.9880                 3.1349

                     25                     26                     27
                      A                      A                      A
 Frequencies --    808.9424               865.1707               903.9609
 Red. masses --      2.2236                 9.8647                 1.3895
 Frc consts  --      0.8573                 4.3505                 0.6690
 IR Inten    --     41.2505                29.0780                 0.0786

                     28                     29                     30
                      A                      A                      A
 Frequencies --    962.6769               980.1369              1098.9440
 Red. masses --      7.0234                 1.2849                 3.4226
 Frc consts  --      3.8349                 0.7273                 2.4353
 IR Inten    --     30.6277                 0.4621                 2.0652

                     31                     32                     33
                      A                      A                      A
 Frequencies --   1168.0950              1202.7794              1241.0327
 Red. masses --      2.5383                 1.3819                 3.0059
 Frc consts  --      2.0406                 1.1779                 2.7276
 IR Inten    --      1.3625                 3.3616                 0.5022

                     34                     35                     36
                      A                      A                      A
 Frequencies --   1274.3869              1354.2384              1390.5866
 Red. masses --      2.3528                 5.4144                 6.4751
 Frc consts  --      2.2513                 5.8504                 7.3772
 IR Inten    --      4.4448                 4.1900               197.3976

                     37                     38                     39
                      A                      A                      A
 Frequencies --   1423.3728              1481.5579              1511.9114
 Red. masses --     13.9613                 4.1297                 2.5999
 Frc consts  --     16.6653                 5.3408                 3.5015
 IR Inten    --    145.2455                25.1102                75.2761

                     40                     41                     42
                      A                      A                      A
 Frequencies --   1621.6857              1643.6887              1664.1211
 Red. masses --      5.1803                 8.5343                11.1199
 Frc consts  --      8.0267                13.5849                18.1435
 IR Inten    --     32.9322                71.4415               282.2060

                     43                     44                     45
                      A                      A                      A
 Frequencies --   2239.7920              2278.3339              3203.4450
 Red. masses --      6.1015                13.9865                 1.0874
 Frc consts  --     18.0345                42.7755                 6.5749
 IR Inten    --      6.3965               802.6453                 2.4856

                     46                     47                     48
                      A                      A                      A
 Frequencies --   3216.8581              3235.1625              3495.3297
 Red. masses --      1.0931                 1.0948                 1.1590
 Frc consts  --      6.6644                 6.7508                 8.3430
 IR Inten    --      4.2311                 3.3633                81.6751

 - Thermochemistry -
 -------------------
 Temperature   298.150 Kelvin.  Pressure   1.00000 Atm.
 Atom     1 has atomic number  6 and mass  12.00000

 Molecular mass:   188.03343 amu.
 Principal axes and moments of inertia in atomic units:
                           1         2         3
     Eigenvalues --  1501.252503205.771734505.76987
           X            0.99999  -0.00338  -0.00071
           Y            0.00338   0.99999  -0.00077
           Z            0.00071   0.00077   1.00000
 This molecule is an asymmetric top.
 Rotational symmetry number  1.
 Warning -- assumption of classical behavior for rotation
           may cause significant error
 Rotational temperatures (Kelvin)      0.05769     0.02702     0.01922
 Rotational constants (GHZ):           1.20216     0.56297     0.40054
 Zero-point vibrational energy     301359.8 (Joules/Mol)
                                   72.02671 (Kcal/Mol)
 Warning -- explicit consideration of  18 degrees of freedom as
           vibrations may cause significant error
 Vibrational temperatures:     66.73    76.12   133.16   171.08   197.37
          (Kelvin)            233.99   300.04   332.19   475.59   506.99
                              550.34   657.42   698.82   734.64   772.91
                              798.92   854.34   862.24   899.57   931.54
                             1011.52  1051.47  1109.76  1129.64  1163.89
                             1244.79  1300.60  1385.08  1410.20  1581.14
                             1680.63  1730.53  1785.57  1833.56  1948.45
                             2000.74  2047.92  2131.63  2175.30  2333.24
                             2364.90  2394.30  3222.56  3278.01  4609.04
                             4628.34  4654.68  5029.00

 Zero-point correction=                           0.114782 (Hartree/Particle)
 Thermal correction to Energy=                    0.126635
 Thermal correction to Enthalpy=                  0.127579
 Thermal correction to Gibbs Free Energy=         0.075728
 Sum of electronic and zero-point Energies=           -676.388557
 Sum of electronic and thermal Energies=              -676.376703
 Sum of electronic and thermal Enthalpies=            -676.375759
 Sum of electronic and thermal Free Energies=         -676.427610

                     E (Thermal)             CV                S
                      KCal/Mol        Cal/Mol-Kelvin    Cal/Mol-Kelvin
 Total                   79.465             43.210            109.130
 Electronic               0.000              0.000              0.000
 Translational            0.889              2.981             41.600
 Rotational               0.889              2.981             31.451
 Vibrational             77.687             37.248             36.079
 Vibration     1          0.595              1.979              4.966
 Vibration     2          0.596              1.976              4.706
 Vibration     3          0.602              1.954              3.605
 Vibration     4          0.609              1.934              3.118
 Vibration     5          0.614              1.916              2.843
 Vibration     6          0.623              1.888              2.519
 Vibration     7          0.642              1.828              2.056
 Vibration     8          0.653              1.794              1.872
 Vibration     9          0.713              1.614              1.257
 Vibration    10          0.729              1.570              1.156
 Vibration    11          0.752              1.508              1.029
 Vibration    12          0.815              1.346              0.775
 Vibration    13          0.842              1.282              0.695
 Vibration    14          0.866              1.227              0.632
 Vibration    15          0.892              1.168              0.571
 Vibration    16          0.911              1.128              0.533
 Vibration    17          0.951              1.045              0.460
 Vibration    18          0.957              1.033              0.451

 Optimization completed.
    -- Stationary point found.
 Normal termination of Gaussian 16 at Thu Dec 10 10:00:18 2020.

 ----------------------------------------------------------------------
 # B3LYP/6-311++G(d,p) empiricaldispersion=gd3bj scf=xqc pop=npa geom=c
 heck
 ----------------------------------------------------------------------

 ---------------------------------------
 CID_150984711_JID_4478_Energie_neutraal
 ---------------------------------------
 Structure from the checkpoint file:  "JID_4478.chk"
 Charge =  0 Multiplicity = 1

 SCF Done:  E(RB3LYP) =  -676.691956027     A.U. after   18 cycles
 Normal termination of Gaussian 16 at Thu Dec 10 10:01:51 2020.

 ----------------------------------------------------------------------
 # B3LYP/6-311++G(d,p) empiricaldispersion=gd3bj scf=xqc pop=npa geom=c
 heck
 ----------------------------------------------------------------------

 -------------------------------------
 CID_150984711_JID_4478_Energie_kation
 -------------------------------------
 Structure from the checkpoint file:  "JID_4478.chk"
 Charge =  1 Multiplicity = 2

 SCF Done:  E(UB3LYP) =  -676.365824228     A.U. after   30 cycles
 Normal termination of Gaussian 16 at Thu Dec 10 10:05:28 2020.
 Gaussian 16:  ES64L-G16RevA.03 25-Dec-2016

 ----------------------------------------------------------------------
 # B3LYP/6-311++G(d,p) empiricaldispersion=gd3bj scf=xqc pop=npa geom=c
 heck
 ----------------------------------------------------------------------

 ------------------------------------
 CID_150984711_JID_4478_Energie_anion
 ------------------------------------
 Structure from the checkpoint file:  "JID_4478.chk"
 Charge = -1 Multiplicity = 2

                         Standard orientation:
 ---------------------------------------------------------------------
 Center     Atomic      Atomic             Coordinates (Angstroms)
 Number     Number       Type             X           Y           Z
 ---------------------------------------------------------------------
      1          6           0        3.963169    0.053458   -0.073389
      2          6           0        2.795755    0.361247   -0.036215
      3          6           0        1.433905    0.778966   -0.013508
      4          6           0        0.374639   -0.143431   -0.003001
      5          6           0       -0.963377    0.269225    0.000962
      6          6           0       -1.245401    1.641512   -0.004485
      7          6           0       -0.206461    2.566963   -0.029517
      8          6           0        1.120425    2.148966   -0.038058
      9          7           0       -1.948560   -0.736969    0.046128
     10          7           0       -3.133914   -0.380172    0.070677
     11          7           0       -4.257848   -0.197415    0.093680
     12          7           0        0.679260   -1.582102   -0.002707
     13          8           0        0.241454   -2.244291   -0.938069
     14          8           0        1.357226   -2.006829    0.927369
     15          1           0        4.986252   -0.247036   -0.095116
     16          1           0       -2.277806    1.976373    0.012479
     17          1           0       -0.437700    3.627362   -0.040462
     18          1           0        1.931323    2.867433   -0.062480
 ---------------------------------------------------------------------

 SCF Done:  E(UB3LYP) =  -676.727585494     A.U. after   31 cycles

 The electronic state is 2-A.
 Alpha  occ. eigenvalues --  -18.96481 -18.96393 -14.38856 -14.34218 -14.28776
 Alpha  occ. eigenvalues --  -14.26787 -10.11357 -10.08218 -10.06653 -10.05968
 Alpha  occ. eigenvalues --  -10.05726 -10.05367 -10.04755 -10.03402  -1.04881
 Alpha  occ. eigenvalues --   -1.04421  -0.89304  -0.87352  -0.75394  -0.67069
 Alpha  occ. eigenvalues --   -0.66369  -0.61200  -0.56401  -0.53928  -0.48760
 Alpha  occ. eigenvalues --   -0.44928  -0.41797  -0.41669  -0.40148  -0.38514
 Alpha  occ. eigenvalues --   -0.37461  -0.36294  -0.35136  -0.34050  -0.33902
 Alpha  occ. eigenvalues --   -0.31966  -0.27596  -0.27253  -0.25796  -0.21888
 Alpha  occ. eigenvalues --   -0.20967  -0.18286  -0.15931  -0.14434  -0.13947
 Alpha  occ. eigenvalues --   -0.13064  -0.11393  -0.10637   0.02714
 Alpha virt. eigenvalues --    0.06053   0.06642   0.08325   0.09377   0.09815
 Alpha virt. eigenvalues --    0.10412   0.12049   0.12880   0.14323   0.14829
 Alpha virt. eigenvalues --    0.15541   0.16004   0.16452   0.17898   0.18072

  Beta  occ. eigenvalues --  -18.96104 -18.95968 -14.38857 -14.33697 -14.28789
  Beta  occ. eigenvalues --  -14.26774 -10.11395 -10.08034 -10.06382 -10.06030
  Beta  occ. eigenvalues --  -10.05580 -10.05197 -10.04797 -10.03250  -1.04872
  Beta  occ. eigenvalues --   -1.03559  -0.89295  -0.86605  -0.75051  -0.66779
  Beta  occ. eigenvalues --   -0.65879  -0.60928  -0.55939  -0.53445  -0.48393
  Beta  occ. eigenvalues --   -0.44591  -0.41748  -0.41511  -0.39986  -0.37999
  Beta  occ. eigenvalues --   -0.36871  -0.35760  -0.34929  -0.33771  -0.32927
  Beta  occ. eigenvalues --   -0.30941  -0.27130  -0.26911  -0.25585  -0.21376
  Beta  occ. eigenvalues --   -0.20890  -0.17501  -0.15598  -0.13360  -0.12768
  Beta  occ. eigenvalues --   -0.11826  -0.10712  -0.09793
  Beta virt. eigenvalues --    0.06083   0.06976   0.08297   0.08931   0.09385
  Beta virt. eigenvalues --    0.10351   0.12002   0.12045   0.13814   0.14329
  Beta virt. eigenvalues --    0.14879   0.15590   0.15994   0.16618   0.17925

 Mulliken charges and spin densities:
               1          2
     1  C   -0.419603   0.193852
     2  C    1.272980  -0.146992
     3  C    1.380536   0.214699
     4  C   -1.683478   0.164606
     5  C   -1.246583  -0.041363
     6  C    0.331640   0.106449
     7  C   -0.386489   0.135397
     8  C   -0.417808  -0.070307
     9  N    0.028684   0.008732
    10  N    0.435236  -0.003359
    11  N   -0.276396  -0.002980
    12  N   -0.261534   0.170214
    13  O   -0.118468   0.134763
    14  O   -0.118000   0.148883
    15  H    0.118093  -0.000235
    16  H    0.134045  -0.007730
    17  H    0.124477  -0.010582
    18  H    0.102668   0.005952
 Sum of Mulliken charges =  -1.00000   1.00000

 Dipole moment (field-independent basis, Debye):
    X=             -2.2597    Y=              5.2155    Z=             -0.0060  Tot=              5.6840
 Quadrupole moment (field-independent basis, Debye-Ang):
   XX=           -105.2573   YY=           -101.7246   ZZ=            -89.8865
   XY=              3.0914   XZ=             -2.2374   YZ=             -0.6372

 Summary of Natural Population Analysis:

                                       Natural Population
                Natural  -----------------------------------------------
    Atom  No    Charge         Core      Valence    Rydberg      Total
 -----------------------------------------------------------------------
      C    1   -0.08902      0.99927     2.08572    0.00403     3.08902
      C    2   -0.02302      0.99944     2.01067    0.01291     3.02302
      C    3    0.02354      0.99947     1.96191    0.01508     2.97646
      C    4    0.14640      0.99938     1.83648    0.01774     2.85360
      C    5    0.02266      0.99943     1.95765    0.02026     2.97734
      C    6   -0.09796      0.99954     2.08945    0.00897     3.09796
      C    7   -0.07578      0.99958     2.06657    0.00963     3.07578
      C    8   -0.11623      0.99960     2.10140    0.01522     3.11623
      N    9   -0.13911      0.99963     2.62529    0.01420     3.63911
      N   10    0.11868      0.99970     2.36485    0.01676     3.38132
      N   11   -0.06559      0.99982     2.55191    0.01387     3.56559
      N   12    0.28132      0.99975     2.18660    0.03232     3.21868
      O   13   -0.18516      0.99990     3.17676    0.00851     4.18516
      O   14   -0.17741      0.99990     3.16823    0.00928     4.17741
      H   15    0.10251      0.00000     0.39626    0.00123     0.39749
      H   16    0.09481      0.00000     0.40356    0.00162     0.40519
      H   17    0.09234      0.00000     0.40662    0.00104     0.40766
      H   18    0.09831      0.00000     0.40026    0.00142     0.40169
 =======================================================================
   * Total *    0.01130     13.99442    33.79019    0.20409    47.98870

 Normal termination of Gaussian 16 at Thu Dec 10 10:09:30 2020.
