 Gaussian 16, Revision A.03,

 -----------------------------------------------------------
 # opt freq B3LYP/6-31G(d) empiricaldispersion=gd3bj scf=xqc
 -----------------------------------------------------------

 -------------------------------
 CID_130165875_JID_4893_neutraal
 -------------------------------
 Symbolic Z-matrix:
 Charge =  0 Multiplicity = 1

 SCF Done:  E(RB3LYP) =  -1004.51150662     A.U. after   15 cycles
 SCF Done:  E(RB3LYP) =  -1004.52726717     A.U. after   13 cycles
 SCF Done:  E(RB3LYP) =  -1004.53002050     A.U. after   12 cycles
 SCF Done:  E(RB3LYP) =  -1004.53297544     A.U. after   13 cycles
 SCF Done:  E(RB3LYP) =  -1004.53653919     A.U. after   13 cycles
 SCF Done:  E(RB3LYP) =  -1004.53968188     A.U. after   13 cycles
 SCF Done:  E(RB3LYP) =  -1004.54346305     A.U. after   12 cycles
 SCF Done:  E(RB3LYP) =  -1004.54654978     A.U. after   12 cycles
 SCF Done:  E(RB3LYP) =  -1004.54983829     A.U. after   13 cycles
 SCF Done:  E(RB3LYP) =  -1004.55130412     A.U. after   12 cycles
 SCF Done:  E(RB3LYP) =  -1004.55439517     A.U. after   11 cycles
 SCF Done:  E(RB3LYP) =  -1004.55442172     A.U. after   10 cycles
 SCF Done:  E(RB3LYP) =  -1004.55443324     A.U. after   10 cycles
 SCF Done:  E(RB3LYP) =  -1004.55443631     A.U. after    9 cycles
 SCF Done:  E(RB3LYP) =  -1004.55443683     A.U. after    8 cycles
 Optimization completed.
    -- Stationary point found.
 Normal termination of Gaussian 16 at Thu Dec 10 10:54:08 2020.

 --------------------------------------------------------------------
 #N Geom=AllCheck Guess=TCheck SCRF=Check GenChk RB3LYP/6-31G(d) Freq
 --------------------------------------------------------------------

 Structure from the checkpoint file:  "JID_4893.chk"
 -------------------------------
 CID_130165875_JID_4893_neutraal
 -------------------------------
 Charge =  0 Multiplicity = 1

 SCF Done:  E(RB3LYP) =  -1004.55443683     A.U. after    1 cycles

  Exact polarizability: 146.940  -5.853 120.480  -5.648 -10.214  96.630
 Approx polarizability: 202.611 -19.330 210.647  -9.097 -30.816 158.857

                      1                      2                      3
                      A                      A                      A
 Frequencies --     57.4536                61.0422                70.7001
 Red. masses --      5.4091                 4.5134                 4.8377
 Frc consts  --      0.0105                 0.0099                 0.0142
 IR Inten    --      1.5897                 0.5614                 0.4738

                      4                      5                      6
                      A                      A                      A
 Frequencies --    101.5704               110.2389               160.5259
 Red. masses --      6.2602                 1.1403                 3.9154
 Frc consts  --      0.0381                 0.0082                 0.0594
 IR Inten    --      0.2405                 0.3446                 2.0679

                      7                      8                      9
                      A                      A                      A
 Frequencies --    175.0552               258.1365               313.6491
 Red. masses --      4.7992                 3.9895                 3.4992
 Frc consts  --      0.0866                 0.1566                 0.2028
 IR Inten    --      1.8552                 2.3593                 0.9850

                     10                     11                     12
                      A                      A                      A
 Frequencies --    321.7654               351.5817               371.3603
 Red. masses --      4.9545                 1.2107                 3.4861
 Frc consts  --      0.3022                 0.0882                 0.2833
 IR Inten    --      1.6092                32.1964                 1.4306

                     13                     14                     15
                      A                      A                      A
 Frequencies --    428.0866               451.6997               477.3497
 Red. masses --      4.5619                 3.9841                 4.0115
 Frc consts  --      0.4926                 0.4789                 0.5386
 IR Inten    --     10.4125                 6.8919                23.5776

                     16                     17                     18
                      A                      A                      A
 Frequencies --    507.4074               528.4320               569.6768
 Red. masses --      5.0553                 4.2648                 2.3438
 Frc consts  --      0.7668                 0.7017                 0.4482
 IR Inten    --      6.7607                12.4646                18.8504

                     19                     20                     21
                      A                      A                      A
 Frequencies --    580.0942               601.8030               622.7858
 Red. masses --      1.6200                 1.6786                 3.8904
 Frc consts  --      0.3212                 0.3582                 0.8890
 IR Inten    --     80.9149                62.2863                10.0886

                     22                     23                     24
                      A                      A                      A
 Frequencies --    665.1558               680.7853               735.7194
 Red. masses --      3.7381                 2.6267                 4.0836
 Frc consts  --      0.9744                 0.7173                 1.3023
 IR Inten    --     28.0145               113.6728                 4.4096

                     25                     26                     27
                      A                      A                      A
 Frequencies --    749.1040               772.3403               820.5213
 Red. masses --      6.8503                 6.1893                 2.1230
 Frc consts  --      2.2649                 2.1753                 0.8421
 IR Inten    --      9.7268                77.7686                26.0500

                     28                     29                     30
                      A                      A                      A
 Frequencies --    829.8535               844.1639               900.1520
 Red. masses --      1.6855                 2.7706                 1.6755
 Frc consts  --      0.6839                 1.1633                 0.7999
 IR Inten    --     10.5272                82.6387                31.7167

                     31                     32                     33
                      A                      A                      A
 Frequencies --    914.7027               946.6001               986.1667
 Red. masses --      1.8602                 1.7924                 2.3280
 Frc consts  --      0.9170                 0.9463                 1.3339
 IR Inten    --     90.7943                37.7310                 5.7607

                     34                     35                     36
                      A                      A                      A
 Frequencies --   1009.7877              1043.6695              1072.6107
 Red. masses --      1.9612                 2.9505                 1.4048
 Frc consts  --      1.1782                 1.8935                 0.9523
 IR Inten    --      0.6750                51.8356                 1.5846

                     37                     38                     39
                      A                      A                      A
 Frequencies --   1078.8230              1108.6526              1128.7133
 Red. masses --      1.4334                 2.2303                 4.0499
 Frc consts  --      0.9829                 1.6151                 3.0399
 IR Inten    --     12.9188                26.7462                26.3418

                     40                     41                     42
                      A                      A                      A
 Frequencies --   1132.7614              1173.5508              1188.5760
 Red. masses --      2.8757                 2.5311                 4.1831
 Frc consts  --      2.1740                 2.0538                 3.4818
 IR Inten    --     57.9956                37.4520                11.4610

                     43                     44                     45
                      A                      A                      A
 Frequencies --   1257.4455              1271.7523              1310.1269
 Red. masses --      1.3727                 1.3648                 1.4927
 Frc consts  --      1.2788                 1.3005                 1.5096
 IR Inten    --      8.1622                24.3478                88.0239

                     46                     47                     48
                      A                      A                      A
 Frequencies --   1354.3125              1376.7461              1401.9579
 Red. masses --      1.6693                 2.0151                 1.5137
 Frc consts  --      1.8040                 2.2503                 1.7530
 IR Inten    --     64.3116                32.6921                25.3952

                     49                     50                     51
                      A                      A                      A
 Frequencies --   1419.5911              1443.1454              1444.8732
 Red. masses --      1.4502                 1.3238                 1.2414
 Frc consts  --      1.7219                 1.6243                 1.5270
 IR Inten    --     15.2826                30.5226                 0.7152

                     52                     53                     54
                      A                      A                      A
 Frequencies --   1477.5540              1495.6872              1507.8251
 Red. masses --      1.6025                 2.6076                 1.0423
 Frc consts  --      2.0613                 3.4369                 1.3962
 IR Inten    --     40.3948               209.9313                 9.1656

                     55                     56                     57
                      A                      A                      A
 Frequencies --   1516.4002              1520.1779              1557.8265
 Red. masses --      1.3019                 1.1640                 4.7420
 Frc consts  --      1.7638                 1.5849                 6.7804
 IR Inten    --     18.5233                 6.4966                15.8689

                     58                     59                     60
                      A                      A                      A
 Frequencies --   1624.4581              1694.6049              1814.3036
 Red. masses --      5.2194                 1.0993                 7.4098
 Frc consts  --      8.1150                 1.8600                14.3706
 IR Inten    --      0.9330                22.9773               481.8481

                     61                     62                     63
                      A                      A                      A
 Frequencies --   3046.7081              3050.4074              3055.9898
 Red. masses --      1.0365                 1.0870                 1.0863
 Frc consts  --      5.6688                 5.9592                 5.9772
 IR Inten    --     35.5448                60.0192                27.3168

                     64                     65                     66
                      A                      A                      A
 Frequencies --   3098.9937              3131.1429              3213.8231
 Red. masses --      1.1017                 1.1010                 1.0903
 Frc consts  --      6.2340                 6.3597                 6.6352
 IR Inten    --     15.0161                11.7765                 9.3475

                     67                     68                     69
                      A                      A                      A
 Frequencies --   3230.2893              3482.4055              3492.7528
 Red. masses --      1.0961                 1.0499                 1.0740
 Frc consts  --      6.7391                 7.5013                 7.7192
 IR Inten    --      1.7607                 2.1080                 0.2296

                     70                     71                     72
                      A                      A                      A
 Frequencies --   3571.3811              3592.5297              3620.5333
 Red. masses --      1.0920                 1.0760                 1.0763
 Frc consts  --      8.2061                 8.1821                 8.3127
 IR Inten    --      5.3855                19.8997                35.9508

 - Thermochemistry -
 -------------------
 Temperature   298.150 Kelvin.  Pressure   1.00000 Atm.
 Atom     1 has atomic number  6 and mass  12.00000

 Molecular mass:   212.07318 amu.
 Principal axes and moments of inertia in atomic units:
                           1         2         3
     Eigenvalues --  1518.685544213.549344635.77336
           X            0.99973   0.01909  -0.01303
           Y           -0.01887   0.99968   0.01685
           Z            0.01335  -0.01660   0.99977
 This molecule is an asymmetric top.
 Rotational symmetry number  1.
 Warning -- assumption of classical behavior for rotation
           may cause significant error
 Rotational temperatures (Kelvin)      0.05703     0.02056     0.01868
 Rotational constants (GHZ):           1.18836     0.42832     0.38931
 Zero-point vibrational energy     556135.3 (Joules/Mol)
                                  132.91954 (Kcal/Mol)
 Warning -- explicit consideration of  20 degrees of freedom as
           vibrations may cause significant error
 Vibrational temperatures:     82.66    87.83   101.72   146.14   158.61
          (Kelvin)            230.96   251.87   371.40   451.27   462.95
                              505.85   534.30   615.92   649.90   686.80
                              730.05   760.30   819.64   834.63   865.86
                              896.05   957.01   979.50  1058.54  1077.79
                             1111.23  1180.55  1193.97  1214.56  1295.12
                             1316.05  1361.95  1418.87  1452.86  1501.61
                             1543.25  1552.19  1595.10  1623.97  1629.79
                             1688.48  1710.10  1809.18  1829.77  1884.98
                             1948.55  1980.83  2017.10  2042.47  2076.36
                             2078.85  2125.87  2151.96  2169.42  2181.76
                             2187.20  2241.36  2337.23  2438.16  2610.38
                             4383.53  4388.86  4396.89  4458.76  4505.02
                             4623.97  4647.67  5010.40  5025.29  5138.42
                             5168.85  5209.14

 Zero-point correction=                           0.211821 (Hartree/Particle)
 Thermal correction to Energy=                    0.224852
 Thermal correction to Enthalpy=                  0.225797
 Thermal correction to Gibbs Free Energy=         0.171752
 Sum of electronic and zero-point Energies=          -1004.342616
 Sum of electronic and thermal Energies=             -1004.329584
 Sum of electronic and thermal Enthalpies=           -1004.328640
 Sum of electronic and thermal Free Energies=        -1004.382685

                     E (Thermal)             CV                S
                      KCal/Mol        Cal/Mol-Kelvin    Cal/Mol-Kelvin
 Total                  141.097             50.067            113.747
 Electronic               0.000              0.000              0.000
 Translational            0.889              2.981             41.959
 Rotational               0.889              2.981             31.762
 Vibrational            139.320             44.106             40.026
 Vibration     1          0.596              1.975              4.543
 Vibration     2          0.597              1.973              4.423
 Vibration     3          0.598              1.968              4.134
 Vibration     4          0.604              1.948              3.424
 Vibration     5          0.606              1.941              3.265
 Vibration     6          0.622              1.891              2.544
 Vibration     7          0.627              1.873              2.381
 Vibration     8          0.667              1.749              1.674
 Vibration     9          0.701              1.648              1.343
 Vibration    10          0.707              1.632              1.301
 Vibration    11          0.728              1.572              1.159
 Vibration    12          0.743              1.531              1.074
 Vibration    13          0.790              1.409              0.865
 Vibration    14          0.810              1.357              0.791
 Vibration    15          0.834              1.300              0.717
 Vibration    16          0.863              1.234              0.640
 Vibration    17          0.883              1.187              0.591
 Vibration    18          0.926              1.097              0.505
 Vibration    19          0.937              1.074              0.485
 Vibration    20          0.960              1.028              0.447

                           ! Non-Optimized Parameters !
 Normal termination of Gaussian 16 at Thu Dec 10 11:01:21 2020.

 ----------------------------------------------------------------------
 # B3LYP/6-311++G(d,p) empiricaldispersion=gd3bj scf=xqc pop=npa geom=c
 heck
 ----------------------------------------------------------------------

 ---------------------------------------
 CID_130165875_JID_4893_Energie_neutraal
 ---------------------------------------
 Structure from the checkpoint file:  "JID_4893.chk"
 Charge =  0 Multiplicity = 1

 SCF Done:  E(RB3LYP) =  -1004.76728102     A.U. after   15 cycles
 Normal termination of Gaussian 16 at Thu Dec 10 11:04:48 2020.

 ----------------------------------------------------------------------
 # B3LYP/6-311++G(d,p) empiricaldispersion=gd3bj scf=xqc pop=npa geom=c
 heck
 ----------------------------------------------------------------------

 -------------------------------------
 CID_130165875_JID_4893_Energie_kation
 -------------------------------------
 Structure from the checkpoint file:  "JID_4893.chk"
 Charge =  1 Multiplicity = 2

 SCF Done:  E(UB3LYP) =  -1004.46675739     A.U. after   29 cycles
 Normal termination of Gaussian 16 at Thu Dec 10 11:12:21 2020.
 Gaussian 16:  ES64L-G16RevA.03 25-Dec-2016

 ----------------------------------------------------------------------
 # B3LYP/6-311++G(d,p) empiricaldispersion=gd3bj scf=xqc pop=npa geom=c
 heck
 ----------------------------------------------------------------------

 ------------------------------------
 CID_130165875_JID_4893_Energie_anion
 ------------------------------------
 Structure from the checkpoint file:  "JID_4893.chk"
 Charge = -1 Multiplicity = 2

                         Standard orientation:
 ---------------------------------------------------------------------
 Center     Atomic      Atomic             Coordinates (Angstroms)
 Number     Number       Type             X           Y           Z
 ---------------------------------------------------------------------
      1          6           0       -4.285386   -0.144145    0.555952
      2          6           0       -2.843991   -0.393225    0.233702
      3          6           0       -2.058565   -1.448924    0.607714
      4          6           0       -0.716072   -1.367920    0.118863
      5          6           0       -0.482087   -0.241446   -0.622079
      6         16           0       -1.924719    0.742313   -0.733700
      7          6           0        0.797912    0.189607   -1.304915
      8          7           0        1.241684    1.496968   -0.834962
      9          6           0        1.750351    1.497172    0.542526
     10          7           0        2.537208    0.295408    0.815675
     11          6           0        2.508911   -0.878787    0.097573
     12          8           0        3.045218   -1.908504    0.486382
     13          7           0        1.870721   -0.790104   -1.136218
     14          7           0        0.758261    1.639206    1.589042
     15          1           0       -4.425693    0.795119    1.104155
     16          1           0       -4.902228   -0.091228   -0.349114
     17          1           0       -4.669936   -0.957719    1.178393
     18          1           0       -2.427139   -2.266573    1.218285
     19          1           0        0.048149   -2.108690    0.326194
     20          1           0        0.612620    0.287914   -2.380815
     21          1           0        1.990736    1.806459   -1.452670
     22          1           0        2.406356    2.373903    0.606706
     23          1           0        2.867467    0.181440    1.764951
     24          1           0        1.728660   -1.705734   -1.545981
     25          1           0        0.198149    2.469565    1.402104
     26          1           0        0.125061    0.842219    1.565176
 ---------------------------------------------------------------------

 SCF Done:  E(UB3LYP) =  -1004.76147892     A.U. after   33 cycles
 SCF Done:  E(UB3LYP) =  -1004.76147892     a.u. after    1 cycles

 The electronic state is 2-A.
 Alpha  occ. eigenvalues --  -88.75365 -18.97679 -14.22673 -14.22101 -14.20318
 Alpha  occ. eigenvalues --  -14.19473 -10.19016 -10.16363 -10.13971 -10.08616
 Alpha  occ. eigenvalues --  -10.08013 -10.07952 -10.06027 -10.05817  -7.83999
 Alpha  occ. eigenvalues --   -5.80292  -5.79930  -5.79587  -0.94587  -0.87443
 Alpha  occ. eigenvalues --   -0.81598  -0.77962  -0.76353  -0.74906  -0.66344
 Alpha  occ. eigenvalues --   -0.62269  -0.60088  -0.56504  -0.54538  -0.48616
 Alpha  occ. eigenvalues --   -0.44086  -0.43731  -0.42933  -0.40854  -0.40167
 Alpha  occ. eigenvalues --   -0.38178  -0.37454  -0.35953  -0.33511  -0.32940
 Alpha  occ. eigenvalues --   -0.32367  -0.31938  -0.30871  -0.29293  -0.27959
 Alpha  occ. eigenvalues --   -0.26397  -0.26175  -0.25028  -0.22694  -0.17712
 Alpha  occ. eigenvalues --   -0.16991  -0.16243  -0.15364  -0.14732  -0.14095
 Alpha  occ. eigenvalues --   -0.11659   0.04417
 Alpha virt. eigenvalues --    0.06508   0.07182   0.08593   0.08881   0.09599
 Alpha virt. eigenvalues --    0.10319   0.10903   0.11266   0.11500   0.12591
 Alpha virt. eigenvalues --    0.13067   0.13417   0.13838   0.14702   0.14795

  Beta  occ. eigenvalues --  -88.75349 -18.97678 -14.22669 -14.22092 -14.20266
  Beta  occ. eigenvalues --  -14.19469 -10.19015 -10.16341 -10.13964 -10.08418
  Beta  occ. eigenvalues --  -10.07956 -10.07857 -10.06048 -10.05771  -7.83983
  Beta  occ. eigenvalues --   -5.80287  -5.79925  -5.79530  -0.94577  -0.87392
  Beta  occ. eigenvalues --   -0.81557  -0.77904  -0.76178  -0.74860  -0.66117
  Beta  occ. eigenvalues --   -0.62151  -0.59993  -0.56428  -0.54471  -0.48510
  Beta  occ. eigenvalues --   -0.43980  -0.43659  -0.42733  -0.40767  -0.40089
  Beta  occ. eigenvalues --   -0.38093  -0.37390  -0.35912  -0.33459  -0.32707
  Beta  occ. eigenvalues --   -0.32322  -0.31901  -0.30812  -0.29143  -0.27860
  Beta  occ. eigenvalues --   -0.26299  -0.26103  -0.24688  -0.22553  -0.17652
  Beta  occ. eigenvalues --   -0.16965  -0.16212  -0.15273  -0.14682  -0.13744
  Beta  occ. eigenvalues --   -0.10874
  Beta virt. eigenvalues --    0.06600   0.07535   0.08129   0.08780   0.09525
  Beta virt. eigenvalues --    0.10219   0.10476   0.11234   0.11591   0.11843
  Beta virt. eigenvalues --    0.12835   0.13255   0.13341   0.13919   0.14823

 Mulliken charges and spin densities:
               1          2
     1  C    0.483618  -0.834475
     2  C   -0.503039   0.693070
     3  C   -0.717539   0.049857
     4  C   -0.581616   0.408373
     5  C    0.047308   0.117313
     6  S    0.277885  -0.408504
     7  C    1.258886  -1.499079
     8  N    0.080919  -0.026074
     9  C    0.221642  -0.815992
    10  N   -0.228099   0.059185
    11  C    0.398910  -0.231983
    12  O   -0.398176   0.016682
    13  N   -0.258407   0.091168
    14  N   -0.381033   0.019241
    15  H    0.139083   0.007712
    16  H   -0.138593   0.301103
    17  H    0.029563   0.117045
    18  H    0.028784   0.089666
    19  H    0.141748   0.047304
    20  H   -1.114793   1.384756
    21  H   -0.185357   0.464942
    22  H   -0.606981   0.809744
    23  H    0.269581   0.031096
    24  H    0.192159   0.112103
    25  H    0.225688   0.006019
    26  H    0.317860  -0.010271
 Sum of Mulliken charges =  -1.00000   1.00000

 Dipole moment (field-independent basis, Debye):
    X=             -3.2968    Y=             -0.5608    Z=              4.3757  Tot=              5.5073
 Quadrupole moment (field-independent basis, Debye-Ang):
   XX=           -146.6061   YY=           -123.3297   ZZ=           -124.7351
   XY=             -1.8260   XZ=             -1.8012   YZ=              6.2025

 Summary of Natural Population Analysis:

                                       Natural Population
                Natural  -----------------------------------------------
    Atom  No    Charge         Core      Valence    Rydberg      Total
 -----------------------------------------------------------------------
      C    1   -0.29959      0.99961     2.29386    0.00612     3.29959
      C    2   -0.06750      0.99951     2.05633    0.01167     3.06750
      C    3   -0.14272      0.99946     2.13279    0.01048     3.14272
      C    4   -0.12830      0.99945     2.11860    0.01026     3.12830
      C    5   -0.09273      0.99946     2.07900    0.01427     3.09273
      S    6    0.20759      4.99937     2.77449    0.01855     7.79241
      C    7    0.06279      0.99952     1.91791    0.01978     2.93721
      N    8   -0.33863      0.99972     2.82559    0.01332     3.83863
      C    9    0.16819      0.99966     1.81282    0.01933     2.83181
      N   10   -0.33930      0.99966     2.83003    0.00961     3.83930
      C   11    0.40682      0.99969     1.56906    0.02443     2.59318
      O   12   -0.34365      0.99988     3.33871    0.00506     4.34365
      N   13   -0.33793      0.99968     2.82753    0.01072     3.83793
      N   14   -0.42633      0.99976     2.91807    0.00851     3.92633
      H   15    0.10160      0.00000     0.39750    0.00090     0.39840
      H   16    0.10656      0.00000     0.39197    0.00147     0.39344
      H   17    0.10351      0.00000     0.39572    0.00077     0.39649
      H   18    0.10098      0.00000     0.39819    0.00084     0.39902
      H   19    0.11040      0.00000     0.38854    0.00106     0.38960
      H   20    0.11317      0.00000     0.37937    0.00746     0.38683
      H   21    0.18775      0.00000     0.30368    0.00857     0.31225
      H   22    0.08879      0.00000     0.40967    0.00154     0.41121
      H   23    0.19854      0.00000     0.29977    0.00169     0.30146
      H   24    0.19637      0.00000     0.30153    0.00210     0.30363
      H   25    0.17878      0.00000     0.31944    0.00178     0.32122
      H   26    0.18485      0.00000     0.31305    0.00210     0.31515
 =======================================================================
   * Total *   -0.00000     17.99443    37.79320    0.21237    56.00000

 Normal termination of Gaussian 16 at Thu Dec 10 11:20:10 2020.
