 Gaussian 16, Revision A.03,

 -----------------------------------------------------------
 # opt freq B3LYP/6-31G(d) empiricaldispersion=gd3bj scf=xqc
 -----------------------------------------------------------

 ------------------------------
 CID_80487522_JID_2813_neutraal
 ------------------------------
 Symbolic Z-matrix:
 Charge =  0 Multiplicity = 1

 SCF Done:  E(RB3LYP) =  -549.570125824     A.U. after   14 cycles
 SCF Done:  E(RB3LYP) =  -549.576164440     A.U. after   12 cycles
 SCF Done:  E(RB3LYP) =  -549.577310366     A.U. after   11 cycles
 SCF Done:  E(RB3LYP) =  -549.577631565     A.U. after   10 cycles
 SCF Done:  E(RB3LYP) =  -549.577758256     A.U. after   11 cycles
 SCF Done:  E(RB3LYP) =  -549.577793512     A.U. after   10 cycles
 SCF Done:  E(RB3LYP) =  -549.577842164     A.U. after   10 cycles
 SCF Done:  E(RB3LYP) =  -549.577854121     A.U. after   10 cycles
 SCF Done:  E(RB3LYP) =  -549.577859822     A.U. after    9 cycles
 SCF Done:  E(RB3LYP) =  -549.577863937     A.U. after    9 cycles
 SCF Done:  E(RB3LYP) =  -549.577864948     A.U. after    8 cycles
 SCF Done:  E(RB3LYP) =  -549.577865402     A.U. after    8 cycles
 SCF Done:  E(RB3LYP) =  -549.577865514     A.U. after    7 cycles
 SCF Done:  E(RB3LYP) =  -549.577865552     A.U. after    7 cycles
 Optimization completed.
    -- Stationary point found.

 1\1\GINC-NODE359\FOpt\RB3LYP\6-31G(d)\C7H15N5\VSC10255\09-Dec-2020\0\\
 # opt freq B3LYP/6-31G(d) empiricaldispersion=gd3bj scf=xqc\\CID_80487
 522_JID_2813_neutraal\\0,1\C,0.9436331962,-0.1056760374,0.0049240007\C
 ,0.5761493845,-0.4311122577,1.4557452568\C,1.122113802,0.6217311674,2.
 4263881124\C,-0.9473223657,-0.5545002245,1.630899195\N,-1.5390073902,-
 1.6049574421,0.8273326541\C,-1.4530158343,-2.9438087448,0.9763760226\N
 ,-1.9731711308,-3.5776084065,-0.0663145147\C,-2.3648600807,-2.53931982
 98,-0.8721378827\N,-2.1219341604,-1.320964905,-0.4040611121\N,-3.02682

 Normal termination of Gaussian 16 at Wed Dec  9 18:04:24 2020.

 --------------------------------------------------------------------
 #N Geom=AllCheck Guess=TCheck SCRF=Check GenChk RB3LYP/6-31G(d) Freq
 --------------------------------------------------------------------

 Structure from the checkpoint file:  "JID_2813.chk"
 ------------------------------
 CID_80487522_JID_2813_neutraal
 ------------------------------
 Charge =  0 Multiplicity = 1

 SCF Done:  E(RB3LYP) =  -549.577865552     A.U. after    1 cycles

  Exact polarizability: 136.686   8.647 101.381  -7.344   6.424  77.299
 Approx polarizability: 172.800   9.848 152.771 -12.963  20.156 118.364

                      1                      2                      3
                      A                      A                      A
 Frequencies --     43.1655                46.0361                72.1646
 Red. masses --      2.7464                 3.5267                 3.0524
 Frc consts  --      0.0030                 0.0044                 0.0094
 IR Inten    --      0.2598                 0.2090                 0.7781

                      4                      5                      6
                      A                      A                      A
 Frequencies --     96.1726               139.1686               189.9637
 Red. masses --      2.5635                 1.4563                 2.1940
 Frc consts  --      0.0140                 0.0166                 0.0466
 IR Inten    --      4.4164                 7.1443                 5.4786

                      7                      8                      9
                      A                      A                      A
 Frequencies --    217.5240               233.5081               238.6762
 Red. masses --      1.1773                 1.6039                 1.4007
 Frc consts  --      0.0328                 0.0515                 0.0470
 IR Inten    --      1.7209                 8.1283                 3.2682

                     10                     11                     12
                      A                      A                      A
 Frequencies --    246.5512               276.5451               295.8211
 Red. masses --      3.0129                 1.4155                 2.1714
 Frc consts  --      0.1079                 0.0638                 0.1120
 IR Inten    --      5.8696                24.6307                 1.4893

                     13                     14                     15
                      A                      A                      A
 Frequencies --    303.9730               356.0081               384.3993
 Red. masses --      3.1238                 3.7237                 2.6065
 Frc consts  --      0.1701                 0.2781                 0.2269
 IR Inten    --      1.3584                 5.0899                 3.6136

                     16                     17                     18
                      A                      A                      A
 Frequencies --    422.8298               462.9431               550.0363
 Red. masses --      1.8425                 3.6249                 2.5625
 Frc consts  --      0.1941                 0.4577                 0.4568
 IR Inten    --      0.3744                14.9480                58.1699

                     19                     20                     21
                      A                      A                      A
 Frequencies --    593.5419               652.5960               692.5290
 Red. masses --      3.2105                 3.0661                 3.1456
 Frc consts  --      0.6664                 0.7693                 0.8888
 IR Inten    --     31.9557                95.3497                98.6707

                     22                     23                     24
                      A                      A                      A
 Frequencies --    739.6204               755.9235               773.5050
 Red. masses --      1.9917                 3.1249                 4.6115
 Frc consts  --      0.6419                 1.0521                 1.6256
 IR Inten    --     27.6088                51.1205               114.9519

                     25                     26                     27
                      A                      A                      A
 Frequencies --    826.3548               854.7683               911.1443
 Red. masses --      2.7192                 3.0348                 1.6148
 Frc consts  --      1.0940                 1.3064                 0.7899
 IR Inten    --      1.1338                 4.8429                 0.9662

                     28                     29                     30
                      A                      A                      A
 Frequencies --    948.5058               960.9337               983.9425
 Red. masses --      1.2214                 1.8663                 1.5014
 Frc consts  --      0.6474                 1.0154                 0.8564
 IR Inten    --      3.7778                 4.8883                 0.3636

                     31                     32                     33
                      A                      A                      A
 Frequencies --   1030.3726              1083.8050              1105.2621
 Red. masses --      6.3688                 2.5596                 1.7241
 Frc consts  --      3.9838                 1.7714                 1.2409
 IR Inten    --     10.5361                23.8697                25.4999

                     34                     35                     36
                      A                      A                      A
 Frequencies --   1147.1970              1158.9723              1167.5009
 Red. masses --      1.9007                 2.0353                 1.4116
 Frc consts  --      1.4738                 1.6108                 1.1337
 IR Inten    --     10.2258                 4.5246                15.9070

                     37                     38                     39
                      A                      A                      A
 Frequencies --   1187.5779              1211.1987              1228.8823
 Red. masses --      2.4009                 1.7604                 2.3248
 Frc consts  --      1.9950                 1.5216                 2.0685
 IR Inten    --     36.9210                 3.6264                 1.2889

                     40                     41                     42
                      A                      A                      A
 Frequencies --   1302.9640              1339.1772              1350.1267
 Red. masses --      2.9952                 1.8786                 1.2527
 Frc consts  --      2.9960                 1.9850                 1.3453
 IR Inten    --      4.3759                14.1903                 7.6983

                     43                     44                     45
                      A                      A                      A
 Frequencies --   1398.5604              1411.0139              1415.0891
 Red. masses --      1.3397                 2.7578                 1.6148
 Frc consts  --      1.5440                 3.2350                 1.9051
 IR Inten    --      1.8733                33.9448                 9.8507

                     46                     47                     48
                      A                      A                      A
 Frequencies --   1432.9747              1453.4564              1454.6192
 Red. masses --      1.2750                 1.2403                 1.5336
 Frc consts  --      1.5425                 1.5438                 1.9118
 IR Inten    --      2.2919                 8.5897               123.9011

                     49                     50                     51
                      A                      A                      A
 Frequencies --   1493.1620              1503.5336              1514.7368
 Red. masses --      1.4282                 1.1472                 1.0758
 Frc consts  --      1.8760                 1.5280                 1.4543
 IR Inten    --     32.9595                20.6580                24.9303

                     52                     53                     54
                      A                      A                      A
 Frequencies --   1517.9505              1523.9462              1534.8895
 Red. masses --      1.0956                 1.0585                 1.0497
 Frc consts  --      1.4873                 1.4484                 1.4570
 IR Inten    --     15.2533                 5.2350                 9.6701

                     55                     56                     57
                      A                      A                      A
 Frequencies --   1537.5188              1540.0169              1560.0882
 Red. masses --      1.0580                 1.2221                 2.3611
 Frc consts  --      1.4736                 1.7077                 3.3858
 IR Inten    --     11.8706                 6.7969                98.2501

                     58                     59                     60
                      A                      A                      A
 Frequencies --   1597.0280              1653.2312              1684.3581
 Red. masses --      3.0649                 4.3041                 1.4569
 Frc consts  --      4.6056                 6.9310                 2.4353
 IR Inten    --     82.3605               393.1060               120.6602

                     61                     62                     63
                      A                      A                      A
 Frequencies --   3001.7863              3032.8890              3038.5034
 Red. masses --      1.0569                 1.0684                 1.0755
 Frc consts  --      5.6110                 5.7901                 5.8504
 IR Inten    --     94.9538                22.9568                 4.1093

                     64                     65                     66
                      A                      A                      A
 Frequencies --   3039.7570              3048.8389              3100.4163
 Red. masses --      1.0433                 1.0400                 1.1017
 Frc consts  --      5.6797                 5.6959                 6.2395
 IR Inten    --     58.1270                24.1207                27.9093

                     67                     68                     69
                      A                      A                      A
 Frequencies --   3107.8433              3108.8415              3117.2975
 Red. masses --      1.0800                 1.1015                 1.1010
 Frc consts  --      6.1463                 6.2723                 6.3036
 IR Inten    --     44.5626                19.4620                40.6812

                     70                     71                     72
                      A                      A                      A
 Frequencies --   3124.2084              3140.8437              3161.6493
 Red. masses --      1.0953                 1.1000                 1.1018
 Frc consts  --      6.2988                 6.3934                 6.4892
 IR Inten    --     23.5186                21.3332                12.7760

                     73                     74                     75
                      A                      A                      A
 Frequencies --   3537.1195              3587.5683              3639.4155
 Red. masses --      1.0483                 1.0750                 1.0970
 Frc consts  --      7.7278                 8.1522                 8.5609
 IR Inten    --     16.2749                12.5233                21.2342

 - Thermochemistry -
 -------------------
 Temperature   298.150 Kelvin.  Pressure   1.00000 Atm.
 Atom     1 has atomic number  6 and mass  12.00000

 Molecular mass:   169.13275 amu.
 Principal axes and moments of inertia in atomic units:
                           1         2         3
     Eigenvalues --  1000.196553416.074773940.53448
           X            0.99997  -0.00039  -0.00746
           Y            0.00019   0.99963  -0.02714
           Z            0.00747   0.02714   0.99960
 This molecule is an asymmetric top.
 Rotational symmetry number  1.
 Warning -- assumption of classical behavior for rotation
           may cause significant error
 Rotational temperatures (Kelvin)      0.08660     0.02535     0.02198
 Rotational constants (GHZ):           1.80439     0.52831     0.45799
 Zero-point vibrational energy     619635.9 (Joules/Mol)
                                  148.09654 (Kcal/Mol)
 Warning -- explicit consideration of  19 degrees of freedom as
           vibrations may cause significant error
 Vibrational temperatures:     62.11    66.24   103.83   138.37   200.23
          (Kelvin)            273.32   312.97   335.97   343.40   354.73
                              397.89   425.62   437.35   512.22   553.06
                              608.36   666.07   791.38   853.97   938.94
                              996.39  1064.15  1087.61  1112.90  1188.94
                             1229.82  1310.93  1364.69  1382.57  1415.67
                             1482.48  1559.35  1590.23  1650.56  1667.50
                             1679.77  1708.66  1742.64  1768.09  1874.67
                             1926.78  1942.53  2012.22  2030.13  2036.00
                             2061.73  2091.20  2092.87  2148.33  2163.25
                             2179.37  2183.99  2192.62  2208.36  2212.15
                             2215.74  2244.62  2297.77  2378.63  2423.42
                             4318.90  4363.65  4371.73  4373.53  4386.60
                             4460.81  4471.49  4472.93  4485.10  4495.04
                             4518.97  4548.91  5089.13  5161.71  5236.31

 Zero-point correction=                           0.236007 (Hartree/Particle)
 Thermal correction to Energy=                    0.249353
 Thermal correction to Enthalpy=                  0.250297
 Thermal correction to Gibbs Free Energy=         0.195843
 Sum of electronic and zero-point Energies=           -549.341859
 Sum of electronic and thermal Energies=              -549.328513
 Sum of electronic and thermal Enthalpies=            -549.327568
 Sum of electronic and thermal Free Energies=         -549.382022

                     E (Thermal)             CV                S
                      KCal/Mol        Cal/Mol-Kelvin    Cal/Mol-Kelvin
 Total                  156.471             48.637            114.608
 Electronic               0.000              0.000              0.000
 Translational            0.889              2.981             41.284
 Rotational               0.889              2.981             30.977
 Vibrational            154.694             42.675             42.347
 Vibration     1          0.595              1.980              5.108
 Vibration     2          0.595              1.979              4.981
 Vibration     3          0.598              1.967              4.093
 Vibration     4          0.603              1.952              3.530
 Vibration     5          0.615              1.914              2.815
 Vibration     6          0.633              1.854              2.228
 Vibration     7          0.646              1.814              1.980
 Vibration     8          0.654              1.790              1.852
 Vibration     9          0.657              1.781              1.813
 Vibration    10          0.661              1.768              1.755
 Vibration    11          0.678              1.717              1.555
 Vibration    12          0.690              1.682              1.440
 Vibration    13          0.695              1.666              1.395
 Vibration    14          0.732              1.563              1.139
 Vibration    15          0.753              1.503              1.022
 Vibration    16          0.785              1.421              0.882
 Vibration    17          0.821              1.332              0.758
 Vibration    18          0.905              1.140              0.544
 Vibration    19          0.951              1.046              0.461

                           ! Non-Optimized Parameters !

 1\1\GINC-NODE359\Freq\RB3LYP\6-31G(d)\C7H15N5\VSC10255\09-Dec-2020\0\\
 #N Geom=AllCheck Guess=TCheck SCRF=Check GenChk RB3LYP/6-31G(d) Freq\\
 CID_80487522_JID_2813_neutraal\\0,1\C,0.9436331962,-0.1056760374,0.004
 9240007\C,0.5761493845,-0.4311122577,1.4557452568\C,1.122113802,0.6217
 311674,2.4263881124\C,-0.9473223657,-0.5545002245,1.630899195\N,-1.539
 0073902,-1.6049574421,0.8273326541\C,-1.4530158343,-2.9438087448,0.976
 3760226\N,-1.9731711308,-3.5776084065,-0.0663145147\C,-2.3648600807,-2
 .5393198298,-0.8721378827\N,-2.1219341604,-1.320964905,-0.4040611121\N

 Normal termination of Gaussian 16 at Wed Dec  9 18:10:42 2020.

 ----------------------------------------------------------------------
 # B3LYP/6-311++G(d,p) empiricaldispersion=gd3bj scf=xqc pop=npa geom=c
 heck
 ----------------------------------------------------------------------

 --------------------------------------
 CID_80487522_JID_2813_Energie_neutraal
 --------------------------------------
 Structure from the checkpoint file:  "JID_2813.chk"
 Charge =  0 Multiplicity = 1

 SCF Done:  E(RB3LYP) =  -549.740368755     A.U. after   14 cycles
 Normal termination of Gaussian 16 at Wed Dec  9 18:13:24 2020.

 ----------------------------------------------------------------------
 # B3LYP/6-311++G(d,p) empiricaldispersion=gd3bj scf=xqc pop=npa geom=c
 heck
 ----------------------------------------------------------------------

 ------------------------------------
 CID_80487522_JID_2813_Energie_kation
 ------------------------------------
 Structure from the checkpoint file:  "JID_2813.chk"
 Charge =  1 Multiplicity = 2

 SCF Done:  E(UB3LYP) =  -549.472162046     A.U. after   19 cycles
 Normal termination of Gaussian 16 at Wed Dec  9 18:17:49 2020.
 Gaussian 16:  ES64L-G16RevA.03 25-Dec-2016

 -----------------------------------
 CID_80487522_JID_2813_Energie_anion
 -----------------------------------
 Structure from the checkpoint file:  "JID_2813.chk"
 Charge = -1 Multiplicity = 2

                         Standard orientation:
 ---------------------------------------------------------------------
 Center     Atomic      Atomic             Coordinates (Angstroms)
 Number     Number       Type             X           Y           Z
 ---------------------------------------------------------------------
      1          6           0        1.984227   -1.609756    0.957238
      2          6           0        2.474373   -0.288607    0.357106
      3          6           0        3.964297   -0.347499    0.003039
      4          6           0        1.661201    0.092097   -0.892167
      5          7           0        0.248432    0.276697   -0.628957
      6          6           0       -0.372518    1.276730    0.031714
      7          7           0       -1.654095    0.998175    0.230295
      8          6           0       -1.772213   -0.246123   -0.334139
      9          7           0       -0.662072   -0.750265   -0.859427
     10          7           0       -2.983979   -0.902508   -0.406375
     11          6           0       -3.986692   -0.625413    0.611742
     12          7           0        0.278664    2.409029    0.496814
     13          1           0        2.140930   -2.436995    0.253663
     14          1           0        0.915775   -1.571990    1.186434
     15          1           0        2.530459   -1.841167    1.878599
     16          1           0        2.322067    0.508614    1.097716
     17          1           0        4.156943   -1.121900   -0.750460
     18          1           0        4.324398    0.607843   -0.398059
     19          1           0        4.565481   -0.588013    0.886387
     20          1           0        2.061169    1.014289   -1.335494
     21          1           0        1.728845   -0.690232   -1.653153
     22          1           0       -2.865367   -1.881476   -0.636305
     23          1           0       -4.921313   -1.118146    0.329231
     24          1           0       -3.696928   -0.962008    1.620026
     25          1           0       -4.156820    0.451941    0.653575
     26          1           0       -0.389427    3.121227    0.769070
     27          1           0        0.979080    2.781544   -0.134881
 ---------------------------------------------------------------------

 SCF Done:  E(UB3LYP) =  -549.729108111     A.U. after   32 cycles

 The electronic state is 2-A.
 Alpha  occ. eigenvalues --  -14.27054 -14.22443 -14.21952 -14.20727 -14.18375
 Alpha  occ. eigenvalues --  -10.16099 -10.14045 -10.10528 -10.10265 -10.07441
 Alpha  occ. eigenvalues --  -10.05786 -10.05494  -0.96121  -0.84209  -0.81904
 Alpha  occ. eigenvalues --   -0.77666  -0.71844  -0.68519  -0.60646  -0.58449
 Alpha  occ. eigenvalues --   -0.58368  -0.50578  -0.50036  -0.46397  -0.43808
 Alpha  occ. eigenvalues --   -0.39699  -0.39066  -0.37851  -0.36460  -0.35068
 Alpha  occ. eigenvalues --   -0.34466  -0.33295  -0.31651  -0.30795  -0.29488
 Alpha  occ. eigenvalues --   -0.28665  -0.27666  -0.25565  -0.24229  -0.23504
 Alpha  occ. eigenvalues --   -0.22735  -0.22360  -0.19026  -0.16979  -0.14809
 Alpha  occ. eigenvalues --   -0.09700   0.04536
 Alpha virt. eigenvalues --    0.06242   0.07229   0.08636   0.08848   0.09488
 Alpha virt. eigenvalues --    0.09940   0.10457   0.11494   0.11608   0.12258
 Alpha virt. eigenvalues --    0.12618   0.13464   0.13520   0.14166   0.14690

  Beta  occ. eigenvalues --  -14.27053 -14.22438 -14.21866 -14.20723 -14.18359
  Beta  occ. eigenvalues --  -10.16096 -10.14042 -10.10493 -10.10251 -10.07431
  Beta  occ. eigenvalues --  -10.05749 -10.05478  -0.96110  -0.84190  -0.81818
  Beta  occ. eigenvalues --   -0.77632  -0.71802  -0.68486  -0.60606  -0.58399
  Beta  occ. eigenvalues --   -0.58320  -0.50542  -0.49992  -0.46324  -0.43722
  Beta  occ. eigenvalues --   -0.39666  -0.38988  -0.37822  -0.36410  -0.35027
  Beta  occ. eigenvalues --   -0.34432  -0.33267  -0.31621  -0.30761  -0.29469
  Beta  occ. eigenvalues --   -0.28635  -0.27626  -0.25537  -0.24184  -0.23463
  Beta  occ. eigenvalues --   -0.22696  -0.22325  -0.19003  -0.16948  -0.14776
  Beta  occ. eigenvalues --   -0.09682
  Beta virt. eigenvalues --    0.06366   0.07276   0.08420   0.09042   0.09116
  Beta virt. eigenvalues --    0.09763   0.10449   0.11058   0.11755   0.11928
  Beta virt. eigenvalues --    0.12631   0.12874   0.13539   0.13794   0.14273

 Mulliken charges and spin densities:
               1          2
     1  C    0.295670  -0.862462
     2  C   -1.727330   2.174885
     3  C    0.747587  -1.402571
     4  C    1.480736  -2.171474
     5  N    0.144450  -0.050538
     6  C    0.360538  -0.205111
     7  N   -0.220701  -0.009558
     8  C    0.522437  -0.674544
     9  N   -0.392665   0.185839
    10  N   -0.200023   0.051872
    11  C    0.055767  -0.405663
    12  N   -0.493718   0.137141
    13  H    0.044597   0.084102
    14  H    0.057411   0.118578
    15  H   -0.128456   0.263382
    16  H    0.106163   0.085938
    17  H    0.008855   0.110877
    18  H   -0.415281   0.567775
    19  H   -0.252581   0.394044
    20  H   -0.392232   0.583931
    21  H    0.092679   0.090899
    22  H    0.203208   0.042994
    23  H   -0.079581   0.202762
    24  H   -0.000307   0.134033
    25  H    0.071892   0.100577
    26  H   -0.281086   0.571949
    27  H   -0.608029   0.880343
 Sum of Mulliken charges =  -1.00000   1.00000

 Dipole moment (field-independent basis, Debye):
    X=             -4.5360    Y=             -6.1336    Z=              0.2379  Tot=              7.6323
 Quadrupole moment (field-independent basis, Debye-Ang):
   XX=           -135.9644   YY=           -122.3444   ZZ=           -102.3595
   XY=             -7.9688   XZ=             -0.2727   YZ=              2.3292

 Summary of Natural Population Analysis:

                                       Natural Population
                Natural  -----------------------------------------------
    Atom  No    Charge         Core      Valence    Rydberg      Total
 -----------------------------------------------------------------------
      C    1   -0.28439      0.99965     2.27979    0.00496     3.28439
      C    2   -0.12299      0.99961     2.11382    0.00955     3.12299
      C    3   -0.28458      0.99965     2.27870    0.00623     3.28458
      C    4   -0.08203      0.99959     2.06966    0.01278     3.08203
      N    5   -0.13892      0.99960     2.62534    0.01398     3.63892
      C    6    0.29455      0.99959     1.68922    0.01664     2.70545
      N    7   -0.30795      0.99967     2.79874    0.00954     3.80795
      C    8    0.26475      0.99965     1.71692    0.01869     2.73525
      N    9   -0.20541      0.99970     2.69492    0.01079     3.70541
      N   10   -0.32084      0.99967     2.81113    0.01004     3.82084
      C   11   -0.17593      0.99966     2.16974    0.00654     3.17593
      N   12   -0.39936      0.99971     2.88954    0.01011     3.89936
      H   13    0.09462      0.00000     0.40444    0.00094     0.40538
      H   14    0.10623      0.00000     0.39263    0.00114     0.39377
      H   15    0.09689      0.00000     0.40223    0.00087     0.40311
      H   16    0.10093      0.00000     0.39657    0.00250     0.39907
      H   17    0.09355      0.00000     0.40544    0.00101     0.40645
      H   18    0.10470      0.00000     0.39358    0.00172     0.39530
      H   19    0.10027      0.00000     0.39872    0.00100     0.39973
      H   20    0.10545      0.00000     0.39216    0.00239     0.39455
      H   21    0.10465      0.00000     0.39370    0.00165     0.39535
      H   22    0.18459      0.00000     0.31251    0.00290     0.31541
      H   23    0.08976      0.00000     0.40911    0.00113     0.41024
      H   24    0.08229      0.00000     0.41573    0.00198     0.41771
      H   25    0.10476      0.00000     0.39349    0.00175     0.39524
      H   26    0.19515      0.00000     0.30167    0.00319     0.30485
      H   27    0.19927      0.00000     0.28322    0.01752     0.30073
 =======================================================================
   * Total *   -0.00000     11.99574    33.83272    0.17154    46.00000

 Normal termination of Gaussian 16 at Wed Dec  9 18:26:17 2020.
