 Gaussian 16, Revision A.03,

 -----------------------------------------------------------
 # opt freq B3LYP/6-31G(d) empiricaldispersion=gd3bj scf=xqc
 -----------------------------------------------------------

 ------------------------------
 CID_79370422_JID_4633_neutraal
 ------------------------------
 Symbolic Z-matrix:
 Charge =  0 Multiplicity = 1

 SCF Done:  E(RB3LYP) =  -635.832682340     A.U. after   14 cycles
 SCF Done:  E(RB3LYP) =  -635.837278306     A.U. after   12 cycles
 SCF Done:  E(RB3LYP) =  -635.838660540     A.U. after   12 cycles
 SCF Done:  E(RB3LYP) =  -635.839400929     A.U. after   14 cycles
 SCF Done:  E(RB3LYP) =  -635.840451155     A.U. after   11 cycles
 SCF Done:  E(RB3LYP) =  -635.840560683     A.U. after   10 cycles
 SCF Done:  E(RB3LYP) =  -635.840640851     A.U. after   11 cycles
 SCF Done:  E(RB3LYP) =  -635.840684139     A.U. after   11 cycles
 SCF Done:  E(RB3LYP) =  -635.840743625     A.U. after   11 cycles
 SCF Done:  E(RB3LYP) =  -635.840781781     A.U. after   11 cycles
 SCF Done:  E(RB3LYP) =  -635.842430201     A.U. after   10 cycles
 SCF Done:  E(RB3LYP) =  -635.842429505     A.U. after    9 cycles
 SCF Done:  E(RB3LYP) =  -635.842430627     A.U. after    9 cycles
 SCF Done:  E(RB3LYP) =  -635.842430539     A.U. after    7 cycles
 SCF Done:  E(RB3LYP) =  -635.842430692     A.U. after    7 cycles
 Optimization completed.
    -- Stationary point found.
 Normal termination of Gaussian 16 at Thu Dec 10 10:58:56 2020.

 --------------------------------------------------------------------
 #N Geom=AllCheck Guess=TCheck SCRF=Check GenChk RB3LYP/6-31G(d) Freq
 --------------------------------------------------------------------

 Structure from the checkpoint file:  "JID_4633.chk"
 ------------------------------
 CID_79370422_JID_4633_neutraal
 ------------------------------
 Charge =  0 Multiplicity = 1

 SCF Done:  E(RB3LYP) =  -635.842430692     A.U. after    1 cycles

  Exact polarizability: 143.978   3.681 114.025  -2.131   0.595 108.644
 Approx polarizability: 173.629  11.160 169.349  -2.691   3.464 164.792

                      1                      2                      3
                      A                      A                      A
 Frequencies --     22.6788                34.6769                41.6552
 Red. masses --      4.4124                 9.1176                 2.7776
 Frc consts  --      0.0013                 0.0065                 0.0028
 IR Inten    --      0.2339                 1.6275                 0.1149

                      4                      5                      6
                      A                      A                      A
 Frequencies --     55.8421                80.0833               111.9123
 Red. masses --      3.2911                 2.8944                 2.8511
 Frc consts  --      0.0060                 0.0109                 0.0210
 IR Inten    --      0.0646                 0.4733                 0.1353

                      7                      8                      9
                      A                      A                      A
 Frequencies --    155.8705               177.8025               219.8342
 Red. masses --      2.9975                 2.6236                 3.0967
 Frc consts  --      0.0429                 0.0489                 0.0882
 IR Inten    --      0.5313                 0.2830                 0.2833

                     10                     11                     12
                      A                      A                      A
 Frequencies --    243.2177               269.2709               302.8653
 Red. masses --      1.1492                 2.9695                 1.8981
 Frc consts  --      0.0401                 0.1269                 0.1026
 IR Inten    --      0.4286                 0.3911                 1.0667

                     13                     14                     15
                      A                      A                      A
 Frequencies --    327.7488               373.7869               395.5928
 Red. masses --      3.2273                 2.6083                 2.5202
 Frc consts  --      0.2043                 0.2147                 0.2324
 IR Inten    --      0.6572                 0.3148                 1.2727

                     16                     17                     18
                      A                      A                      A
 Frequencies --    417.0390               426.0425               508.2411
 Red. masses --      2.9921                 4.0940                 2.9496
 Frc consts  --      0.3066                 0.4378                 0.4489
 IR Inten    --      2.0258                 4.2205                12.9385

                     19                     20                     21
                      A                      A                      A
 Frequencies --    588.6382               621.8116               637.5332
 Red. masses --      2.9362                 1.4124                 3.6126
 Frc consts  --      0.5994                 0.3218                 0.8651
 IR Inten    --     27.3247                69.5488                26.8057

                     22                     23                     24
                      A                      A                      A
 Frequencies --    660.3117               754.3954               770.4223
 Red. masses --      3.1571                 2.6150                 1.3986
 Frc consts  --      0.8110                 0.8768                 0.4891
 IR Inten    --      9.8269                29.4924                 8.1536

                     25                     26                     27
                      A                      A                      A
 Frequencies --    786.0274               791.1448               831.1343
 Red. masses --      1.6771                 1.2754                 1.2713
 Frc consts  --      0.6105                 0.4703                 0.5174
 IR Inten    --      2.3863                 3.1003                 2.2778

                     28                     29                     30
                      A                      A                      A
 Frequencies --    836.6426               849.4343               898.2740
 Red. masses --      2.5292                 2.1536                 1.8578
 Frc consts  --      1.0431                 0.9155                 0.8832
 IR Inten    --      9.9151                 7.2191                 5.8509

                     31                     32                     33
                      A                      A                      A
 Frequencies --    927.2969               935.9877               964.4056
 Red. masses --      3.0528                 2.3202                 1.9449
 Frc consts  --      1.5466                 1.1976                 1.0658
 IR Inten    --      4.6711                 2.0520                 1.1377

                     34                     35                     36
                      A                      A                      A
 Frequencies --    980.3324              1025.2165              1038.9729
 Red. masses --      2.1125                 2.2585                 2.5434
 Frc consts  --      1.1962                 1.3986                 1.6176
 IR Inten    --     10.7582                 8.2860                16.9768

                     37                     38                     39
                      A                      A                      A
 Frequencies --   1049.4479              1065.8890              1077.0373
 Red. masses --      2.0642                 1.5123                 1.9415
 Frc consts  --      1.3394                 1.0123                 1.3270
 IR Inten    --      6.2005                 3.9579                20.2729

                     40                     41                     42
                      A                      A                      A
 Frequencies --   1082.1951              1087.7225              1108.3226
 Red. masses --      1.5010                 1.9736                 2.0279
 Frc consts  --      1.0358                 1.3758                 1.4677
 IR Inten    --      5.3740                 1.9474                34.8614

                     43                     44                     45
                      A                      A                      A
 Frequencies --   1134.9372              1145.0624              1148.3386
 Red. masses --      2.1461                 1.5497                 1.3990
 Frc consts  --      1.6287                 1.1972                 1.0869
 IR Inten    --      4.6671                 9.9617                 4.0359

                     46                     47                     48
                      A                      A                      A
 Frequencies --   1184.5242              1206.7618              1211.1852
 Red. masses --      1.7353                 1.9832                 1.4012
 Frc consts  --      1.4345                 1.7016                 1.2111
 IR Inten    --    130.9263                43.9800                 0.6627

                     49                     50                     51
                      A                      A                      A
 Frequencies --   1225.6775              1241.0129              1256.3138
 Red. masses --      1.9287                 1.8577                 1.4160
 Frc consts  --      1.7071                 1.6857                 1.3168
 IR Inten    --     21.1881                10.3458                38.4986

                     52                     53                     54
                      A                      A                      A
 Frequencies --   1272.9691              1295.9080              1307.1584
 Red. masses --      1.5779                 1.4634                 1.3593
 Frc consts  --      1.5065                 1.4480                 1.3684
 IR Inten    --     17.7780                15.0641                11.6543

                     55                     56                     57
                      A                      A                      A
 Frequencies --   1324.7561              1342.3499              1352.1629
 Red. masses --      1.3697                 1.3239                 1.3317
 Frc consts  --      1.4163                 1.4055                 1.4345
 IR Inten    --      2.1966                13.2847                 7.9293

                     58                     59                     60
                      A                      A                      A
 Frequencies --   1360.3541              1382.5575              1393.6229
 Red. masses --      1.2604                 2.7351                 1.2656
 Frc consts  --      1.3742                 3.0803                 1.4483
 IR Inten    --      7.0895                39.6900                 3.7826

                     61                     62                     63
                      A                      A                      A
 Frequencies --   1406.5702              1413.8116              1421.2197
 Red. masses --      1.4023                 1.3534                 1.3532
 Frc consts  --      1.6346                 1.5939                 1.6103
 IR Inten    --      2.9376                23.2221                 2.6507

                     64                     65                     66
                      A                      A                      A
 Frequencies --   1438.0160              1438.9645              1495.1271
 Red. masses --      1.3301                 1.6167                 1.0895
 Frc consts  --      1.6206                 1.9723                 1.4350
 IR Inten    --     20.6894                11.8588                 0.6455

                     67                     68                     69
                      A                      A                      A
 Frequencies --   1508.2349              1522.2632              1522.6570
 Red. masses --      1.0792                 1.0851                 1.1001
 Frc consts  --      1.4465                 1.4815                 1.5027
 IR Inten    --      4.3364                 3.1435                 4.1278

                     70                     71                     72
                      A                      A                      A
 Frequencies --   1524.8436              1534.7936              1538.1910
 Red. masses --      1.0551                 1.0768                 1.3314
 Frc consts  --      1.4454                 1.4945                 1.8560
 IR Inten    --      1.1363                 1.7962                 2.7142

                     73                     74                     75
                      A                      A                      A
 Frequencies --   1551.1407              1838.4967              2927.6200
 Red. masses --      1.1009                 9.4661                 1.0803
 Frc consts  --      1.5606                18.8516                 5.4552
 IR Inten    --      3.1644               286.3718                31.6695

                     76                     77                     78
                      A                      A                      A
 Frequencies --   2947.4023              3035.0975              3045.0369
 Red. masses --      1.0731                 1.0590                 1.0587
 Frc consts  --      5.4926                 5.7476                 5.7838
 IR Inten    --     73.1702                 6.2294                49.6623

                     79                     80                     81
                      A                      A                      A
 Frequencies --   3055.0073              3064.2657              3078.7794
 Red. masses --      1.0369                 1.1007                 1.0859
 Frc consts  --      5.7018                 6.0892                 6.0643
 IR Inten    --     26.8503                 2.6279                19.8508

                     82                     83                     84
                      A                      A                      A
 Frequencies --   3088.7100              3095.2432              3113.0575
 Red. masses --      1.1050                 1.0698                 1.0840
 Frc consts  --      6.2111                 6.0385                 6.1897
 IR Inten    --     50.7623                42.4139                 7.4885

                     85                     86                     87
                      A                      A                      A
 Frequencies --   3123.8244              3132.8650              3138.0225
 Red. masses --      1.1019                 1.1028                 1.0853
 Frc consts  --      6.3353                 6.3771                 6.2969
 IR Inten    --     33.4213                14.2729                28.2976

                     88                     89                     90
                      A                      A                      A
 Frequencies --   3140.2493              3145.8937              3149.2769
 Red. masses --      1.0514                 1.0617                 1.1032
 Frc consts  --      6.1085                 6.1910                 6.4464
 IR Inten    --     22.6471                 9.6093                17.4911

                     91                     92                     93
                      A                      A                      A
 Frequencies --   3214.5162              3228.9122              3687.6847
 Red. masses --      1.1191                 1.1158                 1.0640
 Frc consts  --      6.8132                 6.8544                 8.5254
 IR Inten    --      0.5944                31.5257                49.9121

 - Thermochemistry -
 -------------------
 Temperature   298.150 Kelvin.  Pressure   1.00000 Atm.
 Atom     1 has atomic number  6 and mass  12.00000

 Molecular mass:   197.14158 amu.
 Principal axes and moments of inertia in atomic units:
                           1         2         3
     Eigenvalues --  1299.041816028.597666123.29549
           X            0.99996  -0.00347   0.00819
           Y            0.00283   0.99701   0.07728
           Z           -0.00844  -0.07726   0.99698
 This molecule is an asymmetric top.
 Rotational symmetry number  1.
 Warning -- assumption of classical behavior for rotation
           may cause significant error
 Rotational temperatures (Kelvin)      0.06668     0.01437     0.01414
 Rotational constants (GHZ):           1.38929     0.29936     0.29473
 Zero-point vibrational energy     770898.7 (Joules/Mol)
                                  184.24922 (Kcal/Mol)
 Warning -- explicit consideration of  19 degrees of freedom as
           vibrations may cause significant error
 Vibrational temperatures:     32.63    49.89    59.93    80.34   115.22
          (Kelvin)            161.02   224.26   255.82   316.29   349.94
                              387.42   435.76   471.56   537.80   569.17
                              600.03   612.98   731.25   846.92   894.65
                              917.27   950.04  1085.41  1108.47  1130.92
                             1138.28  1195.82  1203.74  1222.15  1292.42
                             1334.17  1346.68  1387.56  1410.48  1475.06
                             1494.85  1509.92  1533.58  1549.62  1557.04
                             1564.99  1594.63  1632.92  1647.49  1652.20
                             1704.27  1736.26  1742.63  1763.48  1785.54
                             1807.56  1831.52  1864.52  1880.71  1906.03
                             1931.34  1945.46  1957.25  1989.19  2005.11
                             2023.74  2034.16  2044.82  2068.98  2070.35
                             2151.15  2170.01  2190.20  2190.76  2193.91
                             2208.23  2213.11  2231.75  2645.19  4212.19
                             4240.65  4366.83  4381.13  4395.47  4408.79
                             4429.68  4443.96  4453.36  4479.00  4494.49
                             4507.49  4514.91  4518.12  4526.24  4531.11
                             4624.97  4645.68  5305.76

 Zero-point correction=                           0.293620 (Hartree/Particle)
 Thermal correction to Energy=                    0.308245
 Thermal correction to Enthalpy=                  0.309189
 Thermal correction to Gibbs Free Energy=         0.249683
 Sum of electronic and zero-point Energies=           -635.548811
 Sum of electronic and thermal Energies=              -635.534186
 Sum of electronic and thermal Enthalpies=            -635.533241
 Sum of electronic and thermal Free Energies=         -635.592748

                     E (Thermal)             CV                S
                      KCal/Mol        Cal/Mol-Kelvin    Cal/Mol-Kelvin
 Total                  193.427             54.535            125.243
 Electronic               0.000              0.000              0.000
 Translational            0.889              2.981             41.741
 Rotational               0.889              2.981             32.239
 Vibrational            191.649             48.574             51.262
 Vibration     1          0.593              1.985              6.385
 Vibration     2          0.594              1.983              5.542
 Vibration     3          0.594              1.981              5.179
 Vibration     4          0.596              1.975              4.599
 Vibration     5          0.600              1.963              3.889
 Vibration     6          0.607              1.940              3.235
 Vibration     7          0.620              1.896              2.599
 Vibration     8          0.628              1.870              2.351
 Vibration     9          0.647              1.811              1.960
 Vibration    10          0.659              1.774              1.779
 Vibration    11          0.674              1.730              1.601
 Vibration    12          0.694              1.668              1.401
 Vibration    13          0.711              1.620              1.271
 Vibration    14          0.745              1.526              1.064
 Vibration    15          0.762              1.480              0.979
 Vibration    16          0.780              1.433              0.902
 Vibration    17          0.788              1.414              0.872
 Vibration    18          0.863              1.232              0.638
 Vibration    19          0.946              1.056              0.470

 Optimization completed.
    -- Stationary point found.
 Normal termination of Gaussian 16 at Thu Dec 10 11:09:49 2020.

 ----------------------------------------------------------------------
 # B3LYP/6-311++G(d,p) empiricaldispersion=gd3bj scf=xqc pop=npa geom=c
 heck
 ----------------------------------------------------------------------

 --------------------------------------
 CID_79370422_JID_4633_Energie_neutraal
 --------------------------------------
 Structure from the checkpoint file:  "JID_4633.chk"
 Charge =  0 Multiplicity = 1

 SCF Done:  E(RB3LYP) =  -636.030330755     A.U. after   14 cycles
 Normal termination of Gaussian 16 at Thu Dec 10 11:14:51 2020.

 ----------------------------------------------------------------------
 # B3LYP/6-311++G(d,p) empiricaldispersion=gd3bj scf=xqc pop=npa geom=c
 heck
 ----------------------------------------------------------------------

 ------------------------------------
 CID_79370422_JID_4633_Energie_kation
 ------------------------------------
 Structure from the checkpoint file:  "JID_4633.chk"
 Charge =  1 Multiplicity = 2

 SCF Done:  E(UB3LYP) =  -635.740933999     A.U. after   18 cycles
 Normal termination of Gaussian 16 at Thu Dec 10 11:23:45 2020.
 Gaussian 16:  ES64L-G16RevA.03 25-Dec-2016

 ----------------------------------------------------------------------
 # B3LYP/6-311++G(d,p) empiricaldispersion=gd3bj scf=xqc pop=npa geom=c
 heck
 ----------------------------------------------------------------------

 -----------------------------------
 CID_79370422_JID_4633_Energie_anion
 -----------------------------------
 Structure from the checkpoint file:  "JID_4633.chk"
 Charge = -1 Multiplicity = 2

                         Standard orientation:
 ---------------------------------------------------------------------
 Center     Atomic      Atomic             Coordinates (Angstroms)
 Number     Number       Type             X           Y           Z
 ---------------------------------------------------------------------
      1          6           0        0.998514    1.982707    0.962430
      2          6           0        0.927410    0.581097    0.372369
      3          6           0        2.261428   -0.212274    0.515140
      4          6           0        1.821397   -1.697635    0.628238
      5          6           0        0.284282   -1.644123    0.583308
      6          7           0       -0.019461   -0.298113    1.056789
      7          6           0       -1.424946    0.088929    1.028854
      8          6           0       -2.080583    0.254367   -0.355394
      9          6           0       -3.552067    0.588485   -0.234187
     10          6           0       -4.515158    0.232706   -1.337793
     11          6           0       -4.558606   -0.518076   -0.027777
     12          6           0        3.185637    0.136289   -0.623000
     13          8           0        4.046044    0.989899   -0.586777
     14          8           0        2.915697   -0.564759   -1.756585
     15          1           0        1.147339    1.925984    2.046188
     16          1           0        0.082717    2.550938    0.767651
     17          1           0        1.837118    2.531454    0.521811
     18          1           0        0.694063    0.657535   -0.707222
     19          1           0        2.762534    0.117099    1.427959
     20          1           0        2.167050   -2.107154    1.580865
     21          1           0        2.230206   -2.313867   -0.174326
     22          1           0       -0.192923   -2.390518    1.227900
     23          1           0       -0.064575   -1.822704   -0.450693
     24          1           0       -1.982021   -0.667425    1.595488
     25          1           0       -1.531019    1.027631    1.586891
     26          1           0       -1.568775    1.042440   -0.923714
     27          1           0       -1.968240   -0.670106   -0.936652
     28          1           0       -3.758528    1.518900    0.294222
     29          1           0       -5.323932    0.921940   -1.563964
     30          1           0       -4.117822   -0.284760   -2.207455
     31          1           0       -4.187687   -1.540402   -0.017367
     32          1           0       -5.397557   -0.344883    0.640213
     33          1           0        3.530508   -0.221252   -2.431543
 ---------------------------------------------------------------------

 SCF Done:  E(UB3LYP) =  -636.015834804     A.U. after   33 cycles
 SCF Done:  E(UB3LYP) =  -636.015834803     a.u. after    1 cycles

 The electronic state is 2-A.
 Alpha  occ. eigenvalues --  -19.07217 -19.02183 -14.21092 -10.21176 -10.11508
 Alpha  occ. eigenvalues --  -10.09966 -10.09831 -10.09728 -10.08393 -10.08086
 Alpha  occ. eigenvalues --  -10.07645 -10.07601 -10.07306 -10.07083  -1.01401
 Alpha  occ. eigenvalues --   -0.92521  -0.84821  -0.76779  -0.71515  -0.67300
 Alpha  occ. eigenvalues --   -0.64874  -0.59798  -0.55584  -0.53464  -0.50774
 Alpha  occ. eigenvalues --   -0.49380  -0.48093  -0.46403  -0.41602  -0.40338
 Alpha  occ. eigenvalues --   -0.39932  -0.38180  -0.37894  -0.37095  -0.35610
 Alpha  occ. eigenvalues --   -0.34911  -0.34275  -0.32259  -0.31422  -0.30063
 Alpha  occ. eigenvalues --   -0.28997  -0.27960  -0.27608  -0.27119  -0.26755
 Alpha  occ. eigenvalues --   -0.25589  -0.24818  -0.24520  -0.23793  -0.22817
 Alpha  occ. eigenvalues --   -0.20270  -0.19375  -0.18675  -0.12425   0.04312
 Alpha virt. eigenvalues --    0.05811   0.06722   0.07137   0.08004   0.08198
 Alpha virt. eigenvalues --    0.08552   0.09005   0.09941   0.10359   0.10491
 Alpha virt. eigenvalues --    0.11080   0.11555   0.12107   0.12495   0.13487

  Beta  occ. eigenvalues --  -19.07158 -19.02169 -14.21087 -10.21173 -10.11501
  Beta  occ. eigenvalues --  -10.09953 -10.09822 -10.09718 -10.08380 -10.08072
  Beta  occ. eigenvalues --  -10.07626 -10.07580 -10.07295 -10.07070  -1.01330
  Beta  occ. eigenvalues --   -0.92460  -0.84807  -0.76753  -0.71489  -0.67280
  Beta  occ. eigenvalues --   -0.64847  -0.59759  -0.55548  -0.53394  -0.50709
  Beta  occ. eigenvalues --   -0.49307  -0.48050  -0.46364  -0.41563  -0.40287
  Beta  occ. eigenvalues --   -0.39901  -0.38153  -0.37866  -0.37060  -0.35578
  Beta  occ. eigenvalues --   -0.34886  -0.34244  -0.32232  -0.31396  -0.30026
  Beta  occ. eigenvalues --   -0.28977  -0.27937  -0.27577  -0.27090  -0.26723
  Beta  occ. eigenvalues --   -0.25558  -0.24790  -0.24499  -0.23763  -0.22786
  Beta  occ. eigenvalues --   -0.20242  -0.19350  -0.18623  -0.12396
  Beta virt. eigenvalues --    0.06433   0.07047   0.07399   0.07528   0.08448
  Beta virt. eigenvalues --    0.08633   0.08683   0.09251   0.10349   0.10523
  Beta virt. eigenvalues --    0.10799   0.11412   0.11717   0.12416   0.12573

 Mulliken charges and spin densities:
               1          2
     1  C    0.291447  -0.906428
     2  C   -0.487595  -0.035458
     3  C    0.349232   0.349260
     4  C    0.532638  -1.362616
     5  C   -0.340559   0.243062
     6  N    0.311191   0.038288
     7  C   -1.007546   0.482099
     8  C    2.390914  -2.741755
     9  C   -2.717572   3.257876
    10  C    0.883188  -1.351949
    11  C    0.699725  -1.240174
    12  C    0.204096  -0.661000
    13  O   -0.269396   0.004662
    14  O   -0.184504   0.041181
    15  H    0.037314   0.110780
    16  H    0.034934   0.109354
    17  H    0.122616   0.041711
    18  H   -0.050518   0.255458
    19  H    0.042016   0.233933
    20  H    0.111048   0.026634
    21  H   -0.188616   0.397476
    22  H   -0.233848   0.398744
    23  H    0.247723  -0.148191
    24  H    0.001041   0.162416
    25  H    0.086316   0.063213
    26  H    0.065121   0.070041
    27  H   -0.050845   0.172313
    28  H   -0.676784   0.917997
    29  H   -0.252868   0.399737
    30  H   -0.092853   0.229522
    31  H   -0.126337   0.257983
    32  H   -0.242699   0.388056
    33  H   -0.488018   0.795772
 Sum of Mulliken charges =  -1.00000   1.00000

 Dipole moment (field-independent basis, Debye):
    X=              1.5780    Y=             -0.7262    Z=              3.4616  Tot=              3.8730
 Quadrupole moment (field-independent basis, Debye-Ang):
   XX=           -194.3851   YY=           -122.0124   ZZ=           -127.4988
   XY=              3.5969   XZ=             12.9507   YZ=             -1.2005

 Summary of Natural Population Analysis:

                                       Natural Population
                Natural  -----------------------------------------------
    Atom  No    Charge         Core      Valence    Rydberg      Total
 -----------------------------------------------------------------------
      C    1   -0.29032      0.99964     2.28551    0.00518     3.29032
      C    2    0.00180      0.99958     1.98537    0.01325     2.99820
      C    3   -0.15502      0.99952     2.14242    0.01308     3.15502
      C    4   -0.18968      0.99962     2.18125    0.00881     3.18968
      C    5   -0.08319      0.99962     2.07275    0.01081     3.08319
      N    6   -0.28179      0.99970     2.76971    0.01238     3.78179
      C    7   -0.07888      0.99961     2.06952    0.00975     3.07888
      C    8   -0.19949      0.99960     2.19304    0.00685     3.19949
      C    9   -0.11578      0.99960     2.10469    0.01149     3.11578
      C   10   -0.19710      0.99962     2.18963    0.00785     3.19710
      C   11   -0.20039      0.99962     2.19132    0.00946     3.20039
      C   12    0.41140      0.99966     1.56302    0.02592     2.58860
      O   13   -0.30812      0.99987     3.30208    0.00617     4.30812
      O   14   -0.34600      0.99988     3.33910    0.00703     4.34600
      H   15    0.10026      0.00000     0.39852    0.00122     0.39974
      H   16    0.10129      0.00000     0.39776    0.00094     0.39871
      H   17    0.10749      0.00000     0.39168    0.00084     0.39251
      H   18    0.08576      0.00000     0.41163    0.00261     0.41424
      H   19    0.11073      0.00000     0.38768    0.00159     0.38927
      H   20    0.09937      0.00000     0.39963    0.00100     0.40063
      H   21    0.10924      0.00000     0.38931    0.00146     0.39076
      H   22    0.09609      0.00000     0.40262    0.00129     0.40391
      H   23    0.08264      0.00000     0.41568    0.00168     0.41736
      H   24    0.09600      0.00000     0.40255    0.00145     0.40400
      H   25    0.09394      0.00000     0.40450    0.00156     0.40606
      H   26    0.09855      0.00000     0.40008    0.00137     0.40145
      H   27    0.09665      0.00000     0.40152    0.00184     0.40335
      H   28    0.10272      0.00000     0.39567    0.00161     0.39728
      H   29    0.10297      0.00000     0.39576    0.00127     0.39703
      H   30    0.09984      0.00000     0.39916    0.00100     0.40016
      H   31    0.09974      0.00000     0.39922    0.00104     0.40026
      H   32    0.10351      0.00000     0.39509    0.00140     0.39649
      H   33    0.24578      0.00000     0.23276    0.02147     0.25422
 =======================================================================
   * Total *   -0.00000     13.99513    39.81021    0.19466    54.00000

 Normal termination of Gaussian 16 at Thu Dec 10 11:40:04 2020.
