 Gaussian 16, Revision A.03,

 -----------------------------------------------------------
 # opt freq B3LYP/6-31G(d) empiricaldispersion=gd3bj scf=xqc
 -----------------------------------------------------------

 -----------------------------
 CID_13674260_JID_507_neutraal
 -----------------------------
 Symbolic Z-matrix:
 Charge =  0 Multiplicity = 1

 SCF Done:  E(RB3LYP) =  -465.000014853     A.U. after   14 cycles
 SCF Done:  E(RB3LYP) =  -465.002615528     A.U. after   12 cycles
 SCF Done:  E(RB3LYP) =  -465.002718812     A.U. after   12 cycles
 SCF Done:  E(RB3LYP) =  -465.002834761     A.U. after   12 cycles
 SCF Done:  E(RB3LYP) =  -465.002934845     A.U. after   10 cycles
 SCF Done:  E(RB3LYP) =  -465.002962745     A.U. after    9 cycles
 SCF Done:  E(RB3LYP) =  -465.002969919     A.U. after   10 cycles
 SCF Done:  E(RB3LYP) =  -465.002971112     A.U. after    7 cycles
 SCF Done:  E(RB3LYP) =  -465.002971291     A.U. after    7 cycles
 SCF Done:  E(RB3LYP) =  -465.002971416     A.U. after    7 cycles
 SCF Done:  E(RB3LYP) =  -465.002971457     A.U. after    7 cycles
 SCF Done:  E(RB3LYP) =  -465.002971482     A.U. after    6 cycles
 Optimization completed.
    -- Stationary point found.

 1\1\GINC-NODE377\FOpt\RB3LYP\6-31G(d)\C8H16O2\VSC10255\08-Dec-2020\0\\
 # opt freq B3LYP/6-31G(d) empiricaldispersion=gd3bj scf=xqc\\CID_13674
 260_JID_507_neutraal\\0,1\C,1.0954328173,0.0459761555,0.0727368725\C,0
 .640809343,-1.2161996403,-0.6648172677\C,0.9756652449,-2.5440085549,0.
 0366609947\C,0.4299068169,-2.5822884198,1.4665187328\C,0.4566190963,-3
 .7487381809,-0.7730889307\C,1.0582832904,-3.9135368206,-2.1710164957\O
 ,2.4482394777,-2.5392139491,0.0625569028\C,3.1493042219,-3.5552286721,
 0.6022594708\O,2.6751848238,-4.5520876585,1.1051583496\C,4.6320923587,

 Normal termination of Gaussian 16 at Tue Dec  8 12:17:06 2020.

 --------------------------------------------------------------------
 #N Geom=AllCheck Guess=TCheck SCRF=Check GenChk RB3LYP/6-31G(d) Freq
 --------------------------------------------------------------------

 Structure from the checkpoint file:  "JID_507.chk"
 -----------------------------
 CID_13674260_JID_507_neutraal
 -----------------------------
 Charge =  0 Multiplicity = 1

 SCF Done:  E(RB3LYP) =  -465.002971482     A.U. after    1 cycles

  Exact polarizability:  96.611   0.232  87.136   0.709   2.717  82.901
 Approx polarizability: 127.214  -1.017 115.930  -4.386   9.703 122.564

                      1                      2                      3
                      A                      A                      A
 Frequencies --     47.8867                56.2863                88.8507
 Red. masses --      2.1221                 1.6474                 1.7147
 Frc consts  --      0.0029                 0.0031                 0.0080
 IR Inten    --      1.7881                 1.2270                 0.5281

                      4                      5                      6
                      A                      A                      A
 Frequencies --     98.0943               126.5200               162.7382
 Red. masses --      2.5164                 2.1949                 2.0931
 Frc consts  --      0.0143                 0.0207                 0.0327
 IR Inten    --      1.0075                 0.0197                 1.9639

                      7                      8                      9
                      A                      A                      A
 Frequencies --    209.0672               227.1957               239.3390
 Red. masses --      1.4468                 1.2773                 2.3400
 Frc consts  --      0.0373                 0.0388                 0.0790
 IR Inten    --      1.1637                 0.0846                 3.7835

                     10                     11                     12
                      A                      A                      A
 Frequencies --    255.7946               312.0949               333.6422
 Red. masses --      1.5525                 1.6892                 2.5571
 Frc consts  --      0.0598                 0.0969                 0.1677
 IR Inten    --      1.5817                 0.4126                 2.5395

                     13                     14                     15
                      A                      A                      A
 Frequencies --    345.3789               375.2567               449.6689
 Red. masses --      2.8085                 2.7275                 2.6138
 Frc consts  --      0.1974                 0.2263                 0.3114
 IR Inten    --      1.1499                 2.4605                 3.7283

                     16                     17                     18
                      A                      A                      A
 Frequencies --    464.7381               544.0325               609.4318
 Red. masses --      2.7540                 2.9269                 2.9133
 Frc consts  --      0.3505                 0.5104                 0.6375
 IR Inten    --      0.6713                 0.9923                 7.8812

                     19                     20                     21
                      A                      A                      A
 Frequencies --    631.8978               737.9101               786.0772
 Red. masses --      3.6161                 2.8721                 1.4200
 Frc consts  --      0.8507                 0.9214                 0.5170
 IR Inten    --      3.8242                 3.7496                 0.8602

                     22                     23                     24
                      A                      A                      A
 Frequencies --    792.1042               865.6247               912.9017
 Red. masses --      1.3715                 1.9328                 1.9495
 Frc consts  --      0.5070                 0.8533                 0.9573
 IR Inten    --      2.3571                25.1355                 3.7654

                     25                     26                     27
                      A                      A                      A
 Frequencies --    960.8338               999.0225              1024.3284
 Red. masses --      3.4117                 1.7929                 1.6333
 Frc consts  --      1.8557                 1.0543                 1.0097
 IR Inten    --      9.0827                 6.3543                 5.0188

                     28                     29                     30
                      A                      A                      A
 Frequencies --   1025.9988              1048.3189              1063.2547
 Red. masses --      1.7922                 1.7359                 1.6091
 Frc consts  --      1.1115                 1.1240                 1.0718
 IR Inten    --      4.1083                65.1111                10.9805

                     31                     32                     33
                      A                      A                      A
 Frequencies --   1074.1716              1103.0775              1110.1906
 Red. masses --      1.7574                 1.7106                 1.9354
 Frc consts  --      1.1947                 1.2264                 1.4055
 IR Inten    --      7.0099                 6.4010                 6.0307

                     34                     35                     36
                      A                      A                      A
 Frequencies --   1203.8093              1220.7225              1256.3801
 Red. masses --      2.2141                 2.5176                 2.1866
 Frc consts  --      1.8904                 2.2104                 2.0335
 IR Inten    --     97.3832                25.9297                35.5608

                     37                     38                     39
                      A                      A                      A
 Frequencies --   1295.9472              1332.5149              1352.3120
 Red. masses --      3.4415                 1.2831                 1.2960
 Frc consts  --      3.4054                 1.3424                 1.3964
 IR Inten    --    319.6565                 1.5784                 0.5622

                     40                     41                     42
                      A                      A                      A
 Frequencies --   1400.8025              1405.6338              1421.2445
 Red. masses --      1.5183                 1.4667                 1.3634
 Frc consts  --      1.7554                 1.7074                 1.6226
 IR Inten    --      1.5195                 1.7516                52.9830

                     43                     44                     45
                      A                      A                      A
 Frequencies --   1435.0061              1438.5063              1445.6832
 Red. masses --      1.2820                 1.2374                 1.2579
 Frc consts  --      1.5555                 1.5086                 1.5490
 IR Inten    --     23.2368                 2.8329                 2.7720

                     46                     47                     48
                      A                      A                      A
 Frequencies --   1500.5810              1505.6712              1506.8603
 Red. masses --      1.0528                 1.0473                 1.0704
 Frc consts  --      1.3968                 1.3989                 1.4320
 IR Inten    --     12.6770                 8.2751                 0.1781

                     49                     50                     51
                      A                      A                      A
 Frequencies --   1513.8769              1519.7140              1530.4862
 Red. masses --      1.0684                 1.0670                 1.0449
 Frc consts  --      1.4426                 1.4519                 1.4421
 IR Inten    --      0.5373                 9.1199                 8.7438

                     52                     53                     54
                      A                      A                      A
 Frequencies --   1532.2243              1537.6521              1539.8952
 Red. masses --      1.0490                 1.0535                 1.0543
 Frc consts  --      1.4510                 1.4676                 1.4730
 IR Inten    --     10.6589                 5.3849                 7.6583

                     55                     56                     57
                      A                      A                      A
 Frequencies --   1550.7035              1819.3039              3047.6214
 Red. masses --      1.0512                10.5820                 1.0684
 Frc consts  --      1.4894                20.6361                 5.8466
 IR Inten    --      1.2107               208.6941                 7.2734

                     58                     59                     60
                      A                      A                      A
 Frequencies --   3054.2313              3059.0600              3059.8257
 Red. masses --      1.0621                 1.0374                 1.0358
 Frc consts  --      5.8376                 5.7200                 5.7137
 IR Inten    --     25.6963                27.8468                21.8953

                     61                     62                     63
                      A                      A                      A
 Frequencies --   3068.1127              3071.0471              3095.8634
 Red. masses --      1.0424                 1.0368                 1.0993
 Frc consts  --      5.7812                 5.7615                 6.2076
 IR Inten    --     25.2701                 2.5652                16.1537

                     64                     65                     66
                      A                      A                      A
 Frequencies --   3117.0530              3122.8177              3125.2975
 Red. masses --      1.0989                 1.1010                 1.1002
 Frc consts  --      6.2907                 6.3261                 6.3317
 IR Inten    --      5.1337                36.1866                29.4897

                     67                     68                     69
                      A                      A                      A
 Frequencies --   3133.3840              3133.9616              3137.6559
 Red. masses --      1.1005                 1.0993                 1.1014
 Frc consts  --      6.3657                 6.3614                 6.3884
 IR Inten    --      4.5069                35.7452                40.9673

                     70                     71                     72
                      A                      A                      A
 Frequencies --   3139.2966              3174.0099              3182.2435
 Red. masses --      1.0987                 1.1002                 1.1034
 Frc consts  --      6.3798                 6.5305                 6.5834
 IR Inten    --     26.6406                 8.5863                 9.4956

 - Thermochemistry -
 -------------------
 Temperature   298.150 Kelvin.  Pressure   1.00000 Atm.
 Atom     1 has atomic number  6 and mass  12.00000

 Molecular mass:   144.11503 amu.
 Principal axes and moments of inertia in atomic units:
                           1         2         3
     Eigenvalues --  1180.841061734.328032069.70810
           X            0.99966   0.00097   0.02599
           Y           -0.00054   0.99987  -0.01632
           Z           -0.02601   0.01630   0.99953
 This molecule is an asymmetric top.
 Rotational symmetry number  1.
 Warning -- assumption of classical behavior for rotation
           may cause significant error
 Rotational temperatures (Kelvin)      0.07335     0.04994     0.04185
 Rotational constants (GHZ):           1.52835     1.04060     0.87198
 Zero-point vibrational energy     610506.6 (Joules/Mol)
                                  145.91459 (Kcal/Mol)
 Warning -- explicit consideration of  18 degrees of freedom as
           vibrations may cause significant error
 Vibrational temperatures:     68.90    80.98   127.84   141.14   182.03
          (Kelvin)            234.14   300.80   326.88   344.36   368.03
                              449.04   480.04   496.92   539.91   646.97
                              668.65   782.74   876.84   909.16  1061.69
                             1130.99  1139.66  1245.44  1313.46  1382.43
                             1437.37  1473.78  1476.18  1508.30  1529.79
                             1545.49  1587.08  1597.32  1732.01  1756.35
                             1807.65  1864.58  1917.19  1945.68  2015.44
                             2022.39  2044.85  2064.65  2069.69  2080.02
                             2159.00  2166.33  2168.04  2178.13  2186.53
                             2202.03  2204.53  2212.34  2215.57  2231.12
                             2617.57  4384.85  4394.36  4401.31  4402.41
                             4414.33  4418.55  4454.26  4484.74  4493.04
                             4496.61  4508.24  4509.07  4514.39  4516.75
                             4566.69  4578.54

 Zero-point correction=                           0.232530 (Hartree/Particle)
 Thermal correction to Energy=                    0.245182
 Thermal correction to Enthalpy=                  0.246126
 Thermal correction to Gibbs Free Energy=         0.193796
 Sum of electronic and zero-point Energies=           -464.770442
 Sum of electronic and thermal Energies=              -464.757790
 Sum of electronic and thermal Enthalpies=            -464.756846
 Sum of electronic and thermal Free Energies=         -464.809175

                     E (Thermal)             CV                S
                      KCal/Mol        Cal/Mol-Kelvin    Cal/Mol-Kelvin
 Total                  153.854             45.376            110.137
 Electronic               0.000              0.000              0.000
 Translational            0.889              2.981             40.807
 Rotational               0.889              2.981             29.829
 Vibrational            152.076             39.415             39.501
 Vibration     1          0.595              1.978              4.903
 Vibration     2          0.596              1.975              4.583
 Vibration     3          0.602              1.957              3.685
 Vibration     4          0.604              1.951              3.492
 Vibration     5          0.611              1.927              2.998
 Vibration     6          0.623              1.888              2.518
 Vibration     7          0.642              1.827              2.052
 Vibration     8          0.651              1.800              1.901
 Vibration     9          0.657              1.780              1.808
 Vibration    10          0.666              1.753              1.690
 Vibration    11          0.700              1.651              1.351
 Vibration    12          0.715              1.608              1.242
 Vibration    13          0.724              1.585              1.187
 Vibration    14          0.746              1.523              1.058
 Vibration    15          0.809              1.362              0.797
 Vibration    16          0.822              1.328              0.752
 Vibration    17          0.899              1.153              0.557
 Vibration    18          0.968              1.012              0.434

                           ! Non-Optimized Parameters !

 1\1\GINC-NODE377\Freq\RB3LYP\6-31G(d)\C8H16O2\VSC10255\08-Dec-2020\0\\
 #N Geom=AllCheck Guess=TCheck SCRF=Check GenChk RB3LYP/6-31G(d) Freq\\
 CID_13674260_JID_507_neutraal\\0,1\C,1.0954328173,0.0459761555,0.07273
 68725\C,0.640809343,-1.2161996403,-0.6648172677\C,0.9756652449,-2.5440
 085549,0.0366609947\C,0.4299068169,-2.5822884198,1.4665187328\C,0.4566
 190963,-3.7487381809,-0.7730889307\C,1.0582832904,-3.9135368206,-2.171
 0164957\O,2.4482394777,-2.5392139491,0.0625569028\C,3.1493042219,-3.55
 52286721,0.6022594708\O,2.6751848238,-4.5520876585,1.1051583496\C,4.63

 Normal termination of Gaussian 16 at Tue Dec  8 12:24:58 2020.

 ----------------------------------------------------------------------
 # B3LYP/6-311++G(d,p) empiricaldispersion=gd3bj scf=xqc pop=npa geom=c
 heck
 ----------------------------------------------------------------------

 -------------------------------------
 CID_13674260_JID_507_Energie_neutraal
 -------------------------------------
 Structure from the checkpoint file:  "JID_507.chk"
 Charge =  0 Multiplicity = 1

 SCF Done:  E(RB3LYP) =  -465.140135466     A.U. after   13 cycles
 Normal termination of Gaussian 16 at Tue Dec  8 12:28:17 2020.

 ----------------------------------------------------------------------
 # B3LYP/6-311++G(d,p) empiricaldispersion=gd3bj scf=xqc pop=npa geom=c
 heck
 ----------------------------------------------------------------------

 -----------------------------------
 CID_13674260_JID_507_Energie_kation
 -----------------------------------
 Structure from the checkpoint file:  "JID_507.chk"
 Charge =  1 Multiplicity = 2

 SCF Done:  E(UB3LYP) =  -464.789054049     A.U. after   22 cycles
 Normal termination of Gaussian 16 at Tue Dec  8 12:39:38 2020.
 Gaussian 16:  ES64L-G16RevA.03 25-Dec-2016

 ----------------------------------
 CID_13674260_JID_507_Energie_anion
 ----------------------------------
 Structure from the checkpoint file:  "JID_507.chk"
 Charge = -1 Multiplicity = 2

                         Standard orientation:
 ---------------------------------------------------------------------
 Center     Atomic      Atomic             Coordinates (Angstroms)
 Number     Number       Type             X           Y           Z
 ---------------------------------------------------------------------
      1          6           0        2.197617   -1.766075   -0.560852
      2          6           0        1.922708   -0.260956   -0.507947
      3          6           0        0.704877    0.155573    0.335064
      4          6           0        0.796137   -0.381771    1.765709
      5          6           0        0.529420    1.687120    0.342434
      6          6           0        0.264158    2.328127   -1.022156
      7          8           0       -0.417507   -0.486138   -0.370364
      8          6           0       -1.688287   -0.357518    0.058159
      9          8           0       -2.045841    0.275778    1.028991
     10          6           0       -2.620126   -1.121756   -0.857015
     11          1           0        2.492132   -2.164977    0.415140
     12          1           0        3.010902   -1.979524   -1.262714
     13          1           0        1.309224   -2.309442   -0.896776
     14          1           0        2.797661    0.266513   -0.106829
     15          1           0        1.772824    0.107983   -1.527965
     16          1           0        1.737127   -0.051550    2.219936
     17          1           0       -0.034738   -0.017702    2.370840
     18          1           0        0.779529   -1.475057    1.773890
     19          1           0       -0.289243    1.932961    1.022386
     20          1           0        1.444428    2.109447    0.778401
     21          1           0       -0.625702    1.899754   -1.494749
     22          1           0        0.093015    3.403406   -0.905515
     23          1           0        1.103510    2.201142   -1.713477
     24          1           0       -2.534922   -0.743200   -1.880759
     25          1           0       -2.341940   -2.180415   -0.877095
     26          1           0       -3.646037   -1.012931   -0.504116
 ---------------------------------------------------------------------

 SCF Done:  E(UB3LYP) =  -465.123445492     A.U. after   31 cycles

 The electronic state is 2-A.
 Alpha  occ. eigenvalues --  -19.05486 -19.00579 -10.19968 -10.13559 -10.07187
 Alpha  occ. eigenvalues --  -10.06273 -10.06136 -10.05580 -10.05556 -10.04980
 Alpha  occ. eigenvalues --   -0.99606  -0.91548  -0.72178  -0.65088  -0.64370
 Alpha  occ. eigenvalues --   -0.61726  -0.55598  -0.51805  -0.50247  -0.40836
 Alpha  occ. eigenvalues --   -0.38864  -0.37919  -0.37136  -0.35034  -0.34197
 Alpha  occ. eigenvalues --   -0.32781  -0.32342  -0.30914  -0.30162  -0.28235
 Alpha  occ. eigenvalues --   -0.27922  -0.27260  -0.26376  -0.25308  -0.24332
 Alpha  occ. eigenvalues --   -0.23737  -0.22762  -0.21701  -0.19588  -0.16900
 Alpha  occ. eigenvalues --    0.04728
 Alpha virt. eigenvalues --    0.07035   0.07429   0.08280   0.09424   0.09863
 Alpha virt. eigenvalues --    0.10259   0.10535   0.11041   0.11246   0.12569
 Alpha virt. eigenvalues --    0.12876   0.13240   0.13579   0.14130   0.14582

  Beta  occ. eigenvalues --  -19.05470 -19.00574 -10.19966 -10.13556 -10.07134
  Beta  occ. eigenvalues --  -10.06259 -10.06111 -10.05558 -10.05528 -10.04946
  Beta  occ. eigenvalues --   -0.99588  -0.91532  -0.72152  -0.65051  -0.64308
  Beta  occ. eigenvalues --   -0.61681  -0.55542  -0.51745  -0.50171  -0.40795
  Beta  occ. eigenvalues --   -0.38825  -0.37883  -0.37115  -0.35004  -0.34166
  Beta  occ. eigenvalues --   -0.32739  -0.32302  -0.30882  -0.30117  -0.28203
  Beta  occ. eigenvalues --   -0.27887  -0.27215  -0.26326  -0.25272  -0.24287
  Beta  occ. eigenvalues --   -0.23708  -0.22735  -0.21674  -0.19570  -0.16885
  Beta virt. eigenvalues --    0.07062   0.08114   0.08151   0.08926   0.09992
  Beta virt. eigenvalues --    0.10220   0.10733   0.11146   0.11396   0.11711
  Beta virt. eigenvalues --    0.13003   0.13414   0.13734   0.13941   0.14402

 Mulliken charges and spin densities:
               1          2
     1  C    1.725576  -2.315387
     2  C   -2.042783   1.937661
     3  C    0.339991  -0.477871
     4  C    0.644862  -1.117845
     5  C   -0.944213   0.766968
     6  C    0.991611  -1.551316
     7  O    0.101716   0.029941
     8  C   -1.335179   1.538083
     9  O   -0.252904   0.008701
    10  C    2.440475  -3.009421
    11  H   -0.222697   0.357812
    12  H   -0.579880   0.732153
    13  H   -0.065635   0.238048
    14  H   -0.260123   0.417473
    15  H    0.167512  -0.032541
    16  H   -0.284638   0.453904
    17  H    0.061146   0.116042
    18  H    0.113306   0.035763
    19  H    0.051864   0.133236
    20  H   -0.146438   0.302064
    21  H    0.025279   0.128530
    22  H   -0.237228   0.374941
    23  H   -0.351392   0.492929
    24  H   -0.447534   0.616915
    25  H   -0.399441   0.566939
    26  H   -0.093252   0.256275
 Sum of Mulliken charges =  -1.00000   1.00000

 Dipole moment (field-independent basis, Debye):
    X=             -1.4568    Y=              1.2486    Z=              2.2607  Tot=              2.9652
 Quadrupole moment (field-independent basis, Debye-Ang):
   XX=           -121.6030   YY=           -107.4602   ZZ=           -101.1673
   XY=             -0.3783   XZ=             -1.6687   YZ=             -2.8064

 Summary of Natural Population Analysis:

                                       Natural Population
                Natural  -----------------------------------------------
    Atom  No    Charge         Core      Valence    Rydberg      Total
 -----------------------------------------------------------------------
      C    1   -0.28688      0.99966     2.28199    0.00523     3.28688
      C    2   -0.19759      0.99957     2.18770    0.01032     3.19759
      C    3    0.14365      0.99949     1.84077    0.01608     2.85635
      C    4   -0.30343      0.99960     2.29688    0.00696     3.30343
      C    5   -0.20586      0.99957     2.19698    0.00931     3.20586
      C    6   -0.28605      0.99966     2.28102    0.00536     3.28605
      O    7   -0.29779      0.99985     3.28599    0.01196     4.29779
      C    8    0.41165      0.99970     1.56325    0.02539     2.58835
      O    9   -0.31272      0.99987     3.30722    0.00563     4.31272
      C   10   -0.33019      0.99962     2.32536    0.00520     3.33019
      H   11    0.09565      0.00000     0.40318    0.00117     0.40435
      H   12    0.10066      0.00000     0.39815    0.00119     0.39934
      H   13    0.10287      0.00000     0.39556    0.00156     0.39713
      H   14    0.10064      0.00000     0.39750    0.00186     0.39936
      H   15    0.10246      0.00000     0.39593    0.00161     0.39754
      H   16    0.10456      0.00000     0.39430    0.00115     0.39544
      H   17    0.11193      0.00000     0.38704    0.00103     0.38807
      H   18    0.10413      0.00000     0.39486    0.00101     0.39587
      H   19    0.10886      0.00000     0.38993    0.00121     0.39114
      H   20    0.10095      0.00000     0.39773    0.00132     0.39905
      H   21    0.09941      0.00000     0.39931    0.00129     0.40059
      H   22    0.09882      0.00000     0.40034    0.00083     0.40118
      H   23    0.09794      0.00000     0.40083    0.00123     0.40206
      H   24    0.11461      0.00000     0.38382    0.00158     0.38539
      H   25    0.11436      0.00000     0.38401    0.00163     0.38564
      H   26    0.10735      0.00000     0.39165    0.00100     0.39265
 =======================================================================
   * Total *   -0.00000      9.99659    29.88130    0.12211    40.00000

 Normal termination of Gaussian 16 at Tue Dec  8 12:49:34 2020.
