 Gaussian 16, Revision A.03,

 -----------------------------------------------------------
 # opt freq B3LYP/6-31G(d) empiricaldispersion=gd3bj scf=xqc
 -----------------------------------------------------------

 ------------------------------
 CID_61888464_JID_3425_neutraal
 ------------------------------
 Symbolic Z-matrix:
 Charge =  0 Multiplicity = 1

 SCF Done:  E(RB3LYP) =  -1008.44748536     A.U. after   16 cycles
 SCF Done:  E(RB3LYP) =  -1008.47284264     A.U. after   13 cycles
 SCF Done:  E(RB3LYP) =  -1008.47450901     A.U. after   13 cycles
 SCF Done:  E(RB3LYP) =  -1008.47430098     A.U. after   13 cycles
 SCF Done:  E(RB3LYP) =  -1008.47515895     A.U. after   12 cycles
 SCF Done:  E(RB3LYP) =  -1008.47527424     A.U. after   12 cycles
 SCF Done:  E(RB3LYP) =  -1008.47532389     A.U. after   11 cycles
 SCF Done:  E(RB3LYP) =  -1008.47533495     A.U. after   10 cycles
 SCF Done:  E(RB3LYP) =  -1008.47533726     A.U. after    9 cycles
 SCF Done:  E(RB3LYP) =  -1008.47533796     A.U. after    8 cycles
 SCF Done:  E(RB3LYP) =  -1008.47533808     A.U. after    7 cycles
 SCF Done:  E(RB3LYP) =  -1008.47533815     A.U. after    7 cycles
 Optimization completed.
    -- Stationary point found.
 Normal termination of Gaussian 16 at Wed Dec  9 23:14:42 2020.

 --------------------------------------------------------------------
 #N Geom=AllCheck Guess=TCheck SCRF=Check GenChk RB3LYP/6-31G(d) Freq
 --------------------------------------------------------------------

 Structure from the checkpoint file:  "JID_3425.chk"
 ------------------------------
 CID_61888464_JID_3425_neutraal
 ------------------------------
 Charge =  0 Multiplicity = 1

 SCF Done:  E(RB3LYP) =  -1008.47533815     A.U. after    1 cycles

  Exact polarizability: 123.290   1.307 103.858  -1.639   0.307  94.459
 Approx polarizability: 170.892  10.565 151.120  -0.401  -3.494 148.893

                      1                      2                      3
                      A                      A                      A
 Frequencies --     31.4784                45.6186                51.7270
 Red. masses --      4.9438                 3.5678                 3.9857
 Frc consts  --      0.0029                 0.0044                 0.0063
 IR Inten    --      1.7388                 0.9920                 1.9461

                      4                      5                      6
                      A                      A                      A
 Frequencies --     60.7389               120.8352               125.6250
 Red. masses --      4.3946                 2.5039                 5.2731
 Frc consts  --      0.0096                 0.0215                 0.0490
 IR Inten    --      1.4527                 7.2833                 2.4385

                      7                      8                      9
                      A                      A                      A
 Frequencies --    157.0273               185.0968               197.8724
 Red. masses --      2.4896                 1.1625                 1.9302
 Frc consts  --      0.0362                 0.0235                 0.0445
 IR Inten    --      1.3905                 0.4243                 1.8449

                     10                     11                     12
                      A                      A                      A
 Frequencies --    221.5126               227.5389               236.1650
 Red. masses --      3.6624                 3.9757                 1.4969
 Frc consts  --      0.1059                 0.1213                 0.0492
 IR Inten    --      2.7450                 1.4731                 3.9850

                     13                     14                     15
                      A                      A                      A
 Frequencies --    257.9984               275.1906               301.4751
 Red. masses --      1.8998                 3.2410                 3.6874
 Frc consts  --      0.0745                 0.1446                 0.1975
 IR Inten    --      4.7042                 6.7713                 6.5096

                     16                     17                     18
                      A                      A                      A
 Frequencies --    323.8216               343.1243               368.9805
 Red. masses --      2.4246                 3.2141                 3.8134
 Frc consts  --      0.1498                 0.2230                 0.3059
 IR Inten    --      5.4516                 2.8833                 0.9593

                     19                     20                     21
                      A                      A                      A
 Frequencies --    459.0474               469.0417               489.3162
 Red. masses --      5.7806                 5.8893                 4.1558
 Frc consts  --      0.7177                 0.7634                 0.5862
 IR Inten    --     16.9098                 3.9129                33.5647

                     22                     23                     24
                      A                      A                      A
 Frequencies --    540.6286               580.1022               596.0581
 Red. masses --      3.6616                 4.7569                 5.3803
 Frc consts  --      0.6306                 0.9432                 1.1262
 IR Inten    --      4.2649                23.5499                12.9629

                     25                     26                     27
                      A                      A                      A
 Frequencies --    627.2885               746.6918               829.6146
 Red. masses --      4.6829                 5.1810                 2.7075
 Frc consts  --      1.0857                 1.7019                 1.0979
 IR Inten    --      8.1630                99.3396                15.9111

                     28                     29                     30
                      A                      A                      A
 Frequencies --    841.0518               916.9400               996.7446
 Red. masses --      2.2586                 2.4393                 1.6397
 Frc consts  --      0.9413                 1.2084                 0.9598
 IR Inten    --      5.3766                75.5334                10.5776

                     31                     32                     33
                      A                      A                      A
 Frequencies --   1014.0570              1061.2338              1084.4665
 Red. masses --      2.5648                 2.6417                 2.3674
 Frc consts  --      1.5539                 1.7529                 1.6404
 IR Inten    --     21.6660                20.3087                14.0616

                     34                     35                     36
                      A                      A                      A
 Frequencies --   1088.4381              1120.0077              1139.6288
 Red. masses --      2.2763                 7.6378                 1.6575
 Frc consts  --      1.5889                 5.6450                 1.2683
 IR Inten    --     17.3449               110.9652                52.8007

                     37                     38                     39
                      A                      A                      A
 Frequencies --   1149.1480              1174.6478              1183.8118
 Red. masses --      1.5334                 3.6369                 1.3776
 Frc consts  --      1.1931                 2.9567                 1.1374
 IR Inten    --      9.6006               104.1414                11.1094

                     40                     41                     42
                      A                      A                      A
 Frequencies --   1191.0538              1199.1187              1241.6031
 Red. masses --      1.9452                 1.4845                 2.0005
 Frc consts  --      1.6259                 1.2576                 1.8170
 IR Inten    --     14.6189                39.6726                34.8895

                     43                     44                     45
                      A                      A                      A
 Frequencies --   1251.5525              1284.6821              1325.8697
 Red. masses --      1.4776                 1.2875                 3.4456
 Frc consts  --      1.3637                 1.2519                 3.5688
 IR Inten    --     26.8547                 9.7804               116.5255

                     46                     47                     48
                      A                      A                      A
 Frequencies --   1345.4148              1346.2911              1395.9004
 Red. masses --      1.3997                 1.7058                 1.2282
 Frc consts  --      1.4928                 1.8217                 1.4101
 IR Inten    --     16.3814                56.8948                16.9401

                     49                     50                     51
                      A                      A                      A
 Frequencies --   1431.9526              1435.2448              1469.6285
 Red. masses --      1.2328                 1.3114                 1.1091
 Frc consts  --      1.4893                 1.5916                 1.4114
 IR Inten    --     11.7073                16.9017                13.9595

                     52                     53                     54
                      A                      A                      A
 Frequencies --   1490.2080              1503.0607              1510.8164
 Red. masses --      1.1479                 1.1621                 1.0458
 Frc consts  --      1.5020                 1.5469                 1.4065
 IR Inten    --      1.6772                 1.8718                 2.0658

                     55                     56                     57
                      A                      A                      A
 Frequencies --   1515.6174              1517.4293              1527.3725
 Red. masses --      1.0497                 1.0422                 1.0479
 Frc consts  --      1.4207                 1.4139                 1.4403
 IR Inten    --      6.6888                12.9514                12.8369

                     58                     59                     60
                      A                      A                      A
 Frequencies --   1529.1315              1540.4576              1551.4450
 Red. masses --      1.0582                 1.0498                 1.0843
 Frc consts  --      1.4578                 1.4678                 1.5376
 IR Inten    --      5.1888                 3.6181                 4.8591

                     61                     62                     63
                      A                      A                      A
 Frequencies --   2365.9951              2991.5298              3001.9888
 Red. masses --     12.6611                 1.0493                 1.0496
 Frc consts  --     41.7588                 5.5325                 5.5729
 IR Inten    --      0.5623                37.0329                69.5788

                     64                     65                     66
                      A                      A                      A
 Frequencies --   3036.5567              3044.6782              3057.3140
 Red. masses --      1.0988                 1.1055                 1.0412
 Frc consts  --      5.9692                 6.0382                 5.7339
 IR Inten    --     53.2038                50.9292                20.0227

                     67                     68                     69
                      A                      A                      A
 Frequencies --   3066.1962              3076.3841              3103.1110
 Red. masses --      1.0781                 1.0400                 1.0609
 Frc consts  --      5.9720                 5.7991                 6.0189
 IR Inten    --     11.5323                17.5692                 0.9109

                     70                     71                     72
                      A                      A                      A
 Frequencies --   3133.3144              3142.5279              3144.8993
 Red. masses --      1.1034                 1.1033                 1.0973
 Frc consts  --      6.3823                 6.4193                 6.3940
 IR Inten    --     13.5900                22.3458                24.9686

                     73                     74                     75
                      A                      A                      A
 Frequencies --   3164.9647              3174.9837              3207.4117
 Red. masses --      1.1055                 1.1004                 1.0994
 Frc consts  --      6.5242                 6.5358                 6.6637
 IR Inten    --      0.6834                 9.5269                 0.5475

 - Thermochemistry -
 -------------------
 Temperature   298.150 Kelvin.  Pressure   1.00000 Atm.
 Atom     1 has atomic number  6 and mass  12.00000

 Molecular mass:   206.07251 amu.
 Principal axes and moments of inertia in atomic units:
                           1         2         3
     Eigenvalues --  1732.940533262.741483822.83310
           X            0.99998   0.00459  -0.00457
           Y           -0.00469   0.99974  -0.02234
           Z            0.00447   0.02236   0.99974
 This molecule is an asymmetric top.
 Rotational symmetry number  1.
 Warning -- assumption of classical behavior for rotation
           may cause significant error
 Rotational temperatures (Kelvin)      0.04998     0.02655     0.02266
 Rotational constants (GHZ):           1.04143     0.55314     0.47210
 Zero-point vibrational energy     579922.7 (Joules/Mol)
                                  138.60484 (Kcal/Mol)
 Warning -- explicit consideration of  24 degrees of freedom as
           vibrations may cause significant error
 Vibrational temperatures:     45.29    65.63    74.42    87.39   173.85
          (Kelvin)            180.75   225.93   266.31   284.69   318.71
                              327.38   339.79   371.20   395.94   433.76
                              465.91   493.68   530.88   660.47   674.85
                              704.02   777.84   834.64   857.59   902.53
                             1074.32  1193.63  1210.09  1319.27  1434.09
                             1459.00  1526.88  1560.31  1566.02  1611.44
                             1639.67  1653.37  1690.06  1703.24  1713.66
                             1725.26  1786.39  1800.70  1848.37  1907.63
                             1935.75  1937.01  2008.39  2060.26  2065.00
                             2114.47  2144.08  2162.57  2173.73  2180.64
                             2183.24  2197.55  2200.08  2216.37  2232.18
                             3404.14  4304.14  4319.19  4368.93  4380.61
                             4398.79  4411.57  4426.23  4464.68  4508.14
                             4521.40  4524.81  4553.68  4568.09  4614.75

 Zero-point correction=                           0.220881 (Hartree/Particle)
 Thermal correction to Energy=                    0.236356
 Thermal correction to Enthalpy=                  0.237300
 Thermal correction to Gibbs Free Energy=         0.177363
 Sum of electronic and zero-point Energies=          -1008.254457
 Sum of electronic and thermal Energies=             -1008.238982
 Sum of electronic and thermal Enthalpies=           -1008.238038
 Sum of electronic and thermal Free Energies=        -1008.297975

                     E (Thermal)             CV                S
                      KCal/Mol        Cal/Mol-Kelvin    Cal/Mol-Kelvin
 Total                  148.316             54.365            126.150
 Electronic               0.000              0.000              0.000
 Translational            0.889              2.981             41.873
 Rotational               0.889              2.981             31.447
 Vibrational            146.538             48.403             52.829
 Vibration     1          0.594              1.983              5.734
 Vibration     2          0.595              1.979              4.999
 Vibration     3          0.596              1.977              4.750
 Vibration     4          0.597              1.973              4.433
 Vibration     5          0.609              1.932              3.087
 Vibration     6          0.611              1.927              3.012
 Vibration     7          0.621              1.895              2.585
 Vibration     8          0.631              1.860              2.276
 Vibration     9          0.637              1.843              2.153
 Vibration    10          0.648              1.808              1.947
 Vibration    11          0.651              1.799              1.898
 Vibration    12          0.655              1.785              1.832
 Vibration    13          0.667              1.749              1.675
 Vibration    14          0.677              1.719              1.563
 Vibration    15          0.693              1.671              1.409
 Vibration    16          0.708              1.628              1.291
 Vibration    17          0.722              1.589              1.198
 Vibration    18          0.741              1.536              1.084
 Vibration    19          0.817              1.341              0.769
 Vibration    20          0.826              1.319              0.740
 Vibration    21          0.845              1.274              0.685
 Vibration    22          0.896              1.160              0.564
 Vibration    23          0.937              1.074              0.485
 Vibration    24          0.954              1.040              0.456

                           ! Non-Optimized Parameters !
 Normal termination of Gaussian 16 at Wed Dec  9 23:22:46 2020.

 ----------------------------------------------------------------------
 # B3LYP/6-311++G(d,p) empiricaldispersion=gd3bj scf=xqc pop=npa geom=c
 heck
 ----------------------------------------------------------------------

 --------------------------------------
 CID_61888464_JID_3425_Energie_neutraal
 --------------------------------------
 Structure from the checkpoint file:  "JID_3425.chk"
 Charge =  0 Multiplicity = 1

 SCF Done:  E(RB3LYP) =  -1008.68307197     A.U. after   15 cycles
 Normal termination of Gaussian 16 at Wed Dec  9 23:26:30 2020.

 ----------------------------------------------------------------------
 # B3LYP/6-311++G(d,p) empiricaldispersion=gd3bj scf=xqc pop=npa geom=c
 heck
 ----------------------------------------------------------------------

 ------------------------------------
 CID_61888464_JID_3425_Energie_kation
 ------------------------------------
 Structure from the checkpoint file:  "JID_3425.chk"
 Charge =  1 Multiplicity = 2

 SCF Done:  E(UB3LYP) =  -1008.33738143     A.U. after   23 cycles
 Normal termination of Gaussian 16 at Wed Dec  9 23:34:40 2020.
 Gaussian 16:  ES64L-G16RevA.03 25-Dec-2016

 ----------------------------------------------------------------------
 # B3LYP/6-311++G(d,p) empiricaldispersion=gd3bj scf=xqc pop=npa geom=c
 heck
 ----------------------------------------------------------------------

 -----------------------------------
 CID_61888464_JID_3425_Energie_anion
 -----------------------------------
 Structure from the checkpoint file:  "JID_3425.chk"
 Charge = -1 Multiplicity = 2

                         Standard orientation:
 ---------------------------------------------------------------------
 Center     Atomic      Atomic             Coordinates (Angstroms)
 Number     Number       Type             X           Y           Z
 ---------------------------------------------------------------------
      1          6           0       -1.019108    1.968659   -1.281989
      2          6           0       -1.328993    1.341645    0.083843
      3          6           0       -2.711840    0.818765    0.149554
      4          7           0       -3.802138    0.428512    0.219112
      5          7           0       -0.311955    0.373156    0.545454
      6          6           0       -0.169862    0.287900    2.006720
      7         16           0       -0.293416   -1.159355   -0.207841
      8          8           0       -0.933692   -2.165114    0.643290
      9          8           0       -0.737020   -0.951973   -1.589847
     10          6           0        1.482844   -1.549970   -0.254133
     11          6           0        2.359363   -0.385443   -0.681431
     12          8           0        2.682416    0.361371    0.472841
     13          6           0        3.253870    1.615375    0.166797
     14          1           0       -1.110153    1.235924   -2.081161
     15          1           0        0.002526    2.359258   -1.260504
     16          1           0       -1.711882    2.795430   -1.466092
     17          1           0       -1.277002    2.143854    0.828725
     18          1           0       -1.058112   -0.131007    2.493721
     19          1           0        0.700370   -0.322791    2.248556
     20          1           0        0.023073    1.295941    2.382876
     21          1           0        1.776757   -1.914732    0.732075
     22          1           0        1.526112   -2.380249   -0.965136
     23          1           0        3.275095   -0.771498   -1.158064
     24          1           0        1.835679    0.232878   -1.426014
     25          1           0        4.184832    1.510150   -0.411849
     26          1           0        2.554820    2.243843   -0.406861
     27          1           0        3.479912    2.105138    1.116790
 ---------------------------------------------------------------------

 SCF Done:  E(UB3LYP) =  -1008.67799458     A.U. after   31 cycles

 The electronic state is 2-A.
 Alpha  occ. eigenvalues --  -88.97659 -19.03953 -19.03355 -19.03298 -14.26802
 Alpha  occ. eigenvalues --  -14.22343 -10.16911 -10.14370 -10.13001 -10.11942
 Alpha  occ. eigenvalues --  -10.11608 -10.11268 -10.07923  -8.03903  -6.00189
 Alpha  occ. eigenvalues --   -6.00141  -5.99969  -1.03551  -0.95491  -0.92618
 Alpha  occ. eigenvalues --   -0.86449  -0.81566  -0.72414  -0.69876  -0.62751
 Alpha  occ. eigenvalues --   -0.60347  -0.58145  -0.54906  -0.51151  -0.46525
 Alpha  occ. eigenvalues --   -0.42649  -0.41813  -0.41246  -0.39595  -0.38437
 Alpha  occ. eigenvalues --   -0.37281  -0.36565  -0.36109  -0.33860  -0.32904
 Alpha  occ. eigenvalues --   -0.32066  -0.31340  -0.30212  -0.29539  -0.28971
 Alpha  occ. eigenvalues --   -0.27690  -0.26532  -0.25292  -0.24293  -0.24111
 Alpha  occ. eigenvalues --   -0.23723  -0.22618  -0.21495  -0.18441  -0.17230
 Alpha  occ. eigenvalues --    0.03886
 Alpha virt. eigenvalues --    0.06057   0.07407   0.07680   0.09087   0.09607
 Alpha virt. eigenvalues --    0.10031   0.10330   0.10737   0.10849   0.11506
 Alpha virt. eigenvalues --    0.12278   0.12739   0.13248   0.13635   0.13908

  Beta  occ. eigenvalues --  -88.97658 -19.03941 -19.03351 -19.03296 -14.26801
  Beta  occ. eigenvalues --  -14.22326 -10.16886 -10.14343 -10.12990 -10.11935
  Beta  occ. eigenvalues --  -10.11580 -10.11204 -10.07885  -8.03903  -6.00186
  Beta  occ. eigenvalues --   -6.00140  -5.99968  -1.03546  -0.95472  -0.92614
  Beta  occ. eigenvalues --   -0.86431  -0.81538  -0.72383  -0.69828  -0.62704
  Beta  occ. eigenvalues --   -0.60281  -0.58065  -0.54806  -0.51107  -0.46493
  Beta  occ. eigenvalues --   -0.42618  -0.41753  -0.41195  -0.39545  -0.38398
  Beta  occ. eigenvalues --   -0.37256  -0.36526  -0.36075  -0.33817  -0.32858
  Beta  occ. eigenvalues --   -0.32011  -0.31288  -0.30177  -0.29493  -0.28920
  Beta  occ. eigenvalues --   -0.27657  -0.26510  -0.25270  -0.24250  -0.24048
  Beta  occ. eigenvalues --   -0.23689  -0.22605  -0.21472  -0.18424  -0.17204
  Beta virt. eigenvalues --    0.06541   0.07198   0.07918   0.08325   0.09519
  Beta virt. eigenvalues --    0.10023   0.10358   0.10704   0.11069   0.11137
  Beta virt. eigenvalues --    0.11891   0.12535   0.13047   0.13431   0.13907

 Mulliken charges and spin densities:
               1          2
     1  C    0.896306  -1.443533
     2  C   -0.909343   1.293799
     3  C    0.373902  -0.816756
     4  N   -0.270594   0.029756
     5  N    0.019678  -0.003037
     6  C    0.116813  -0.613586
     7  S    0.658811  -0.453897
     8  O   -0.075724   0.029808
     9  O   -0.121237  -0.008923
    10  C   -0.455279  -0.213366
    11  C   -0.172698  -0.131548
    12  O   -0.139101   0.058657
    13  C    1.359183  -1.617336
    14  H    0.007239   0.194339
    15  H   -0.086144   0.249109
    16  H   -0.096084   0.250308
    17  H   -0.662117   0.887248
    18  H    0.182832   0.030480
    19  H    0.138915   0.029808
    20  H   -0.264475   0.441763
    21  H    0.195630   0.083125
    22  H    0.100420   0.134314
    23  H   -0.650989   0.828813
    24  H    0.200284  -0.029167
    25  H   -0.498446   0.633662
    26  H   -0.377674   0.537797
    27  H   -0.470109   0.618361
 Sum of Mulliken charges =  -1.00000   1.00000

 Dipole moment (field-independent basis, Debye):
    X=             -1.3201    Y=             -4.8656    Z=             -0.0307  Tot=              5.0416
 Quadrupole moment (field-independent basis, Debye-Ang):
   XX=           -164.8786   YY=           -135.1249   ZZ=           -116.7093
   XY=            -13.0922   XZ=              3.4583   YZ=             -5.1853

 Summary of Natural Population Analysis:

                                       Natural Population
                Natural  -----------------------------------------------
    Atom  No    Charge         Core      Valence    Rydberg      Total
 -----------------------------------------------------------------------
      C    1   -0.28100      0.99963     2.27450    0.00686     3.28100
      C    2   -0.06203      0.99949     2.04549    0.01705     3.06203
      C    3    0.15223      0.99963     1.83041    0.01773     2.84777
      N    4   -0.17180      0.99979     2.66121    0.01080     3.67180
      N    5   -0.36608      0.99974     2.84833    0.01800     3.86608
      C    6   -0.18102      0.99962     2.17177    0.00964     3.18102
      S    7    1.09854      4.99923     1.80308    0.09915     6.90146
      O    8   -0.45888      0.99991     3.45358    0.00539     4.45888
      O    9   -0.46385      0.99990     3.45842    0.00552     4.46385
      C   10   -0.29391      0.99956     2.28198    0.01237     3.29391
      C   11   -0.01864      0.99957     2.00571    0.01336     3.01864
      O   12   -0.29963      0.99988     3.28873    0.01102     4.29963
      C   13   -0.09617      0.99962     2.08705    0.00950     3.09617
      H   14    0.11557      0.00000     0.38298    0.00145     0.38443
      H   15    0.10894      0.00000     0.38915    0.00191     0.39106
      H   16    0.10370      0.00000     0.39515    0.00114     0.39630
      H   17    0.12741      0.00000     0.36830    0.00428     0.37259
      H   18    0.09596      0.00000     0.40297    0.00107     0.40404
      H   19    0.10590      0.00000     0.39290    0.00120     0.39410
      H   20    0.10683      0.00000     0.39145    0.00172     0.39317
      H   21    0.11967      0.00000     0.37901    0.00133     0.38033
      H   22    0.11974      0.00000     0.37930    0.00096     0.38026
      H   23    0.08984      0.00000     0.40813    0.00203     0.41016
      H   24    0.09126      0.00000     0.40639    0.00235     0.40874
      H   25    0.08073      0.00000     0.41637    0.00290     0.41927
      H   26    0.08238      0.00000     0.41454    0.00308     0.41762
      H   27    0.09430      0.00000     0.40361    0.00209     0.40570
 =======================================================================
   * Total *   -0.00000     16.99557    37.74053    0.26390    55.00000

 Normal termination of Gaussian 16 at Wed Dec  9 23:45:33 2020.
