 Gaussian 16, Revision A.03,

 -----------------------------------------------------------
 # opt freq B3LYP/6-31G(d) empiricaldispersion=gd3bj scf=xqc
 -----------------------------------------------------------

 ------------------------------
 CID_151810421_JID_241_neutraal
 ------------------------------
 Symbolic Z-matrix:
 Charge =  0 Multiplicity = 1

 SCF Done:  E(RB3LYP) =  -834.475835564     A.U. after   24 cycles
 SCF Done:  E(RB3LYP) =  -834.544720878     A.U. after   19 cycles
 SCF Done:  E(RB3LYP) =  -834.605867873     A.U. after   18 cycles
 SCF Done:  E(RB3LYP) =  -834.649644445     A.U. after   16 cycles
 SCF Done:  E(RB3LYP) =  -834.668747211     A.U. after   15 cycles
 SCF Done:  E(RB3LYP) =  -834.674481491     A.U. after   16 cycles
 SCF Done:  E(RB3LYP) =  -834.679039945     A.U. after   17 cycles
 SCF Done:  E(RB3LYP) =  -834.681950738     A.U. after   16 cycles
 SCF Done:  E(RB3LYP) =  -834.684379506     A.U. after   14 cycles
 SCF Done:  E(RB3LYP) =  -834.687197396     A.U. after   16 cycles
 SCF Done:  E(RB3LYP) =  -834.731114840     A.U. after   10 cycles
 SCF Done:  E(RB3LYP) =  -834.731116976     A.U. after    9 cycles
 SCF Done:  E(RB3LYP) =  -834.731118442     A.U. after   10 cycles
 SCF Done:  E(RB3LYP) =  -834.731118785     A.U. after    8 cycles
 SCF Done:  E(RB3LYP) =  -834.731118941     A.U. after    8 cycles
 Optimization completed.
    -- Stationary point found.
 Normal termination of Gaussian 16 at Tue Dec  8 10:46:53 2020.

 --------------------------------------------------------------------
 #N Geom=AllCheck Guess=TCheck SCRF=Check GenChk RB3LYP/6-31G(d) Freq
 --------------------------------------------------------------------

 Structure from the checkpoint file:  "JID_241.chk"
 ------------------------------
 CID_151810421_JID_241_neutraal
 ------------------------------
 Charge =  0 Multiplicity = 1

 SCF Done:  E(RB3LYP) =  -834.731118941     A.U. after    1 cycles

  Exact polarizability: 128.041  -8.763  91.629   5.761  -8.582  84.121
 Approx polarizability: 213.132 -39.755 158.447  21.935 -32.127 141.604

                      1                      2                      3
                      A                      A                      A
 Frequencies --     41.6672                71.6653                82.0365
 Red. masses --      4.4437                 3.3942                 1.5329
 Frc consts  --      0.0045                 0.0103                 0.0061
 IR Inten    --      0.9616                 1.1446                 0.7975

                      4                      5                      6
                      A                      A                      A
 Frequencies --    102.9741               186.8195               230.4461
 Red. masses --      2.8506                 2.6392                 2.2475
 Frc consts  --      0.0178                 0.0543                 0.0703
 IR Inten    --      0.7126                 6.2020                 2.3900

                      7                      8                      9
                      A                      A                      A
 Frequencies --    247.5054               266.5657               291.1782
 Red. masses --      6.0993                 1.1739                 7.3655
 Frc consts  --      0.2201                 0.0491                 0.3679
 IR Inten    --      7.8696                 2.8760                94.6983

                     10                     11                     12
                      A                      A                      A
 Frequencies --    316.0413               335.3084               387.2033
 Red. masses --      3.2624                 3.0428                 3.1787
 Frc consts  --      0.1920                 0.2016                 0.2808
 IR Inten    --     12.6019                 6.7421                 4.8050

                     13                     14                     15
                      A                      A                      A
 Frequencies --    418.2304               479.6103               502.1206
 Red. masses --      4.3432                 4.5257                 6.5072
 Frc consts  --      0.4476                 0.6134                 0.9666
 IR Inten    --     18.8074                53.3501               257.9155

                     16                     17                     18
                      A                      A                      A
 Frequencies --    553.8856               596.2651               623.4886
 Red. masses --      4.4857                 2.4500                13.7993
 Frc consts  --      0.8108                 0.5132                 3.1606
 IR Inten    --     31.9097                23.6818                11.1309

                     19                     20                     21
                      A                      A                      A
 Frequencies --    675.8075               730.9760               862.5588
 Red. masses --     12.4089                 6.4117                 2.0404
 Frc consts  --      3.3391                 2.0185                 0.8944
 IR Inten    --     17.2292                 0.5622                 4.8103

                     22                     23                     24
                      A                      A                      A
 Frequencies --    909.7959               982.1765              1005.2766
 Red. masses --      2.0852                 1.7267                 1.3937
 Frc consts  --      1.0169                 0.9814                 0.8298
 IR Inten    --      3.2007                 4.8570                 6.5732

                     25                     26                     27
                      A                      A                      A
 Frequencies --   1011.7175              1023.5694              1040.6307
 Red. masses --      1.2491                 1.4254                 1.5418
 Frc consts  --      0.7533                 0.8799                 0.9837
 IR Inten    --      6.6065                33.4822                25.4221

                     28                     29                     30
                      A                      A                      A
 Frequencies --   1089.6551              1133.2136              1176.1726
 Red. masses --      3.6900                 2.1281                 2.0069
 Frc consts  --      2.5814                 1.6102                 1.6358
 IR Inten    --     84.5827                 9.0352                 1.9734

                     31                     32                     33
                      A                      A                      A
 Frequencies --   1235.8398              1257.8527              1309.3787
 Red. masses --      1.3778                 1.2219                 1.2176
 Frc consts  --      1.2398                 1.1390                 1.2300
 IR Inten    --     10.4802                 1.4922                10.3680

                     34                     35                     36
                      A                      A                      A
 Frequencies --   1337.6870              1341.7846              1375.7394
 Red. masses --      1.3911                 6.2176                 1.1897
 Frc consts  --      1.4666                 6.5954                 1.3267
 IR Inten    --     13.9705                81.6013                 7.9897

                     37                     38                     39
                      A                      A                      A
 Frequencies --   1386.0520              1399.5013              1430.9400
 Red. masses --      1.4060                 1.2659                 1.2207
 Frc consts  --      1.5914                 1.4608                 1.4727
 IR Inten    --      1.7492                17.7274                13.3447

                     40                     41                     42
                      A                      A                      A
 Frequencies --   1485.8792              1496.7745              1510.8210
 Red. masses --      1.0479                 1.0532                 1.0930
 Frc consts  --      1.3631                 1.3902                 1.4700
 IR Inten    --      1.2788                10.4080                 2.7037

                     43                     44                     45
                      A                      A                      A
 Frequencies --   1523.6075              1537.3048              1538.2468
 Red. masses --      1.0455                 1.0736                 1.0653
 Frc consts  --      1.4300                 1.4949                 1.4852
 IR Inten    --      5.3860                 6.2869                 1.9641

                     46                     47                     48
                      A                      A                      A
 Frequencies --   2182.4826              2981.8696              3059.4364
 Red. masses --     13.9523                 1.0720                 1.0392
 Frc consts  --     39.1560                 5.6161                 5.7311
 IR Inten    --    810.9699                68.0301                 9.5938

                     49                     50                     51
                      A                      A                      A
 Frequencies --   3068.3494              3098.0695              3106.8434
 Red. masses --      1.0584                 1.0894                 1.0920
 Frc consts  --      5.8712                 6.1605                 6.2103
 IR Inten    --     23.9340                 3.1906                34.6042

                     52                     53                     54
                      A                      A                      A
 Frequencies --   3110.5055              3116.9270              3125.3802
 Red. masses --      1.0314                 1.1029                 1.0992
 Frc consts  --      5.8794                 6.3130                 6.3260
 IR Inten    --      4.0229                 2.1157                32.2396

                     55                     56                     57
                      A                      A                      A
 Frequencies --   3170.0368              3201.8007              3240.1981
 Red. masses --      1.1010                 1.1057                 1.1089
 Frc consts  --      6.5187                 6.6784                 6.8591
 IR Inten    --      2.6952                 1.5120                 0.9066

 - Thermochemistry -
 -------------------
 Temperature   298.150 Kelvin.  Pressure   1.00000 Atm.
 Atom     1 has atomic number  6 and mass  12.00000

 Molecular mass:   161.06228 amu.
 Principal axes and moments of inertia in atomic units:
                           1         2         3
     Eigenvalues --  1086.805152110.029382256.02732
           X            0.99957   0.02555  -0.01424
           Y           -0.02596   0.99923  -0.02949
           Z            0.01348   0.02985   0.99946
 This molecule is an asymmetric top.
 Rotational symmetry number  1.
 Warning -- assumption of classical behavior for rotation
           may cause significant error
 Rotational temperatures (Kelvin)      0.07970     0.04105     0.03839
 Rotational constants (GHZ):           1.66059     0.85532     0.79996
 Zero-point vibrational energy     448622.8 (Joules/Mol)
                                  107.22342 (Kcal/Mol)
 Warning -- explicit consideration of  17 degrees of freedom as
           vibrations may cause significant error
 Vibrational temperatures:     59.95   103.11   118.03   148.16   268.79
          (Kelvin)            331.56   356.11   383.53   418.94   454.71
                              482.43   557.10   601.74   690.05   722.44
                              796.92   857.89   897.06   972.34  1051.71
                             1241.03  1308.99  1413.13  1446.37  1455.64
                             1472.69  1497.24  1567.77  1630.44  1692.25
                             1778.10  1809.77  1883.90  1924.63  1930.53
                             1979.38  1994.22  2013.57  2058.80  2137.85
                             2153.52  2173.73  2192.13  2211.84  2213.19
                             3140.11  4290.25  4401.85  4414.67  4457.43
                             4470.05  4475.32  4484.56  4496.72  4560.98
                             4606.68  4661.92

 Zero-point correction=                           0.170871 (Hartree/Particle)
 Thermal correction to Energy=                    0.182373
 Thermal correction to Enthalpy=                  0.183317
 Thermal correction to Gibbs Free Energy=         0.133099
 Sum of electronic and zero-point Energies=           -834.560248
 Sum of electronic and thermal Energies=              -834.548746
 Sum of electronic and thermal Enthalpies=            -834.547801
 Sum of electronic and thermal Free Energies=         -834.598020

                     E (Thermal)             CV                S
                      KCal/Mol        Cal/Mol-Kelvin    Cal/Mol-Kelvin
 Total                  114.441             41.419            105.694
 Electronic               0.000              0.000              0.000
 Translational            0.889              2.981             41.139
 Rotational               0.889              2.981             30.027
 Vibrational            112.663             35.457             34.529
 Vibration     1          0.594              1.981              5.178
 Vibration     2          0.598              1.968              4.107
 Vibration     3          0.600              1.961              3.842
 Vibration     4          0.605              1.947              3.397
 Vibration     5          0.632              1.858              2.259
 Vibration     6          0.652              1.794              1.875
 Vibration     7          0.661              1.767              1.748
 Vibration     8          0.672              1.734              1.618
 Vibration     9          0.687              1.690              1.467
 Vibration    10          0.703              1.643              1.331
 Vibration    11          0.716              1.605              1.234
 Vibration    12          0.756              1.498              1.011
 Vibration    13          0.781              1.431              0.898
 Vibration    14          0.836              1.295              0.711
 Vibration    15          0.857              1.245              0.653
 Vibration    16          0.909              1.131              0.536
 Vibration    17          0.954              1.040              0.456

                           ! Non-Optimized Parameters !
 Normal termination of Gaussian 16 at Tue Dec  8 10:51:12 2020.

 ----------------------------------------------------------------------
 # B3LYP/6-311++G(d,p) empiricaldispersion=gd3bj scf=xqc pop=npa geom=c
 heck
 ----------------------------------------------------------------------

 --------------------------------------
 CID_151810421_JID_241_Energie_neutraal
 --------------------------------------
 Structure from the checkpoint file:  "JID_241.chk"
 Charge =  0 Multiplicity = 1

 SCF Done:  E(RB3LYP) =  -834.886877502     A.U. after   16 cycles
 Normal termination of Gaussian 16 at Tue Dec  8 10:55:14 2020.

 ----------------------------------------------------------------------
 # B3LYP/6-311++G(d,p) empiricaldispersion=gd3bj scf=xqc pop=npa geom=c
 heck
 ----------------------------------------------------------------------

 ------------------------------------
 CID_151810421_JID_241_Energie_kation
 ------------------------------------
 Structure from the checkpoint file:  "JID_241.chk"
 Charge =  1 Multiplicity = 2

 SCF Done:  E(UB3LYP) =  -834.582865771     A.U. after   26 cycles
 Normal termination of Gaussian 16 at Tue Dec  8 11:01:45 2020.
 Gaussian 16:  ES64L-G16RevA.03 25-Dec-2016

 ----------------------------------------------------------------------
 # B3LYP/6-311++G(d,p) empiricaldispersion=gd3bj scf=xqc pop=npa geom=c
 heck
 ----------------------------------------------------------------------

 -----------------------------------
 CID_151810421_JID_241_Energie_anion
 -----------------------------------
 Structure from the checkpoint file:  "JID_241.chk"
 Charge = -1 Multiplicity = 2

                         Standard orientation:
 ---------------------------------------------------------------------
 Center     Atomic      Atomic             Coordinates (Angstroms)
 Number     Number       Type             X           Y           Z
 ---------------------------------------------------------------------
      1          6           0        0.047775    1.132875    1.864886
      2          6           0        0.357840    1.017575    0.380323
      3          6           0        1.803804    1.359661    0.007548
      4          6           0        2.218234    0.421820   -1.130011
      5          8           0        1.794189   -0.867796   -0.744800
      6         16           0        0.034848   -0.712500   -0.338741
      7          6           0        0.288449   -1.955392    0.965022
      8          7           0       -3.125959    0.850065   -1.142495
      9          7           0       -2.546690    0.160896   -0.417862
     10          7           0       -1.932151   -0.558711    0.349047
     11          1           0       -0.969900    0.805201    2.082492
     12          1           0        0.151791    2.183841    2.158341
     13          1           0        0.755080    0.554329    2.467929
     14          1           0       -0.352881    1.614992   -0.197995
     15          1           0        1.884640    2.416312   -0.269404
     16          1           0        2.454107    1.180181    0.870278
     17          1           0        3.302315    0.394651   -1.276097
     18          1           0        1.752063    0.736734   -2.079593
     19          1           0       -0.681517   -2.224868    1.374058
     20          1           0        0.777859   -2.797646    0.475252
     21          1           0        0.952357   -1.546341    1.725558
 ---------------------------------------------------------------------

 SCF Done:  E(UB3LYP) =  -834.877293403     A.U. after   33 cycles
 SCF Done:  E(UB3LYP) =  -834.877293403     a.u. after    1 cycles

 The electronic state is 2-A.
 Alpha  occ. eigenvalues --  -88.83940 -19.00900 -14.32943 -14.21820 -14.20227
 Alpha  occ. eigenvalues --  -10.11168 -10.11028 -10.09887 -10.06754 -10.06219
 Alpha  occ. eigenvalues --   -7.91567  -5.87982  -5.87586  -5.87113  -0.98523
 Alpha  occ. eigenvalues --   -0.91396  -0.81815  -0.72694  -0.69033  -0.61362
 Alpha  occ. eigenvalues --   -0.57845  -0.51402  -0.47600  -0.41518  -0.39658
 Alpha  occ. eigenvalues --   -0.36850  -0.36489  -0.36240  -0.33820  -0.33518
 Alpha  occ. eigenvalues --   -0.32231  -0.30714  -0.30027  -0.29443  -0.28809
 Alpha  occ. eigenvalues --   -0.27659  -0.24848  -0.24422  -0.22610  -0.21472
 Alpha  occ. eigenvalues --   -0.16059  -0.12485  -0.11348   0.04721
 Alpha virt. eigenvalues --    0.07076   0.07662   0.08345   0.09195   0.10474
 Alpha virt. eigenvalues --    0.10977   0.11118   0.11364   0.12189   0.13084
 Alpha virt. eigenvalues --    0.13533   0.14646   0.15024   0.15783   0.16131

  Beta  occ. eigenvalues --  -88.83877 -19.00842 -14.32868 -14.21674 -14.20265
  Beta  occ. eigenvalues --  -10.11100 -10.10999 -10.09859 -10.06711 -10.06187
  Beta  occ. eigenvalues --   -7.91505  -5.87839  -5.87511  -5.87073  -0.98350
  Beta  occ. eigenvalues --   -0.91289  -0.81700  -0.72499  -0.68898  -0.61283
  Beta  occ. eigenvalues --   -0.57697  -0.51191  -0.47474  -0.41345  -0.39498
  Beta  occ. eigenvalues --   -0.36783  -0.36326  -0.35990  -0.33739  -0.33442
  Beta  occ. eigenvalues --   -0.32011  -0.30630  -0.29833  -0.29315  -0.28726
  Beta  occ. eigenvalues --   -0.27552  -0.24757  -0.24291  -0.22475  -0.21326
  Beta  occ. eigenvalues --   -0.15950  -0.12248  -0.11246
  Beta virt. eigenvalues --    0.07437   0.07926   0.08640   0.09102   0.09909
  Beta virt. eigenvalues --    0.11019   0.11226   0.11555   0.11835   0.12590
  Beta virt. eigenvalues --    0.13360   0.13880   0.15054   0.15338   0.16109

 Mulliken charges and spin densities:
               1          2
     1  C    1.397579  -2.004643
     2  C   -2.498751   2.572074
     3  C    1.496410  -1.926582
     4  C   -0.282857  -0.132843
     5  O   -0.230955   0.051387
     6  S    1.590384  -0.912569
     7  C   -0.135773  -0.468521
     8  N   -0.409522   0.038760
     9  N    0.024336   0.020991
    10  N   -0.222384   0.032546
    11  H    0.036614   0.114083
    12  H   -0.502796   0.664448
    13  H   -0.130049   0.269723
    14  H    0.267430  -0.010472
    15  H   -0.512089   0.668914
    16  H   -0.389478   0.592930
    17  H   -0.510052   0.685274
    18  H    0.092058   0.049441
    19  H    0.121950   0.091566
    20  H   -0.082147   0.278591
    21  H   -0.119908   0.324901
 Sum of Mulliken charges =  -1.00000   1.00000

 Dipole moment (field-independent basis, Debye):
    X=             -2.0037    Y=             -3.8006    Z=             -0.9426  Tot=              4.3986
 Quadrupole moment (field-independent basis, Debye-Ang):
   XX=           -126.7535   YY=           -103.8889   ZZ=            -99.6642
   XY=             -4.4894   XZ=             -7.3299   YZ=             -4.7531

 Summary of Natural Population Analysis:

                                       Natural Population
                Natural  -----------------------------------------------
    Atom  No    Charge         Core      Valence    Rydberg      Total
 -----------------------------------------------------------------------
      C    1   -0.29615      0.99962     2.28916    0.00738     3.29615
      C    2   -0.14201      0.99958     2.12821    0.01422     3.14201
      C    3   -0.21322      0.99959     2.20211    0.01152     3.21322
      C    4   -0.01338      0.99961     1.99911    0.01465     3.01338
      O    5   -0.37693      0.99992     3.36625    0.01076     4.37693
      S    6    0.53855      4.99950     2.43114    0.03081     7.46145
      C    7   -0.34602      0.99961     2.33883    0.00759     3.34602
      N    8   -0.10638      0.99982     2.59403    0.01252     3.60638
      N    9    0.09810      0.99972     2.38469    0.01749     3.40190
      N   10   -0.30443      0.99977     2.78845    0.01621     3.80443
      H   11    0.11386      0.00000     0.38487    0.00128     0.38614
      H   12    0.10967      0.00000     0.38855    0.00178     0.39033
      H   13    0.10061      0.00000     0.39787    0.00152     0.39939
      H   14    0.10594      0.00000     0.39180    0.00226     0.39406
      H   15    0.11239      0.00000     0.38378    0.00383     0.38761
      H   16    0.10499      0.00000     0.39080    0.00421     0.39501
      H   17    0.09524      0.00000     0.40328    0.00148     0.40476
      H   18    0.07404      0.00000     0.42423    0.00173     0.42596
      H   19    0.11731      0.00000     0.38095    0.00173     0.38269
      H   20    0.11355      0.00000     0.38513    0.00131     0.38645
      H   21    0.11427      0.00000     0.38416    0.00157     0.38573
 =======================================================================
   * Total *    0.00000     13.99673    28.83740    0.16586    43.00000

 Normal termination of Gaussian 16 at Tue Dec  8 11:07:18 2020.
