 Gaussian 16, Revision A.03,

 -----------------------------------------------------------
 # opt freq B3LYP/6-31G(d) empiricaldispersion=gd3bj scf=xqc
 -----------------------------------------------------------

 -------------------------------
 CID_147376191_JID_9602_neutraal
 -------------------------------
 Symbolic Z-matrix:
 Charge =  0 Multiplicity = 1

 SCF Done:  E(RB3LYP) =  -825.144105367     A.U. after   15 cycles
 SCF Done:  E(RB3LYP) =  -825.151846796     A.U. after   13 cycles
 SCF Done:  E(RB3LYP) =  -825.154267432     A.U. after   14 cycles
 SCF Done:  E(RB3LYP) =  -825.152089771     A.U. after   14 cycles
 SCF Done:  E(RB3LYP) =  -825.153979633     A.U. after   13 cycles
 SCF Done:  E(RB3LYP) =  -825.155094921     A.U. after   11 cycles
 SCF Done:  E(RB3LYP) =  -825.155505984     A.U. after   12 cycles
 SCF Done:  E(RB3LYP) =  -825.155686436     A.U. after   11 cycles
 SCF Done:  E(RB3LYP) =  -825.155778054     A.U. after   11 cycles
 SCF Done:  E(RB3LYP) =  -825.155811460     A.U. after   10 cycles
 SCF Done:  E(RB3LYP) =  -825.155840865     A.U. after    8 cycles
 SCF Done:  E(RB3LYP) =  -825.155841277     A.U. after    8 cycles
 SCF Done:  E(RB3LYP) =  -825.155841399     A.U. after    8 cycles
 SCF Done:  E(RB3LYP) =  -825.155841480     A.U. after    8 cycles
 SCF Done:  E(RB3LYP) =  -825.155841523     A.U. after    7 cycles
 Optimization completed.
    -- Stationary point found.
 Normal termination of Gaussian 16 at Mon Dec 14 13:35:04 2020.

 --------------------------------------------------------------------
 #N Geom=AllCheck Guess=TCheck SCRF=Check GenChk RB3LYP/6-31G(d) Freq
 --------------------------------------------------------------------

 Structure from the checkpoint file:  "JID_9602.chk"
 -------------------------------
 CID_147376191_JID_9602_neutraal
 -------------------------------
 Charge =  0 Multiplicity = 1

 SCF Done:  E(RB3LYP) =  -825.155841523     A.U. after    1 cycles

  Exact polarizability: 185.746 -17.718 191.319 -35.172 -12.848 128.345
 Approx polarizability: 276.529 -49.672 318.985 -77.149 -21.245 224.527

                      1                      2                      3
                      A                      A                      A
 Frequencies --     13.1111                26.0880                34.4031
 Red. masses --      5.4167                 4.6734                 3.8633
 Frc consts  --      0.0005                 0.0019                 0.0027
 IR Inten    --      0.0895                 1.2354                 1.7303

                      4                      5                      6
                      A                      A                      A
 Frequencies --     41.1784                67.4498                90.8142
 Red. masses --      4.4030                 4.7598                 4.7409
 Frc consts  --      0.0044                 0.0128                 0.0230
 IR Inten    --      0.6864                 1.0579                 0.6803

                      7                      8                      9
                      A                      A                      A
 Frequencies --    134.3855               149.5781               187.9306
 Red. masses --      4.4622                 3.5947                 3.0075
 Frc consts  --      0.0475                 0.0474                 0.0626
 IR Inten    --      0.5622                 3.9068                 0.6197

                     10                     11                     12
                      A                      A                      A
 Frequencies --    216.6340               232.2102               253.1607
 Red. masses --      1.3402                 3.7417                 3.3798
 Frc consts  --      0.0371                 0.1189                 0.1276
 IR Inten    --      0.7045                 4.1101                 4.8532

                     13                     14                     15
                      A                      A                      A
 Frequencies --    293.8689               316.4306               343.2120
 Red. masses --      1.1761                 4.1566                 3.3226
 Frc consts  --      0.0598                 0.2452                 0.2306
 IR Inten    --    108.4679                 1.8685                 2.0271

                     16                     17                     18
                      A                      A                      A
 Frequencies --    362.6873               387.5852               406.1594
 Red. masses --      3.1463                 3.5977                 3.4932
 Frc consts  --      0.2438                 0.3184                 0.3395
 IR Inten    --     10.7409                 0.7844                 4.4314

                     19                     20                     21
                      A                      A                      A
 Frequencies --    415.2359               445.5197               473.7814
 Red. masses --      2.9622                 3.9532                 3.5860
 Frc consts  --      0.3009                 0.4623                 0.4743
 IR Inten    --      0.2182                 1.8907                 3.9637

                     22                     23                     24
                      A                      A                      A
 Frequencies --    482.9324               489.7679               535.5605
 Red. masses --      3.5116                 3.9228                 3.8634
 Frc consts  --      0.4825                 0.5544                 0.6529
 IR Inten    --      2.0597                 3.7337                 2.3229

                     25                     26                     27
                      A                      A                      A
 Frequencies --    581.9326               592.7968               633.8757
 Red. masses --      4.6424                 4.3090                 6.3020
 Frc consts  --      0.9263                 0.8922                 1.4919
 IR Inten    --      7.7812                 9.6408                 0.7224

                     28                     29                     30
                      A                      A                      A
 Frequencies --    641.8533               698.3800               711.8430
 Red. masses --      4.8256                 2.7866                 2.0340
 Frc consts  --      1.1713                 0.8008                 0.6073
 IR Inten    --      4.2699                 8.3116                48.7175

                     31                     32                     33
                      A                      A                      A
 Frequencies --    719.7839               721.7533               745.5217
 Red. masses --      2.7932                 3.5820                 2.9536
 Frc consts  --      0.8526                 1.0994                 0.9672
 IR Inten    --      3.4859                 9.7117                 7.4274

                     34                     35                     36
                      A                      A                      A
 Frequencies --    801.0321               808.8946               854.5933
 Red. masses --      1.9947                 1.5292                 4.4658
 Frc consts  --      0.7541                 0.5895                 1.9216
 IR Inten    --      3.7436                36.1453                21.8932

                     37                     38                     39
                      A                      A                      A
 Frequencies --    860.6117               878.7208               906.4326
 Red. masses --      1.2572                 1.4835                 1.5282
 Frc consts  --      0.5486                 0.6749                 0.7398
 IR Inten    --      0.4296                 2.8792                10.8618

                     40                     41                     42
                      A                      A                      A
 Frequencies --    923.4952               943.2007               952.4237
 Red. masses --      2.0333                 1.8017                 2.2290
 Frc consts  --      1.0217                 0.9443                 1.1913
 IR Inten    --     19.9951                 3.2957                 7.5121

                     43                     44                     45
                      A                      A                      A
 Frequencies --    978.7558               980.1421               989.9730
 Red. masses --      1.2961                 1.3468                 2.4805
 Frc consts  --      0.7315                 0.7623                 1.4323
 IR Inten    --      1.1956                 0.4058                 9.1507

                     46                     47                     48
                      A                      A                      A
 Frequencies --   1006.4917              1018.3142              1022.9052
 Red. masses --      1.3161                 6.0261                 4.0251
 Frc consts  --      0.7856                 3.6817                 2.4814
 IR Inten    --      0.6537                 3.1541                 5.2741

                     49                     50                     51
                      A                      A                      A
 Frequencies --   1025.4919              1054.2820              1074.1267
 Red. masses --      2.5710                 2.7338                 2.1010
 Frc consts  --      1.5930                 1.7903                 1.4282
 IR Inten    --      2.7811                 8.1167                 9.7436

                     52                     53                     54
                      A                      A                      A
 Frequencies --   1086.5238              1118.8207              1126.4343
 Red. masses --      4.8234                 1.5661                 1.5763
 Frc consts  --      3.3549                 1.1550                 1.1784
 IR Inten    --     29.9088                 3.2860                 2.2060

                     55                     56                     57
                      A                      A                      A
 Frequencies --   1152.4106              1174.6367              1176.8247
 Red. masses --      1.4773                 1.4417                 1.2845
 Frc consts  --      1.1559                 1.1720                 1.0481
 IR Inten    --     39.9025                 8.3781                16.7996

                     58                     59                     60
                      A                      A                      A
 Frequencies --   1194.3426              1204.4262              1214.8570
 Red. masses --      1.1015                 1.1257                 1.2452
 Frc consts  --      0.9257                 0.9621                 1.0828
 IR Inten    --      0.6335                 4.2092                29.8619

                     61                     62                     63
                      A                      A                      A
 Frequencies --   1216.7660              1230.4941              1292.6102
 Red. masses --      1.4747                 1.6655                 2.1168
 Frc consts  --      1.2863                 1.4858                 2.0839
 IR Inten    --      0.5171                28.2725                86.0221

                     64                     65                     66
                      A                      A                      A
 Frequencies --   1316.9777              1341.4916              1350.7188
 Red. masses --      2.8053                 1.7011                 1.5880
 Frc consts  --      2.8667                 1.8037                 1.7070
 IR Inten    --     16.3162                22.1780                 1.0479

                     67                     68                     69
                      A                      A                      A
 Frequencies --   1363.6940              1368.9453              1372.5117
 Red. masses --      1.5873                 3.8543                 3.1442
 Frc consts  --      1.7391                 4.2557                 3.4897
 IR Inten    --     19.2038                 0.9259                 5.2338

                     70                     71                     72
                      A                      A                      A
 Frequencies --   1383.7107              1389.2707              1470.3801
 Red. masses --      1.6169                 1.1821                 1.2349
 Frc consts  --      1.8240                 1.3442                 1.5731
 IR Inten    --     23.1623                71.4005                 7.6951

                     73                     74                     75
                      A                      A                      A
 Frequencies --   1490.6313              1496.3168              1509.9481
 Red. masses --      2.4878                 2.1947                 1.0483
 Frc consts  --      3.2569                 2.8951                 1.4081
 IR Inten    --     14.6232                10.4884                16.5747

                     76                     77                     78
                      A                      A                      A
 Frequencies --   1515.4401              1523.8699              1531.5421
 Red. masses --      1.1697                 1.1298                 1.2056
 Frc consts  --      1.5827                 1.5457                 1.6661
 IR Inten    --     11.3126                 7.9360                 4.4616

                     79                     80                     81
                      A                      A                      A
 Frequencies --   1543.4800              1545.1868              1640.9087
 Red. masses --      1.9810                 1.9871                 5.4157
 Frc consts  --      2.7806                 2.7953                 8.5916
 IR Inten    --     24.7137                 9.4902                 8.5484

                     82                     83                     84
                      A                      A                      A
 Frequencies --   1645.2850              1661.6455              1666.1262
 Red. masses --      5.9964                 5.4900                 5.7526
 Frc consts  --      9.5637                 8.9309                 9.4087
 IR Inten    --     31.1338                22.8140                52.3955

                     85                     86                     87
                      A                      A                      A
 Frequencies --   1762.0369              3032.0252              3059.7184
 Red. masses --     11.2386                 1.0477                 1.0608
 Frc consts  --     20.5585                 5.6748                 5.8514
 IR Inten    --    147.0527                60.8809                31.5969

                     88                     89                     90
                      A                      A                      A
 Frequencies --   3079.7154              3106.0860              3128.9089
 Red. masses --      1.0595                 1.1036                 1.0879
 Frc consts  --      5.9208                 6.2732                 6.2749
 IR Inten    --     16.9251                11.3871                24.0710

                     91                     92                     93
                      A                      A                      A
 Frequencies --   3130.3443              3167.1710              3183.1263
 Red. masses --      1.1048                 1.1029                 1.0898
 Frc consts  --      6.3787                 6.5182                 6.5059
 IR Inten    --     22.3436                22.0827                14.6066

                     94                     95                     96
                      A                      A                      A
 Frequencies --   3184.9292              3187.6704              3197.0219
 Red. masses --      1.0855                 1.0870                 1.0900
 Frc consts  --      6.4878                 6.5076                 6.5637
 IR Inten    --      0.4962                 6.5171                17.9428

                     97                     98                     99
                      A                      A                      A
 Frequencies --   3204.7071              3208.2399              3227.5550
 Red. masses --      1.0945                 1.0952                 1.0925
 Frc consts  --      6.6229                 6.6417                 6.7055
 IR Inten    --     13.1453                25.6512                 6.8010

                    100                    101                    102
                      A                      A                      A
 Frequencies --   3239.5559              3255.2060              3731.5748
 Red. masses --      1.0912                 1.0911                 1.0682
 Frc consts  --      6.7474                 6.8118                 8.7638
 IR Inten    --      5.7963                 1.5685                35.4594

 - Thermochemistry -
 -------------------
 Temperature   298.150 Kelvin.  Pressure   1.00000 Atm.
 Atom     1 has atomic number  6 and mass  12.00000

 Molecular mass:   255.12593 amu.
 Principal axes and moments of inertia in atomic units:
                           1         2         3
     Eigenvalues --  3115.637316610.001678244.42476
           X            0.99989   0.01144  -0.00961
           Y           -0.01162   0.99975  -0.01891
           Z            0.00939   0.01902   0.99978
 This molecule is an asymmetric top.
 Rotational symmetry number  1.
 Warning -- assumption of classical behavior for rotation
           may cause significant error
 Rotational temperatures (Kelvin)      0.02780     0.01310     0.01051
 Rotational constants (GHZ):           0.57925     0.27303     0.21890
 Zero-point vibrational energy     783136.1 (Joules/Mol)
                                  187.17402 (Kcal/Mol)
 Warning -- explicit consideration of  26 degrees of freedom as
           vibrations may cause significant error
 Vibrational temperatures:     18.86    37.53    49.50    59.25    97.05
          (Kelvin)            130.66   193.35   215.21   270.39   311.69
                              334.10   364.24   422.81   455.27   493.81
                              521.83   557.65   584.37   597.43   641.00
                              681.67   694.83   704.67   770.55   837.27
                              852.90   912.01   923.48  1004.81  1024.18
                             1035.61  1038.44  1072.64  1152.51  1163.82
                             1229.57  1238.23  1264.28  1304.15  1328.70
                             1357.06  1370.33  1408.21  1410.21  1424.35
                             1448.12  1465.13  1471.73  1475.45  1516.88
                             1545.43  1563.27  1609.73  1620.69  1658.06
                             1690.04  1693.19  1718.39  1732.90  1747.91
                             1750.65  1770.41  1859.78  1894.84  1930.11
                             1943.38  1962.05  1969.61  1974.74  1990.85
                             1998.85  2115.55  2144.69  2152.87  2172.48
                             2180.38  2192.51  2203.55  2220.72  2223.18
                             2360.90  2367.20  2390.74  2397.18  2535.18
                             4362.41  4402.25  4431.02  4468.96  4501.80
                             4503.87  4556.85  4579.81  4582.40  4586.35
                             4599.80  4610.86  4615.94  4643.73  4661.00
                             4683.52  5368.90

 Zero-point correction=                           0.298281 (Hartree/Particle)
 Thermal correction to Energy=                    0.315584
 Thermal correction to Enthalpy=                  0.316528
 Thermal correction to Gibbs Free Energy=         0.250396
 Sum of electronic and zero-point Energies=           -824.857561
 Sum of electronic and thermal Energies=              -824.840257
 Sum of electronic and thermal Enthalpies=            -824.839313
 Sum of electronic and thermal Free Energies=         -824.905445

                     E (Thermal)             CV                S
                      KCal/Mol        Cal/Mol-Kelvin    Cal/Mol-Kelvin
 Total                  198.032             66.584            139.186
 Electronic               0.000              0.000              0.000
 Translational            0.889              2.981             42.510
 Rotational               0.889              2.981             33.495
 Vibrational            196.255             60.622             63.181
 Vibration     1          0.593              1.987              7.473
 Vibration     2          0.593              1.985              6.107
 Vibration     3          0.594              1.983              5.558
 Vibration     4          0.594              1.981              5.202
 Vibration     5          0.598              1.970              4.226
 Vibration     6          0.602              1.956              3.642
 Vibration     7          0.613              1.919              2.882
 Vibration     8          0.618              1.903              2.678
 Vibration     9          0.633              1.856              2.248
 Vibration    10          0.645              1.816              1.987
 Vibration    11          0.653              1.792              1.862
 Vibration    12          0.664              1.757              1.708
 Vibration    13          0.689              1.685              1.452
 Vibration    14          0.703              1.642              1.328
 Vibration    15          0.722              1.589              1.197
 Vibration    16          0.737              1.549              1.111
 Vibration    17          0.756              1.497              1.009
 Vibration    18          0.771              1.457              0.940
 Vibration    19          0.779              1.437              0.908
 Vibration    20          0.805              1.371              0.809
 Vibration    21          0.831              1.308              0.727
 Vibration    22          0.839              1.288              0.702
 Vibration    23          0.846              1.273              0.684
 Vibration    24          0.891              1.171              0.575
 Vibration    25          0.939              1.070              0.482
 Vibration    26          0.950              1.047              0.462

                           ! Non-Optimized Parameters !
 Normal termination of Gaussian 16 at Mon Dec 14 13:55:47 2020.

 ----------------------------------------------------------------------
 # B3LYP/6-311++G(d,p) empiricaldispersion=gd3bj scf=xqc pop=npa geom=c
 heck
 ----------------------------------------------------------------------

 ---------------------------------------
 CID_147376191_JID_9602_Energie_neutraal
 ---------------------------------------
 Structure from the checkpoint file:  "JID_9602.chk"
 Charge =  0 Multiplicity = 1

 SCF Done:  E(RB3LYP) =  -825.385154267     A.U. after   16 cycles
 Normal termination of Gaussian 16 at Mon Dec 14 14:05:25 2020.

 ----------------------------------------------------------------------
 # B3LYP/6-311++G(d,p) empiricaldispersion=gd3bj scf=xqc pop=npa geom=c
 heck
 ----------------------------------------------------------------------

 -------------------------------------
 CID_147376191_JID_9602_Energie_kation
 -------------------------------------
 Structure from the checkpoint file:  "JID_9602.chk"
 Charge =  1 Multiplicity = 2

 SCF Done:  E(UB3LYP) =  -825.100451930     A.U. after   28 cycles
 Normal termination of Gaussian 16 at Mon Dec 14 14:29:36 2020.
 Gaussian 16:  ES64L-G16RevA.03 25-Dec-2016

 ----------------------------------------------------------------------
 # B3LYP/6-311++G(d,p) empiricaldispersion=gd3bj scf=xqc pop=npa geom=c
 heck
 ----------------------------------------------------------------------

 ------------------------------------
 CID_147376191_JID_9602_Energie_anion
 ------------------------------------
 Structure from the checkpoint file:  "JID_9602.chk"
 Charge = -1 Multiplicity = 2

                         Standard orientation:
 ---------------------------------------------------------------------
 Center     Atomic      Atomic             Coordinates (Angstroms)
 Number     Number       Type             X           Y           Z
 ---------------------------------------------------------------------
      1          6           0        4.467524    0.406326   -0.877474
      2          7           0        3.383642   -0.540346   -0.607581
      3          6           0        2.314075   -0.035069    0.189586
      4          6           0        1.911027   -0.653239    1.378613
      5          6           0        0.828955   -0.137520    2.090817
      6          6           0        0.136845    0.981275    1.635645
      7          6           0        0.518084    1.594824    0.436329
      8          6           0        1.604967    1.083781   -0.274220
      9          6           0       -0.308165    2.715033   -0.150421
     10          6           0       -1.401933    2.188662   -1.115558
     11          6           0       -2.416862    1.333605   -0.364952
     12          8           0       -3.276703    1.892941    0.303722
     13          6           0       -2.336217   -0.158688   -0.403443
     14          6           0       -1.283083   -0.856667   -1.011064
     15          6           0       -1.243302   -2.248693   -0.965651
     16          6           0       -2.260796   -2.958252   -0.327425
     17          6           0       -3.318432   -2.270901    0.275680
     18          6           0       -3.351768   -0.881808    0.242124
     19          8           0        3.999403   -1.671333    0.028156
     20          1           0        4.054149    1.302459   -1.343364
     21          1           0        5.170175   -0.060556   -1.571133
     22          1           0        4.997365    0.689985    0.042901
     23          1           0        2.453338   -1.517851    1.736327
     24          1           0        0.525523   -0.620267    3.015690
     25          1           0       -0.716221    1.363999    2.188352
     26          1           0        1.881152    1.542603   -1.219979
     27          1           0       -0.803866    3.280229    0.645809
     28          1           0        0.331409    3.414340   -0.701072
     29          1           0       -1.952916    3.041414   -1.524510
     30          1           0       -0.938467    1.651499   -1.947373
     31          1           0       -0.470346   -0.322528   -1.487035
     32          1           0       -0.414047   -2.777801   -1.426139
     33          1           0       -2.229850   -4.043974   -0.296277
     34          1           0       -4.110902   -2.821328    0.774881
     35          1           0       -4.153318   -0.324805    0.715099
     36          1           0        3.744218   -2.403875   -0.555645
 ---------------------------------------------------------------------

 SCF Done:  E(UB3LYP) =  -825.394868185     A.U. after   33 cycles
 SCF Done:  E(UB3LYP) =  -825.394868185     a.u. after    1 cycles

 The electronic state is 2-A.
 Alpha  occ. eigenvalues --  -19.07552 -18.91430 -14.28500 -10.11676 -10.10508
 Alpha  occ. eigenvalues --  -10.06892 -10.06339 -10.06330 -10.06139 -10.05863
 Alpha  occ. eigenvalues --  -10.05314 -10.05189 -10.03358 -10.02727 -10.02692
 Alpha  occ. eigenvalues --  -10.01978 -10.01848 -10.01252 -10.01184  -0.99370
 Alpha  occ. eigenvalues --   -0.85624  -0.79363  -0.73827  -0.70403  -0.67434
 Alpha  occ. eigenvalues --   -0.64132  -0.61887  -0.60014  -0.59718  -0.57867
 Alpha  occ. eigenvalues --   -0.52957  -0.49243  -0.48649  -0.46698  -0.45344
 Alpha  occ. eigenvalues --   -0.42500  -0.41571  -0.39431  -0.38275  -0.37650
 Alpha  occ. eigenvalues --   -0.36296  -0.34392  -0.33987  -0.32868  -0.32137
 Alpha  occ. eigenvalues --   -0.31529  -0.30978  -0.30118  -0.29428  -0.28954
 Alpha  occ. eigenvalues --   -0.27623  -0.26503  -0.25550  -0.24972  -0.24706
 Alpha  occ. eigenvalues --   -0.23066  -0.22638  -0.22326  -0.21860  -0.20241
 Alpha  occ. eigenvalues --   -0.19439  -0.19138  -0.18568  -0.13780  -0.11699
 Alpha  occ. eigenvalues --   -0.11203  -0.10550  -0.07880   0.04672
 Alpha virt. eigenvalues --    0.05943   0.07594   0.08468   0.09107   0.09195
 Alpha virt. eigenvalues --    0.09683   0.10155   0.10460   0.10963   0.11328
 Alpha virt. eigenvalues --    0.11445   0.11596   0.12818   0.13028   0.13462

  Beta  occ. eigenvalues --  -19.07551 -18.90891 -14.28499 -10.11671 -10.10467
  Beta  occ. eigenvalues --  -10.06893 -10.06328 -10.06312 -10.06149 -10.05508
  Beta  occ. eigenvalues --  -10.05269 -10.05177 -10.03390 -10.02805 -10.02744
  Beta  occ. eigenvalues --  -10.01838 -10.01538 -10.01122 -10.01049  -0.99364
  Beta  occ. eigenvalues --   -0.84635  -0.79335  -0.73796  -0.70098  -0.67353
  Beta  occ. eigenvalues --   -0.64086  -0.61679  -0.59666  -0.59421  -0.57848
  Beta  occ. eigenvalues --   -0.52770  -0.49130  -0.48506  -0.46183  -0.45209
  Beta  occ. eigenvalues --   -0.42452  -0.41545  -0.39131  -0.38249  -0.37628
  Beta  occ. eigenvalues --   -0.36050  -0.34194  -0.33949  -0.32853  -0.32041
  Beta  occ. eigenvalues --   -0.31356  -0.30924  -0.29918  -0.29148  -0.28771
  Beta  occ. eigenvalues --   -0.27554  -0.26296  -0.25402  -0.24739  -0.24344
  Beta  occ. eigenvalues --   -0.22823  -0.22292  -0.21947  -0.21599  -0.19984
  Beta  occ. eigenvalues --   -0.19041  -0.18596  -0.17252  -0.13696  -0.11457
  Beta  occ. eigenvalues --   -0.10496  -0.08988  -0.07390
  Beta virt. eigenvalues --    0.05886   0.07523   0.08385   0.09026   0.09243
  Beta virt. eigenvalues --    0.09697   0.10036   0.10401   0.10703   0.11067
  Beta virt. eigenvalues --    0.11347   0.11541   0.11789   0.12740   0.13235

 Mulliken charges and spin densities:
               1          2
     1  C   -0.322067  -0.008677
     2  N   -0.046341   0.009702
     3  C   -0.700531   0.060603
     4  C    0.481486  -0.056109
     5  C   -0.487507   0.030518
     6  C   -0.193139  -0.012124
     7  C    0.719502   0.014118
     8  C   -0.573535  -0.012087
     9  C   -0.371895  -0.258167
    10  C   -0.076275   0.106647
    11  C   -0.565150   0.185805
    12  O   -0.373759   0.196645
    13  C    0.798069   0.025167
    14  C   -0.365143   0.103948
    15  C   -0.390370  -0.045251
    16  C   -0.450635   0.236567
    17  C   -0.349975  -0.049488
    18  C    0.144143   0.184215
    19  O   -0.130192  -0.002762
    20  H    0.122284   0.007190
    21  H    0.137688   0.005854
    22  H    0.133114   0.005161
    23  H    0.170327  -0.000341
    24  H    0.161351   0.000861
    25  H    0.179775   0.004916
    26  H    0.146803   0.002529
    27  H    0.191643  -0.022158
    28  H   -0.056383   0.180583
    29  H    0.087348   0.099405
    30  H    0.093337   0.030852
    31  H    0.110933  -0.007675
    32  H    0.119881   0.002321
    33  H    0.096631  -0.018801
    34  H    0.118037   0.003783
    35  H    0.179837  -0.010890
    36  H    0.260708   0.007135
 Sum of Mulliken charges =  -1.00000   1.00000

 Dipole moment (field-independent basis, Debye):
    X=              9.5242    Y=             -1.7867    Z=             -0.7115  Tot=              9.7164
 Quadrupole moment (field-independent basis, Debye-Ang):
   XX=           -163.2018   YY=           -138.3249   ZZ=           -123.8475
   XY=              4.9759   XZ=             -7.4451   YZ=             -2.2412

 Summary of Natural Population Analysis:

                                       Natural Population
                Natural  -----------------------------------------------
    Atom  No    Charge         Core      Valence    Rydberg      Total
 -----------------------------------------------------------------------
      C    1   -0.17613      0.99964     2.16955    0.00694     3.17613
      N    2   -0.11188      0.99965     2.59825    0.01397     3.61188
      C    3    0.07576      0.99945     1.91032    0.01447     2.92424
      C    4   -0.12797      0.99952     2.12084    0.00761     3.12797
      C    5   -0.08100      0.99957     2.07323    0.00820     3.08100
      C    6   -0.10554      0.99951     2.09547    0.01056     3.10554
      C    7    0.00015      0.99951     1.98979    0.01056     2.99985
      C    8   -0.12419      0.99946     2.11465    0.01008     3.12419
      C    9   -0.18982      0.99959     2.18055    0.00968     3.18982
      C   10   -0.22298      0.99959     2.21416    0.00923     3.22298
      C   11    0.30975      0.99962     1.66684    0.02380     2.69025
      O   12   -0.25773      0.99988     3.25189    0.00597     4.25773
      C   13   -0.05561      0.99946     2.04396    0.01219     3.05561
      C   14   -0.06527      0.99953     2.05584    0.00990     3.06527
      C   15   -0.12649      0.99957     2.11842    0.00850     3.12649
      C   16   -0.04948      0.99957     2.04070    0.00920     3.04948
      C   17   -0.13239      0.99957     2.12374    0.00909     3.13239
      C   18   -0.04583      0.99953     2.03767    0.00863     3.04583
      O   19   -0.29619      0.99990     3.28902    0.00727     4.29619
      H   20    0.09963      0.00000     0.39965    0.00071     0.40037
      H   21    0.09348      0.00000     0.40570    0.00082     0.40652
      H   22    0.08833      0.00000     0.41045    0.00122     0.41167
      H   23    0.10829      0.00000     0.39080    0.00090     0.39171
      H   24    0.09730      0.00000     0.40188    0.00082     0.40270
      H   25    0.10759      0.00000     0.39139    0.00102     0.39241
      H   26    0.09755      0.00000     0.40119    0.00126     0.40245
      H   27    0.10426      0.00000     0.39464    0.00111     0.39574
      H   28    0.09395      0.00000     0.40456    0.00149     0.40605
      H   29    0.10468      0.00000     0.39375    0.00157     0.39532
      H   30    0.09370      0.00000     0.40498    0.00132     0.40630
      H   31    0.09411      0.00000     0.40442    0.00147     0.40589
      H   32    0.08842      0.00000     0.41010    0.00148     0.41158
      H   33    0.08451      0.00000     0.41445    0.00104     0.41549
      H   34    0.08924      0.00000     0.40971    0.00105     0.41076
      H   35    0.10479      0.00000     0.39413    0.00109     0.39521
      H   36    0.23304      0.00000     0.26462    0.00235     0.26696
 =======================================================================
   * Total *   -0.00000     18.99215    48.79131    0.21654    68.00000

 Normal termination of Gaussian 16 at Mon Dec 14 14:57:28 2020.
