 Gaussian 16, Revision A.03,

 -----------------------------------------------------------
 # opt freq B3LYP/6-31G(d) empiricaldispersion=gd3bj scf=xqc
 -----------------------------------------------------------

 ------------------------------
 CID_66177605_JID_4877_neutraal
 ------------------------------
 Symbolic Z-matrix:
 Charge =  0 Multiplicity = 1

 SCF Done:  E(RB3LYP) =  -1068.88872722     A.U. after   14 cycles
 SCF Done:  E(RB3LYP) =  -1068.89451452     A.U. after   12 cycles
 SCF Done:  E(RB3LYP) =  -1068.89534103     A.U. after   11 cycles
 SCF Done:  E(RB3LYP) =  -1068.89532035     A.U. after   11 cycles
 SCF Done:  E(RB3LYP) =  -1068.89557014     A.U. after   11 cycles
 SCF Done:  E(RB3LYP) =  -1068.89565330     A.U. after   11 cycles
 SCF Done:  E(RB3LYP) =  -1068.89568024     A.U. after   10 cycles
 SCF Done:  E(RB3LYP) =  -1068.89569256     A.U. after    9 cycles
 SCF Done:  E(RB3LYP) =  -1068.89569530     A.U. after    8 cycles
 SCF Done:  E(RB3LYP) =  -1068.89569890     A.U. after    9 cycles
 SCF Done:  E(RB3LYP) =  -1068.89570199     A.U. after    9 cycles
 SCF Done:  E(RB3LYP) =  -1068.89570247     A.U. after    8 cycles
 SCF Done:  E(RB3LYP) =  -1068.89570256     A.U. after    7 cycles
 Optimization completed.
    -- Stationary point found.
 Normal termination of Gaussian 16 at Thu Dec 10 10:49:43 2020.

 --------------------------------------------------------------------
 #N Geom=AllCheck Guess=TCheck SCRF=Check GenChk RB3LYP/6-31G(d) Freq
 --------------------------------------------------------------------

 Structure from the checkpoint file:  "JID_4877.chk"
 ------------------------------
 CID_66177605_JID_4877_neutraal
 ------------------------------
 Charge =  0 Multiplicity = 1

 SCF Done:  E(RB3LYP) =  -1068.89570256     A.U. after    1 cycles

  Exact polarizability: 134.075  -1.692 109.918   2.269   0.394 104.904
 Approx polarizability: 183.065  -3.442 169.624   1.964  -1.525 153.707

                      1                      2                      3
                      A                      A                      A
 Frequencies --     40.5588                51.8108                76.3017
 Red. masses --      6.2065                 4.5539                 4.6089
 Frc consts  --      0.0060                 0.0072                 0.0158
 IR Inten    --      4.6149                 2.7092                 0.4547

                      4                      5                      6
                      A                      A                      A
 Frequencies --    109.8713               146.0355               167.4859
 Red. masses --      5.3527                 4.4171                 3.8013
 Frc consts  --      0.0381                 0.0555                 0.0628
 IR Inten    --      7.8809                 0.0767                 0.4643

                      7                      8                      9
                      A                      A                      A
 Frequencies --    219.3988               236.6891               244.7672
 Red. masses --      4.0279                 3.0326                 1.3840
 Frc consts  --      0.1142                 0.1001                 0.0489
 IR Inten    --      1.0216                19.4405                80.0706

                     10                     11                     12
                      A                      A                      A
 Frequencies --    257.2369               274.0248               292.4391
 Red. masses --      3.4365                 3.2744                 2.8936
 Frc consts  --      0.1340                 0.1449                 0.1458
 IR Inten    --     23.3478                 3.0972                 3.4682

                     13                     14                     15
                      A                      A                      A
 Frequencies --    302.5267               317.9799               391.0948
 Red. masses --      2.8466                 2.8283                 2.7295
 Frc consts  --      0.1535                 0.1685                 0.2460
 IR Inten    --      6.4756                 7.5332                 1.1666

                     16                     17                     18
                      A                      A                      A
 Frequencies --    410.0138               415.7890               437.3246
 Red. masses --      2.9493                 3.3205                 2.3852
 Frc consts  --      0.2921                 0.3382                 0.2688
 IR Inten    --      3.0829                15.0590                 5.8026

                     19                     20                     21
                      A                      A                      A
 Frequencies --    457.5135               466.7110               507.0497
 Red. masses --      2.6013                 1.1622                 6.3511
 Frc consts  --      0.3208                 0.1492                 0.9621
 IR Inten    --      8.8642               115.0760                22.6267

                     22                     23                     24
                      A                      A                      A
 Frequencies --    569.2435               620.3783               636.0977
 Red. masses --      3.3813                 2.5031                 2.8811
 Frc consts  --      0.6456                 0.5676                 0.6868
 IR Inten    --      4.4482                38.3457                20.5144

                     25                     26                     27
                      A                      A                      A
 Frequencies --    654.0533               662.4350               755.8813
 Red. masses --      2.0727                 1.7259                 3.1998
 Frc consts  --      0.5224                 0.4462                 1.0771
 IR Inten    --     51.3387                32.7599                 9.1864

                     28                     29                     30
                      A                      A                      A
 Frequencies --    805.0716               828.3099               868.3250
 Red. masses --      3.0010                 2.7882                 1.6074
 Frc consts  --      1.1460                 1.1271                 0.7140
 IR Inten    --      9.2832                16.7044                13.0379

                     31                     32                     33
                      A                      A                      A
 Frequencies --    875.3002               914.8026               950.2150
 Red. masses --      2.1594                 2.1121                 1.9559
 Frc consts  --      0.9748                 1.0414                 1.0405
 IR Inten    --     23.4172                13.0985                13.1125

                     34                     35                     36
                      A                      A                      A
 Frequencies --    968.8207               986.8229              1000.5094
 Red. masses --      2.3432                 2.1742                 1.9799
 Frc consts  --      1.2958                 1.2474                 1.1677
 IR Inten    --     14.6820                57.3415                13.2478

                     37                     38                     39
                      A                      A                      A
 Frequencies --   1040.5549              1065.7328              1076.3880
 Red. masses --      2.0645                 2.6760                 1.8593
 Frc consts  --      1.3170                 1.7907                 1.2692
 IR Inten    --      9.3855                70.0583                21.1192

                     40                     41                     42
                      A                      A                      A
 Frequencies --   1084.7325              1116.2727              1123.3020
 Red. masses --      2.6938                 3.5461                 2.7691
 Frc consts  --      1.8675                 2.6034                 2.0587
 IR Inten    --     39.0304                93.5798                33.3581

                     43                     44                     45
                      A                      A                      A
 Frequencies --   1144.6485              1148.7645              1174.4412
 Red. masses --      1.6274                 1.2679                 2.2634
 Frc consts  --      1.2563                 0.9858                 1.8394
 IR Inten    --      5.9149                 4.6609                31.0758

                     46                     47                     48
                      A                      A                      A
 Frequencies --   1195.9697              1209.9393              1233.5450
 Red. masses --      1.1159                 1.6230                 1.3045
 Frc consts  --      0.9404                 1.3999                 1.1695
 IR Inten    --     33.7118                18.6262                27.4427

                     49                     50                     51
                      A                      A                      A
 Frequencies --   1259.0899              1275.8247              1289.7173
 Red. masses --      1.3544                 1.5710                 1.8356
 Frc consts  --      1.2651                 1.5066                 1.7990
 IR Inten    --     22.2835               130.6667                28.4894

                     52                     53                     54
                      A                      A                      A
 Frequencies --   1313.1639              1316.7461              1328.3065
 Red. masses --      1.2621                 1.5523                 1.5402
 Frc consts  --      1.2823                 1.5857                 1.6011
 IR Inten    --     18.7837                40.5454                 3.8219

                     55                     56                     57
                      A                      A                      A
 Frequencies --   1338.5013              1367.9791              1371.4228
 Red. masses --      1.8002                 1.4004                 1.3227
 Frc consts  --      1.9002                 1.5440                 1.4657
 IR Inten    --     87.8464                12.8533                11.4261

                     58                     59                     60
                      A                      A                      A
 Frequencies --   1384.1994              1392.9358              1418.5963
 Red. masses --      1.3205                 1.3460                 1.3360
 Frc consts  --      1.4907                 1.5387                 1.5840
 IR Inten    --      1.9016                 2.7983                 1.7835

                     61                     62                     63
                      A                      A                      A
 Frequencies --   1427.0103              1448.8009              1466.6962
 Red. masses --      1.3422                 1.2382                 1.4572
 Frc consts  --      1.6104                 1.5313                 1.8469
 IR Inten    --      0.2382                57.0915                16.8640

                     64                     65                     66
                      A                      A                      A
 Frequencies --   1467.8336              1482.7572              1510.3648
 Red. masses --      1.1133                 1.0892                 1.0814
 Frc consts  --      1.4132                 1.4109                 1.4534
 IR Inten    --     12.5708                 5.7934                 4.2145

                     67                     68                     69
                      A                      A                      A
 Frequencies --   1516.0657              1523.1843              1547.1831
 Red. masses --      1.0807                 1.0927                 1.1259
 Frc consts  --      1.4635                 1.4937                 1.5879
 IR Inten    --      7.7897                 9.8664                30.2529

                     70                     71                     72
                      A                      A                      A
 Frequencies --   1570.5667              3008.5269              3018.5582
 Red. masses --      1.1840                 1.0832                 1.0560
 Frc consts  --      1.7207                 5.7766                 5.6690
 IR Inten    --     38.2447                23.7627                35.5927

                     73                     74                     75
                      A                      A                      A
 Frequencies --   3031.5538              3049.2181              3057.1471
 Red. masses --      1.0726                 1.0621                 1.1081
 Frc consts  --      5.8081                 5.8185                 6.1016
 IR Inten    --     45.9657                31.6710                59.0528

                     76                     77                     78
                      A                      A                      A
 Frequencies --   3068.2706              3083.0614              3086.4647
 Red. masses --      1.0644                 1.0600                 1.0887
 Frc consts  --      5.9038                 5.9365                 6.1103
 IR Inten    --     19.5923                 2.0678                32.6838

                     79                     80                     81
                      A                      A                      A
 Frequencies --   3095.4035              3099.9395              3107.0136
 Red. masses --      1.0587                 1.0985                 1.0933
 Frc consts  --      5.9768                 6.2196                 6.2186
 IR Inten    --      3.8590                53.8110                33.3731

                     82                     83                     84
                      A                      A                      A
 Frequencies --   3115.6001              3143.4819              3157.4193
 Red. masses --      1.0981                 1.1068                 1.1079
 Frc consts  --      6.2804                 6.4436                 6.5072
 IR Inten    --      7.4768                 4.5375                 2.1688

                     85                     86                     87
                      A                      A                      A
 Frequencies --   3555.2928              3701.3329              3776.3834
 Red. masses --      1.0751                 1.0651                 1.0668
 Frc consts  --      8.0070                 8.5972                 8.9636
 IR Inten    --     32.3822                38.1024                32.5761

 - Thermochemistry -
 -------------------
 Temperature   298.150 Kelvin.  Pressure   1.00000 Atm.
 Atom     1 has atomic number  6 and mass  12.00000

 Molecular mass:   223.08783 amu.
 Principal axes and moments of inertia in atomic units:
                           1         2         3
     Eigenvalues --  1600.527105119.376305475.40373
           X            0.99981  -0.01908   0.00251
           Y            0.01902   0.99961   0.02023
           Z           -0.00289  -0.02018   0.99979
 This molecule is an asymmetric top.
 Rotational symmetry number  1.
 Warning -- assumption of classical behavior for rotation
           may cause significant error
 Rotational temperatures (Kelvin)      0.05412     0.01692     0.01582
 Rotational constants (GHZ):           1.12759     0.35253     0.32961
 Zero-point vibrational energy     698049.7 (Joules/Mol)
                                  166.83788 (Kcal/Mol)
 Warning -- explicit consideration of  23 degrees of freedom as
           vibrations may cause significant error
 Vibrational temperatures:     58.36    74.54   109.78   158.08   210.11
          (Kelvin)            240.97   315.67   340.54   352.17   370.11
                              394.26   420.75   435.27   457.50   562.70
                              589.92   598.23   629.21   658.26   671.49
                              729.53   819.01   892.59   915.20   941.04
                              953.10  1087.54  1158.32  1191.75  1249.33
                             1259.36  1316.20  1367.15  1393.92  1419.82
                             1439.51  1497.13  1533.35  1548.68  1560.69
                             1606.07  1616.18  1646.89  1652.82  1689.76
                             1720.73  1740.83  1774.80  1811.55  1835.63
                             1855.62  1889.35  1894.50  1911.14  1925.80
                             1968.22  1973.17  1991.55  2004.12  2041.04
                             2053.15  2084.50  2110.25  2111.89  2133.36
                             2173.08  2181.28  2191.52  2226.05  2259.70
                             4328.60  4343.03  4361.73  4387.14  4398.55
                             4414.56  4435.84  4440.73  4453.60  4460.12
                             4470.30  4482.65  4522.77  4542.82  5115.27
                             5325.39  5433.37

 Zero-point correction=                           0.265873 (Hartree/Particle)
 Thermal correction to Energy=                    0.280508
 Thermal correction to Enthalpy=                  0.281452
 Thermal correction to Gibbs Free Energy=         0.224379
 Sum of electronic and zero-point Energies=          -1068.629829
 Sum of electronic and thermal Energies=             -1068.615195
 Sum of electronic and thermal Enthalpies=           -1068.614250
 Sum of electronic and thermal Free Energies=        -1068.671323

                     E (Thermal)             CV                S
                      KCal/Mol        Cal/Mol-Kelvin    Cal/Mol-Kelvin
 Total                  176.021             56.547            120.120
 Electronic               0.000              0.000              0.000
 Translational            0.889              2.981             42.110
 Rotational               0.889              2.981             32.173
 Vibrational            174.244             50.585             45.838
 Vibration     1          0.594              1.981              5.232
 Vibration     2          0.596              1.977              4.747
 Vibration     3          0.599              1.965              3.984
 Vibration     4          0.606              1.941              3.271
 Vibration     5          0.617              1.907              2.723
 Vibration     6          0.624              1.882              2.464
 Vibration     7          0.647              1.812              1.964
 Vibration     8          0.656              1.785              1.828
 Vibration     9          0.660              1.771              1.768
 Vibration    10          0.667              1.751              1.680
 Vibration    11          0.676              1.721              1.571
 Vibration    12          0.688              1.688              1.460
 Vibration    13          0.694              1.669              1.403
 Vibration    14          0.704              1.639              1.320
 Vibration    15          0.759              1.489              0.996
 Vibration    16          0.774              1.448              0.927
 Vibration    17          0.779              1.436              0.906
 Vibration    18          0.798              1.389              0.835
 Vibration    19          0.816              1.344              0.773
 Vibration    20          0.824              1.324              0.747
 Vibration    21          0.862              1.234              0.641
 Vibration    22          0.925              1.098              0.506
 Vibration    23          0.980              0.989              0.416

 Optimization completed.
    -- Stationary point found.
 Normal termination of Gaussian 16 at Thu Dec 10 11:00:39 2020.

 ----------------------------------------------------------------------
 # B3LYP/6-311++G(d,p) empiricaldispersion=gd3bj scf=xqc pop=npa geom=c
 heck
 ----------------------------------------------------------------------

 --------------------------------------
 CID_66177605_JID_4877_Energie_neutraal
 --------------------------------------
 Structure from the checkpoint file:  "JID_4877.chk"
 Charge =  0 Multiplicity = 1

 SCF Done:  E(RB3LYP) =  -1069.14236531     A.U. after   14 cycles
 Normal termination of Gaussian 16 at Thu Dec 10 11:05:55 2020.

 ----------------------------------------------------------------------
 # B3LYP/6-311++G(d,p) empiricaldispersion=gd3bj scf=xqc pop=npa geom=c
 heck
 ----------------------------------------------------------------------

 ------------------------------------
 CID_66177605_JID_4877_Energie_kation
 ------------------------------------
 Structure from the checkpoint file:  "JID_4877.chk"
 Charge =  1 Multiplicity = 2

 SCF Done:  E(UB3LYP) =  -1068.84292897     A.U. after   20 cycles
 Normal termination of Gaussian 16 at Thu Dec 10 11:15:44 2020.
 Gaussian 16:  ES64L-G16RevA.03 25-Dec-2016

 ----------------------------------------------------------------------
 # B3LYP/6-311++G(d,p) empiricaldispersion=gd3bj scf=xqc pop=npa geom=c
 heck
 ----------------------------------------------------------------------

 -----------------------------------
 CID_66177605_JID_4877_Energie_anion
 -----------------------------------
 Structure from the checkpoint file:  "JID_4877.chk"
 Charge = -1 Multiplicity = 2

                         Standard orientation:
 ---------------------------------------------------------------------
 Center     Atomic      Atomic             Coordinates (Angstroms)
 Number     Number       Type             X           Y           Z
 ---------------------------------------------------------------------
      1          6           0        0.808792   -0.966810    1.591988
      2          6           0        0.476227   -1.909015    0.428455
      3          6           0        0.457167   -1.237127   -0.971401
      4          6           0        1.824929   -0.607021   -1.292247
      5         16           0        2.338940    0.617646   -0.054778
      6          8           0        3.744649    0.978237   -0.288397
      7          8           0        1.303787    1.675092    0.009348
      8          6           0        2.205971   -0.352507    1.468663
      9          7           0       -0.575477   -0.253887   -1.244445
     10          6           0       -1.971361   -0.617053   -1.068788
     11          6           0       -2.596418   -0.369463    0.323444
     12          6           0       -2.519827    1.094459    0.751976
     13          8           0       -3.330716    1.819994   -0.175269
     14          8           0       -3.954147   -0.794213    0.320751
     15          1           0        0.075011   -0.156587    1.648073
     16          1           0        0.753828   -1.511110    2.541643
     17          1           0       -0.495597   -2.381203    0.602640
     18          1           0        1.212305   -2.725943    0.405872
     19          1           0        0.325715   -2.052412   -1.698305
     20          1           0        1.794654   -0.068867   -2.243573
     21          1           0        2.623408   -1.353602   -1.320945
     22          1           0        2.994983   -1.110286    1.427217
     23          1           0        2.434471    0.349620    2.276143
     24          1           0       -0.344022    0.662387   -0.875616
     25          1           0       -2.573086   -0.055824   -1.794444
     26          1           0       -2.096133   -1.678657   -1.310662
     27          1           0       -2.088799   -0.974760    1.081430
     28          1           0       -2.914390    1.186148    1.774069
     29          1           0       -1.482375    1.458220    0.746261
     30          1           0       -3.394477    2.738309    0.123419
     31          1           0       -4.441655   -0.076225   -0.119668
 ---------------------------------------------------------------------

 SCF Done:  E(UB3LYP) =  -1069.13731221     A.U. after   25 cycles

 The electronic state is 2-A.
 Alpha  occ. eigenvalues --  -88.95074 -19.03934 -19.02741 -19.02306 -19.02207
 Alpha  occ. eigenvalues --  -14.19995 -10.12623 -10.12601 -10.12483 -10.11836
 Alpha  occ. eigenvalues --  -10.11808 -10.09657 -10.09295 -10.08068  -8.01610
 Alpha  occ. eigenvalues --   -5.97880  -5.97757  -5.97697  -1.01343  -0.94891
 Alpha  occ. eigenvalues --   -0.92144  -0.91083  -0.82178  -0.74181  -0.69045
 Alpha  occ. eigenvalues --   -0.65942  -0.64705  -0.58521  -0.55407  -0.52933
 Alpha  occ. eigenvalues --   -0.50641  -0.47056  -0.44442  -0.42503  -0.40817
 Alpha  occ. eigenvalues --   -0.39833  -0.39261  -0.38834  -0.37575  -0.36824
 Alpha  occ. eigenvalues --   -0.35816  -0.34941  -0.33474  -0.32598  -0.32337
 Alpha  occ. eigenvalues --   -0.31298  -0.30004  -0.27519  -0.27331  -0.26613
 Alpha  occ. eigenvalues --   -0.25810  -0.25513  -0.23950  -0.23711  -0.22928
 Alpha  occ. eigenvalues --   -0.21357  -0.19758  -0.19474  -0.18971  -0.12431
 Alpha  occ. eigenvalues --    0.03701
 Alpha virt. eigenvalues --    0.05331   0.06839   0.08117   0.08588   0.09100
 Alpha virt. eigenvalues --    0.09782   0.10127   0.10805   0.11204   0.11922
 Alpha virt. eigenvalues --    0.12101   0.13047   0.13583   0.13640   0.14640

  Beta  occ. eigenvalues --  -88.95073 -19.03891 -19.02733 -19.02303 -19.02197
  Beta  occ. eigenvalues --  -14.19992 -10.12612 -10.12597 -10.12464 -10.11815
  Beta  occ. eigenvalues --  -10.11779 -10.09647 -10.09272 -10.08033  -8.01609
  Beta  occ. eigenvalues --   -5.97877  -5.97756  -5.97697  -1.01329  -0.94830
  Beta  occ. eigenvalues --   -0.92091  -0.91067  -0.82162  -0.74139  -0.69004
  Beta  occ. eigenvalues --   -0.65890  -0.64649  -0.58471  -0.55350  -0.52891
  Beta  occ. eigenvalues --   -0.50604  -0.46996  -0.44359  -0.42451  -0.40789
  Beta  occ. eigenvalues --   -0.39802  -0.39236  -0.38801  -0.37547  -0.36796
  Beta  occ. eigenvalues --   -0.35789  -0.34892  -0.33430  -0.32568  -0.32291
  Beta  occ. eigenvalues --   -0.31263  -0.29966  -0.27489  -0.27295  -0.26578
  Beta  occ. eigenvalues --   -0.25775  -0.25458  -0.23926  -0.23683  -0.22918
  Beta  occ. eigenvalues --   -0.21341  -0.19725  -0.19445  -0.18945  -0.12417
  Beta virt. eigenvalues --    0.06210   0.06786   0.07647   0.08601   0.09209
  Beta virt. eigenvalues --    0.09398   0.10121   0.10429   0.10986   0.11550
  Beta virt. eigenvalues --    0.12211   0.12537   0.13246   0.13826   0.13859

 Mulliken charges and spin densities:
               1          2
     1  C   -0.235834   0.031175
     2  C    0.843173  -1.156182
     3  C   -0.556086   0.500290
     4  C   -0.333251  -0.598981
     5  S    0.699248  -0.304206
     6  O   -0.089036   0.017870
     7  O   -0.242482  -0.000450
     8  C    0.130619  -0.900528
     9  N    0.070475  -0.100616
    10  C    0.076092  -0.346870
    11  C   -0.555647   0.183007
    12  C    0.451991  -0.832351
    13  O   -0.281780   0.018865
    14  O   -0.192217   0.019549
    15  H    0.401668  -0.232482
    16  H   -0.665275   0.878913
    17  H    0.114130   0.049316
    18  H   -0.702757   0.907708
    19  H   -0.311365   0.546355
    20  H    0.238164   0.025397
    21  H   -0.157993   0.418829
    22  H   -0.059441   0.306568
    23  H   -0.090624   0.327276
    24  H    0.250789  -0.008236
    25  H    0.196395   0.012627
    26  H   -0.018412   0.181188
    27  H    0.109392   0.097453
    28  H   -0.241110   0.416014
    29  H    0.078036   0.084632
    30  H   -0.142574   0.420840
    31  H    0.215712   0.037030
 Sum of Mulliken charges =  -1.00000   1.00000

 Dipole moment (field-independent basis, Debye):
    X=             -0.8709    Y=              1.3587    Z=             -1.9118  Tot=              2.5019
 Quadrupole moment (field-independent basis, Debye-Ang):
   XX=           -163.3831   YY=           -147.5425   ZZ=           -126.2349
   XY=              7.1158   XZ=              0.6798   YZ=              5.3602

 Summary of Natural Population Analysis:

                                       Natural Population
                Natural  -----------------------------------------------
    Atom  No    Charge         Core      Valence    Rydberg      Total
 -----------------------------------------------------------------------
      C    1   -0.20708      0.99961     2.19643    0.01104     3.20708
      C    2   -0.20169      0.99960     2.19102    0.01107     3.20169
      C    3   -0.01418      0.99958     1.99845    0.01615     3.01418
      C    4   -0.29109      0.99956     2.27881    0.01273     3.29109
      S    5    1.02001      4.99924     1.88780    0.09296     6.97999
      O    6   -0.46770      0.99991     3.46228    0.00551     4.46770
      O    7   -0.47886      0.99991     3.47325    0.00570     4.47886
      C    8   -0.28659      0.99959     2.27516    0.01185     3.28659
      N    9   -0.35930      0.99972     2.84754    0.01204     3.85930
      C   10   -0.09781      0.99960     2.08598    0.01223     3.09781
      C   11    0.04575      0.99957     1.94199    0.01269     2.95425
      C   12   -0.02717      0.99958     2.01519    0.01241     3.02717
      O   13   -0.38213      0.99989     3.37530    0.00695     4.38213
      O   14   -0.37318      0.99990     3.36697    0.00631     4.37318
      H   15    0.10248      0.00000     0.39491    0.00261     0.39752
      H   16    0.11195      0.00000     0.38582    0.00223     0.38805
      H   17    0.10555      0.00000     0.39292    0.00152     0.39445
      H   18    0.10512      0.00000     0.39085    0.00404     0.39488
      H   19    0.10001      0.00000     0.39802    0.00197     0.39999
      H   20    0.12230      0.00000     0.37645    0.00125     0.37770
      H   21    0.12045      0.00000     0.37822    0.00133     0.37955
      H   22    0.11675      0.00000     0.38129    0.00195     0.38325
      H   23    0.11905      0.00000     0.37986    0.00109     0.38095
      H   24    0.19237      0.00000     0.30446    0.00317     0.30763
      H   25    0.09769      0.00000     0.40088    0.00144     0.40231
      H   26    0.09645      0.00000     0.40231    0.00124     0.40355
      H   27    0.08832      0.00000     0.40958    0.00210     0.41168
      H   28    0.08283      0.00000     0.41571    0.00146     0.41717
      H   29    0.08793      0.00000     0.41028    0.00180     0.41207
      H   30    0.23794      0.00000     0.25483    0.00723     0.26206
      H   31    0.23383      0.00000     0.26312    0.00305     0.26617
 =======================================================================
   * Total *    0.00000     17.99524    41.73565    0.26911    60.00000

 Normal termination of Gaussian 16 at Thu Dec 10 11:27:59 2020.
