 Gaussian 16, Revision A.03,

 -----------------------------------------------------------
 # opt freq B3LYP/6-31G(d) empiricaldispersion=gd3bj scf=xqc
 -----------------------------------------------------------

 ------------------------------
 CID_13034886_JID_7691_neutraal
 ------------------------------
 Symbolic Z-matrix:
 Charge =  0 Multiplicity = 1

 SCF Done:  E(RB3LYP) =  -762.613031811     A.U. after   15 cycles
 SCF Done:  E(RB3LYP) =  -762.616114529     A.U. after   13 cycles
 SCF Done:  E(RB3LYP) =  -762.616486915     A.U. after   12 cycles
 SCF Done:  E(RB3LYP) =  -762.617145021     A.U. after   12 cycles
 SCF Done:  E(RB3LYP) =  -762.617501081     A.U. after   12 cycles
 SCF Done:  E(RB3LYP) =  -762.617735295     A.U. after   12 cycles
 SCF Done:  E(RB3LYP) =  -762.618014807     A.U. after   12 cycles
 SCF Done:  E(RB3LYP) =  -762.618152760     A.U. after   12 cycles
 SCF Done:  E(RB3LYP) =  -762.618259567     A.U. after   11 cycles
 SCF Done:  E(RB3LYP) =  -762.618534576     A.U. after   12 cycles
 SCF Done:  E(RB3LYP) =  -762.619509236     A.U. after   10 cycles
 SCF Done:  E(RB3LYP) =  -762.619511603     A.U. after    9 cycles
 SCF Done:  E(RB3LYP) =  -762.619512836     A.U. after   10 cycles
 SCF Done:  E(RB3LYP) =  -762.619513220     A.U. after    8 cycles
 SCF Done:  E(RB3LYP) =  -762.619513271     A.U. after    7 cycles
 Optimization completed.
    -- Stationary point found.
 Normal termination of Gaussian 16 at Sun Dec 13 16:31:55 2020.

 --------------------------------------------------------------------
 #N Geom=AllCheck Guess=TCheck SCRF=Check GenChk RB3LYP/6-31G(d) Freq
 --------------------------------------------------------------------

 Structure from the checkpoint file:  "JID_7691.chk"
 ------------------------------
 CID_13034886_JID_7691_neutraal
 ------------------------------
 Charge =  0 Multiplicity = 1

 SCF Done:  E(RB3LYP) =  -762.619513271     A.U. after    1 cycles

  Exact polarizability: 211.382 -18.959 144.975  14.185   2.578  96.343
 Approx polarizability: 290.250 -33.146 247.709  34.195  13.714 165.028

                      1                      2                      3
                      A                      A                      A
 Frequencies --     20.4379                37.5066                42.2271
 Red. masses --      5.2037                 4.9404                 4.5858
 Frc consts  --      0.0013                 0.0041                 0.0048
 IR Inten    --      3.7550                 2.2970                 2.7341

                      4                      5                      6
                      A                      A                      A
 Frequencies --     72.9522               106.4520               128.0191
 Red. masses --      4.3700                 1.8175                 4.6469
 Frc consts  --      0.0137                 0.0121                 0.0449
 IR Inten    --      1.6268                 1.7387                 3.3098

                      7                      8                      9
                      A                      A                      A
 Frequencies --    144.6294               163.6437               209.6331
 Red. masses --      1.9558                 3.8247                 4.4344
 Frc consts  --      0.0241                 0.0603                 0.1148
 IR Inten    --      1.4956                 0.0332                 1.7273

                     10                     11                     12
                      A                      A                      A
 Frequencies --    256.6872               276.4965               335.9944
 Red. masses --      4.5619                 3.9857                 5.9334
 Frc consts  --      0.1771                 0.1795                 0.3947
 IR Inten    --      1.1643                 1.0564                 1.4368

                     13                     14                     15
                      A                      A                      A
 Frequencies --    376.0594               393.6714               424.9919
 Red. masses --      5.2232                 6.0233                 3.6649
 Frc consts  --      0.4352                 0.5500                 0.3900
 IR Inten    --      2.1822                 5.9762                 3.5989

                     16                     17                     18
                      A                      A                      A
 Frequencies --    447.4548               500.8326               519.3990
 Red. masses --      3.4319                 4.1329                 3.3294
 Frc consts  --      0.4048                 0.6108                 0.5292
 IR Inten    --      1.9093                 5.8229                12.9834

                     19                     20                     21
                      A                      A                      A
 Frequencies --    559.7628               598.2592               608.7900
 Red. masses --      3.1865                 2.2450                 7.4627
 Frc consts  --      0.5883                 0.4734                 1.6296
 IR Inten    --     19.5156                46.8616                 0.1766

                     22                     23                     24
                      A                      A                      A
 Frequencies --    618.1636               642.8726               679.1168
 Red. masses --      5.0648                 4.6740                 3.5799
 Frc consts  --      1.1403                 1.1381                 0.9728
 IR Inten    --      8.3976                16.0722                14.9530

                     25                     26                     27
                      A                      A                      A
 Frequencies --    706.8087               727.3785               753.4893
 Red. masses --      2.4721                 6.6239                 2.3912
 Frc consts  --      0.7276                 2.0648                 0.7999
 IR Inten    --      6.0422                 1.0422                 3.9600

                     28                     29                     30
                      A                      A                      A
 Frequencies --    768.3641               791.9442               816.6491
 Red. masses --      3.2623                 1.9172                 1.7227
 Frc consts  --      1.1348                 0.7085                 0.6769
 IR Inten    --     69.1553                31.3093                15.4043

                     31                     32                     33
                      A                      A                      A
 Frequencies --    850.4498               887.0847               918.9506
 Red. masses --      4.7088                 1.3258                 1.5165
 Frc consts  --      2.0066                 0.6147                 0.7545
 IR Inten    --     12.0831                 0.8425                 9.0277

                     34                     35                     36
                      A                      A                      A
 Frequencies --    923.9972               949.6136               974.1897
 Red. masses --      1.3966                 4.6559                 1.3935
 Frc consts  --      0.7025                 2.4737                 0.7792
 IR Inten    --      4.0798                99.6043                 0.7083

                     37                     38                     39
                      A                      A                      A
 Frequencies --    978.5225               998.0067              1009.0903
 Red. masses --      1.2682                 1.2973                 6.2573
 Frc consts  --      0.7155                 0.7613                 3.7540
 IR Inten    --      0.6743                 1.1531                 9.7465

                     40                     41                     42
                      A                      A                      A
 Frequencies --   1023.2684              1058.3092              1081.1129
 Red. masses --      6.1587                 1.9510                 2.1783
 Frc consts  --      3.7994                 1.2875                 1.5001
 IR Inten    --      1.5959                23.6073                 4.6671

                     43                     44                     45
                      A                      A                      A
 Frequencies --   1114.6078              1133.3321              1155.1256
 Red. masses --      1.5915                 1.4992                 1.4155
 Frc consts  --      1.1649                 1.1346                 1.1128
 IR Inten    --      2.4974                 1.1956                 9.4621

                     46                     47                     48
                      A                      A                      A
 Frequencies --   1162.9159              1187.6380              1194.2292
 Red. masses --      1.4978                 1.1312                 2.0556
 Frc consts  --      1.1934                 0.9400                 1.7273
 IR Inten    --     15.1407                10.4769                33.2407

                     49                     50                     51
                      A                      A                      A
 Frequencies --   1197.7116              1264.2378              1294.9791
 Red. masses --      1.1913                 3.7868                 4.0773
 Frc consts  --      1.0069                 3.5660                 4.0285
 IR Inten    --      5.4996                10.0410               447.4079

                     52                     53                     54
                      A                      A                      A
 Frequencies --   1318.1232              1338.6091              1345.5418
 Red. masses --      1.9551                 2.1993                 2.2214
 Frc consts  --      2.0014                 2.3218                 2.3695
 IR Inten    --     28.2480                33.6240                58.1852

                     55                     56                     57
                      A                      A                      A
 Frequencies --   1369.6782              1388.9175              1471.7466
 Red. masses --      4.4796                 2.7007                 2.3296
 Frc consts  --      4.9514                 3.0696                 2.9730
 IR Inten    --     39.1804               316.8991               131.1212

                     58                     59                     60
                      A                      A                      A
 Frequencies --   1479.2075              1488.0892              1500.1222
 Red. masses --      2.0794                 1.6783                 1.5131
 Frc consts  --      2.6806                 2.1896                 2.0061
 IR Inten    --     59.1850                30.2581                90.8419

                     61                     62                     63
                      A                      A                      A
 Frequencies --   1520.7589              1522.7183              1536.3982
 Red. masses --      2.1476                 1.0918                 2.3265
 Frc consts  --      2.9264                 1.4915                 3.2357
 IR Inten    --    150.7303                 9.8636                12.1455

                     64                     65                     66
                      A                      A                      A
 Frequencies --   1553.8283              1636.4401              1642.7886
 Red. masses --      1.1409                 6.1866                 5.4388
 Frc consts  --      1.6229                 9.7611                 8.6481
 IR Inten    --     29.3884               101.0949               142.1630

                     67                     68                     69
                      A                      A                      A
 Frequencies --   1652.9070              1662.4943              1767.2592
 Red. masses --      6.3007                 6.0522                 7.9871
 Frc consts  --     10.1423                 9.8557                14.6974
 IR Inten    --      2.2748                 6.4368               271.4483

                     70                     71                     72
                      A                      A                      A
 Frequencies --   3042.2548              3099.8691              3165.7602
 Red. masses --      1.0423                 1.0997                 1.0989
 Frc consts  --      5.6838                 6.2263                 6.4889
 IR Inten    --     60.6061                30.9062                12.5580

                     73                     74                     75
                      A                      A                      A
 Frequencies --   3177.3906              3197.4871              3201.0661
 Red. masses --      1.0895                 1.0873                 1.0891
 Frc consts  --      6.4804                 6.5494                 6.5750
 IR Inten    --     28.3577                 8.0737                 8.8841

                     76                     77                     78
                      A                      A                      A
 Frequencies --   3217.2232              3222.5570              3225.4852
 Red. masses --      1.0917                 1.0956                 1.0953
 Frc consts  --      6.6574                 6.7033                 6.7139
 IR Inten    --     12.1842                21.7736                 6.5603

                     79                     80                     81
                      A                      A                      A
 Frequencies --   3235.2528              3238.6806              3593.8916
 Red. masses --      1.0913                 1.0936                 1.0755
 Frc consts  --      6.7300                 6.7583                 8.1848
 IR Inten    --      3.8034                 1.5036                27.6075

 - Thermochemistry -
 -------------------
 Temperature   298.150 Kelvin.  Pressure   1.00000 Atm.
 Atom     1 has atomic number  6 and mass  12.00000

 Molecular mass:   228.08988 amu.
 Principal axes and moments of inertia in atomic units:
                           1         2         3
     Eigenvalues --  1889.502987137.688878266.08812
           X            0.99990  -0.01162  -0.00777
           Y            0.01152   0.99985  -0.01284
           Z            0.00792   0.01275   0.99989
 This molecule is an asymmetric top.
 Rotational symmetry number  1.
 Warning -- assumption of classical behavior for rotation
           may cause significant error
 Rotational temperatures (Kelvin)      0.04584     0.01213     0.01048
 Rotational constants (GHZ):           0.95514     0.25285     0.21833
 Zero-point vibrational energy     603507.7 (Joules/Mol)
                                  144.24180 (Kcal/Mol)
 Warning -- explicit consideration of  22 degrees of freedom as
           vibrations may cause significant error
 Vibrational temperatures:     29.41    53.96    60.76   104.96   153.16
          (Kelvin)            184.19   208.09   235.45   301.62   369.32
                              397.82   483.42   541.07   566.41   611.47
                              643.79   720.59   747.30   805.37   860.76
                              875.91   889.40   924.95   977.10  1016.94
                             1046.54  1084.10  1105.50  1139.43  1174.98
                             1223.61  1276.32  1322.17  1329.43  1366.28
                             1401.64  1407.88  1435.91  1451.86  1472.26
                             1522.67  1555.48  1603.67  1630.61  1661.97
                             1673.18  1708.75  1718.23  1723.24  1818.96
                             1863.19  1896.49  1925.96  1935.93  1970.66
                             1998.34  2117.52  2128.25  2141.03  2158.34
                             2188.03  2190.85  2210.53  2235.61  2354.47
                             2363.61  2378.16  2391.96  2542.69  4377.13
                             4460.02  4554.82  4571.56  4600.47  4605.62
                             4628.87  4636.54  4640.75  4654.81  4659.74
                             5170.81

 Zero-point correction=                           0.229864 (Hartree/Particle)
 Thermal correction to Energy=                    0.244480
 Thermal correction to Enthalpy=                  0.245424
 Thermal correction to Gibbs Free Energy=         0.185814
 Sum of electronic and zero-point Energies=           -762.389649
 Sum of electronic and thermal Energies=              -762.375033
 Sum of electronic and thermal Enthalpies=            -762.374089
 Sum of electronic and thermal Free Energies=         -762.433699

                     E (Thermal)             CV                S
                      KCal/Mol        Cal/Mol-Kelvin    Cal/Mol-Kelvin
 Total                  153.413             55.304            125.459
 Electronic               0.000              0.000              0.000
 Translational            0.889              2.981             42.176
 Rotational               0.889              2.981             33.077
 Vibrational            151.636             49.343             50.206
 Vibration     1          0.593              1.986              6.591
 Vibration     2          0.594              1.982              5.387
 Vibration     3          0.595              1.980              5.152
 Vibration     4          0.599              1.967              4.072
 Vibration     5          0.605              1.944              3.333
 Vibration     6          0.611              1.925              2.976
 Vibration     7          0.616              1.908              2.742
 Vibration     8          0.623              1.887              2.507
 Vibration     9          0.642              1.826              2.047
 Vibration    10          0.666              1.751              1.684
 Vibration    11          0.678              1.717              1.555
 Vibration    12          0.717              1.604              1.231
 Vibration    13          0.747              1.521              1.055
 Vibration    14          0.761              1.484              0.986
 Vibration    15          0.787              1.416              0.875
 Vibration    16          0.807              1.367              0.804
 Vibration    17          0.856              1.248              0.656
 Vibration    18          0.874              1.207              0.611
 Vibration    19          0.915              1.118              0.524
 Vibration    20          0.956              1.035              0.453
 Vibration    21          0.968              1.013              0.435
 Vibration    22          0.978              0.994              0.419

                           ! Non-Optimized Parameters !
 Normal termination of Gaussian 16 at Sun Dec 13 16:41:04 2020.

 ----------------------------------------------------------------------
 # B3LYP/6-311++G(d,p) empiricaldispersion=gd3bj scf=xqc pop=npa geom=c
 heck
 ----------------------------------------------------------------------

 --------------------------------------
 CID_13034886_JID_7691_Energie_neutraal
 --------------------------------------
 Structure from the checkpoint file:  "JID_7691.chk"
 Charge =  0 Multiplicity = 1

 SCF Done:  E(RB3LYP) =  -762.827392581     A.U. after   16 cycles
 Normal termination of Gaussian 16 at Sun Dec 13 16:45:41 2020.

 ----------------------------------------------------------------------
 # B3LYP/6-311++G(d,p) empiricaldispersion=gd3bj scf=xqc pop=npa geom=c
 heck
 ----------------------------------------------------------------------

 ------------------------------------
 CID_13034886_JID_7691_Energie_kation
 ------------------------------------
 Structure from the checkpoint file:  "JID_7691.chk"
 Charge =  1 Multiplicity = 2

 SCF Done:  E(UB3LYP) =  -762.526519630     A.U. after   28 cycles
 Normal termination of Gaussian 16 at Sun Dec 13 16:57:20 2020.
 Gaussian 16:  ES64L-G16RevA.03 25-Dec-2016

 ----------------------------------------------------------------------
 # B3LYP/6-311++G(d,p) empiricaldispersion=gd3bj scf=xqc pop=npa geom=c
 heck
 ----------------------------------------------------------------------

 -----------------------------------
 CID_13034886_JID_7691_Energie_anion
 -----------------------------------
 Structure from the checkpoint file:  "JID_7691.chk"
 Charge = -1 Multiplicity = 2

                         Standard orientation:
 ---------------------------------------------------------------------
 Center     Atomic      Atomic             Coordinates (Angstroms)
 Number     Number       Type             X           Y           Z
 ---------------------------------------------------------------------
      1          6           0        4.664804    0.413130   -0.966532
      2          7           0        3.885228    1.396826   -0.228635
      3          6           0        2.554189    1.352755    0.100618
      4          8           0        1.934528    2.377050    0.372674
      5          6           0        1.881713    0.010959    0.157113
      6          6           0        0.544409   -0.045145   -0.245529
      7          6           0       -0.154625   -1.246107   -0.146769
      8          6           0        0.463405   -2.392418    0.355957
      9          6           0        1.793102   -2.328059    0.767682
     10          6           0        2.505516   -1.132761    0.671570
     11          8           0       -1.449194   -1.381569   -0.601980
     12          6           0       -2.405168   -0.447927   -0.278825
     13          6           0       -2.333080    0.331916    0.883749
     14          6           0       -3.381737    1.209822    1.132074
     15          6           0       -4.452089    1.271859    0.237389
     16          6           0       -4.417053    0.435319   -0.875166
     17          7           0       -3.413299   -0.410932   -1.139424
     18          1           0        4.009010   -0.359978   -1.368880
     19          1           0        5.423401   -0.069350   -0.337148
     20          1           0        5.173365    0.899485   -1.805714
     21          1           0        4.239862    2.345373   -0.213120
     22          1           0        0.063750    0.852235   -0.617217
     23          1           0       -0.109043   -3.311743    0.418876
     24          1           0        2.271958   -3.213255    1.175697
     25          1           0        3.531470   -1.082606    1.020298
     26          1           0       -1.489795    0.253717    1.558768
     27          1           0       -3.363044    1.834710    2.020272
     28          1           0       -5.287334    1.945266    0.397656
     29          1           0       -5.230084    0.440982   -1.598608
 ---------------------------------------------------------------------

 SCF Done:  E(UB3LYP) =  -762.828963230     A.U. after   33 cycles
 SCF Done:  E(UB3LYP) =  -762.828963230     a.u. after    1 cycles

 The electronic state is 2-A.
 Alpha  occ. eigenvalues --  -19.04423 -18.95373 -14.21491 -14.18517 -10.15025
 Alpha  occ. eigenvalues --  -10.13725 -10.11096 -10.09894 -10.09150 -10.07014
 Alpha  occ. eigenvalues --  -10.06599 -10.06224 -10.05498 -10.05148 -10.04894
 Alpha  occ. eigenvalues --  -10.04378 -10.04339  -0.96945  -0.90763  -0.82775
 Alpha  occ. eigenvalues --   -0.79970  -0.73431  -0.69196  -0.65555  -0.63445
 Alpha  occ. eigenvalues --   -0.61895  -0.59671  -0.53633  -0.52636  -0.51551
 Alpha  occ. eigenvalues --   -0.47858  -0.45714  -0.43249  -0.39494  -0.38447
 Alpha  occ. eigenvalues --   -0.37984  -0.37374  -0.35533  -0.35018  -0.34085
 Alpha  occ. eigenvalues --   -0.33471  -0.31822  -0.30636  -0.29966  -0.29155
 Alpha  occ. eigenvalues --   -0.28764  -0.27867  -0.26956  -0.26823  -0.25508
 Alpha  occ. eigenvalues --   -0.24198  -0.22832  -0.22003  -0.17777  -0.15417
 Alpha  occ. eigenvalues --   -0.14786  -0.14304  -0.13923  -0.12420  -0.11209
 Alpha  occ. eigenvalues --    0.04415
 Alpha virt. eigenvalues --    0.06334   0.07609   0.07713   0.08383   0.09451
 Alpha virt. eigenvalues --    0.09522   0.09645   0.09769   0.10998   0.11170
 Alpha virt. eigenvalues --    0.11591   0.12728   0.12905   0.13649   0.14153

  Beta  occ. eigenvalues --  -19.04438 -18.95220 -14.21461 -14.18343 -10.15041
  Beta  occ. eigenvalues --  -10.13615 -10.11139 -10.09866 -10.09051 -10.06829
  Beta  occ. eigenvalues --  -10.06638 -10.06189 -10.05475 -10.05107 -10.04715
  Beta  occ. eigenvalues --  -10.04258 -10.04111  -0.96955  -0.90486  -0.82530
  Beta  occ. eigenvalues --   -0.79833  -0.73177  -0.68928  -0.65381  -0.63064
  Beta  occ. eigenvalues --   -0.61697  -0.59576  -0.53554  -0.52270  -0.51144
  Beta  occ. eigenvalues --   -0.47753  -0.45540  -0.43144  -0.39400  -0.38345
  Beta  occ. eigenvalues --   -0.37894  -0.37230  -0.35381  -0.34780  -0.33963
  Beta  occ. eigenvalues --   -0.33380  -0.31679  -0.30541  -0.29693  -0.29050
  Beta  occ. eigenvalues --   -0.28574  -0.27581  -0.26863  -0.26301  -0.25249
  Beta  occ. eigenvalues --   -0.24031  -0.22522  -0.21647  -0.16826  -0.15192
  Beta  occ. eigenvalues --   -0.14293  -0.13873  -0.13329  -0.11720  -0.10704
  Beta virt. eigenvalues --    0.06830   0.07655   0.08303   0.08503   0.09353
  Beta virt. eigenvalues --    0.09518   0.09734   0.09852   0.09971   0.10966
  Beta virt. eigenvalues --    0.11269   0.11623   0.12713   0.12926   0.13622

 Mulliken charges and spin densities:
               1          2
     1  C    0.171660  -0.596228
     2  N   -0.312037   0.076821
     3  C   -0.429206   0.185963
     4  O   -0.377710   0.055299
     5  C    0.735218  -0.045325
     6  C    0.596687  -0.106200
     7  C   -0.813825  -0.048260
     8  C    0.029229   0.209344
     9  C   -0.336829  -0.071790
    10  C   -0.417345   0.246236
    11  O    0.021940   0.002612
    12  C   -0.880713   0.008425
    13  C    0.569543   0.026342
    14  C   -0.328325   0.139849
    15  C   -0.048498  -0.019768
    16  C   -0.278396   0.083857
    17  N   -0.088080   0.074483
    18  H    0.119176   0.043675
    19  H   -0.009018   0.161368
    20  H   -0.256626   0.382085
    21  H    0.126812   0.170250
    22  H    0.232265  -0.004361
    23  H    0.145591  -0.016076
    24  H    0.119712   0.009800
    25  H    0.089468   0.051072
    26  H    0.196917  -0.003898
    27  H    0.152322  -0.011464
    28  H    0.117995   0.002678
    29  H    0.152074  -0.006792
 Sum of Mulliken charges =  -1.00000   1.00000

 Dipole moment (field-independent basis, Debye):
    X=             -1.4714    Y=             -1.4713    Z=              1.4585  Tot=              2.5410
 Quadrupole moment (field-independent basis, Debye-Ang):
   XX=           -152.0610   YY=           -124.4720   ZZ=           -115.1225
   XY=            -13.9137   XZ=             -2.5862   YZ=             -2.8953

 Summary of Natural Population Analysis:

                                       Natural Population
                Natural  -----------------------------------------------
    Atom  No    Charge         Core      Valence    Rydberg      Total
 -----------------------------------------------------------------------
      C    1   -0.18089      0.99965     2.17301    0.00822     3.18089
      N    2   -0.32128      0.99968     2.81167    0.00993     3.82128
      C    3    0.35158      0.99961     1.62527    0.02353     2.64842
      O    4   -0.31437      0.99988     3.30916    0.00534     4.31437
      C    5   -0.03476      0.99947     2.02478    0.01051     3.03476
      C    6   -0.08916      0.99948     2.08097    0.00872     3.08916
      C    7    0.13860      0.99936     1.84736    0.01469     2.86140
      C    8   -0.07773      0.99952     2.06981    0.00840     3.07773
      C    9   -0.10115      0.99958     2.09351    0.00806     3.10115
      C   10   -0.10118      0.99954     2.09196    0.00968     3.10118
      O   11   -0.26830      0.99983     3.25735    0.01112     4.26830
      C   12    0.26381      0.99942     1.71963    0.01714     2.73619
      C   13   -0.14302      0.99951     2.13652    0.00699     3.14302
      C   14   -0.04893      0.99958     2.04033    0.00902     3.04893
      C   15   -0.15215      0.99957     2.14375    0.00884     3.15215
      C   16    0.04184      0.99960     1.94408    0.01447     2.95816
      N   17   -0.22458      0.99966     2.71459    0.01034     3.72458
      H   18    0.10670      0.00000     0.39246    0.00084     0.39330
      H   19    0.08590      0.00000     0.41307    0.00103     0.41410
      H   20    0.09275      0.00000     0.40586    0.00139     0.40725
      H   21    0.18770      0.00000     0.30938    0.00292     0.31230
      H   22    0.11295      0.00000     0.38595    0.00110     0.38705
      H   23    0.09873      0.00000     0.40031    0.00096     0.40127
      H   24    0.09260      0.00000     0.40615    0.00124     0.40740
      H   25    0.09671      0.00000     0.40188    0.00140     0.40329
      H   26    0.11406      0.00000     0.38507    0.00088     0.38594
      H   27    0.09459      0.00000     0.40447    0.00094     0.40541
      H   28    0.09677      0.00000     0.40212    0.00112     0.40323
      H   29    0.08222      0.00000     0.41650    0.00128     0.41778
 =======================================================================
   * Total *   -0.00000     16.99293    42.80698    0.20009    60.00000

 Normal termination of Gaussian 16 at Sun Dec 13 17:10:42 2020.
