 Gaussian 16, Revision A.03,

 -----------------------------------------------------------
 # opt freq B3LYP/6-31G(d) empiricaldispersion=gd3bj scf=xqc
 -----------------------------------------------------------

 -------------------------------
 CID_19437444_JID_10073_neutraal
 -------------------------------
 Symbolic Z-matrix:
 Charge =  0 Multiplicity = 1

 SCF Done:  E(RB3LYP) =  -1673.79832560     A.U. after   15 cycles
 SCF Done:  E(RB3LYP) =  -1673.77722966     A.U. after   15 cycles
 SCF Done:  E(RB3LYP) =  -1673.79542445     A.U. after   13 cycles
 SCF Done:  E(RB3LYP) =  -1673.80033518     A.U. after   10 cycles
 SCF Done:  E(RB3LYP) =  -1673.80246947     A.U. after   12 cycles
 SCF Done:  E(RB3LYP) =  -1673.80542285     A.U. after   12 cycles
 SCF Done:  E(RB3LYP) =  -1673.77049569     A.U. after   13 cycles
 SCF Done:  E(RB3LYP) =  -1673.80781663     A.U. after   12 cycles
 SCF Done:  E(RB3LYP) =  -1673.80918748     A.U. after   13 cycles
 SCF Done:  E(RB3LYP) =  -1673.81117520     A.U. after   14 cycles
 SCF Done:  E(RB3LYP) =  -1673.81819026     A.U. after   11 cycles
 SCF Done:  E(RB3LYP) =  -1673.81819145     A.U. after    8 cycles
 SCF Done:  E(RB3LYP) =  -1673.81819259     A.U. after    9 cycles
 SCF Done:  E(RB3LYP) =  -1673.81819295     A.U. after    8 cycles
 SCF Done:  E(RB3LYP) =  -1673.81819305     A.U. after    8 cycles
 Optimization completed.
    -- Stationary point found.
 Normal termination of Gaussian 16 at Mon Dec 14 14:15:06 2020.

 --------------------------------------------------------------------
 #N Geom=AllCheck Guess=TCheck SCRF=Check GenChk RB3LYP/6-31G(d) Freq
 --------------------------------------------------------------------

 Structure from the checkpoint file:  "JID_10073.chk"
 -------------------------------
 CID_19437444_JID_10073_neutraal
 -------------------------------
 Charge =  0 Multiplicity = 1

 SCF Done:  E(RB3LYP) =  -1673.81819305     A.U. after    1 cycles

  Exact polarizability: 238.113 -10.845 138.757  -4.097 -13.133 175.707
 Approx polarizability: 367.985 -26.222 209.031  -7.021 -27.273 304.396

                      1                      2                      3
                      A                      A                      A
 Frequencies --     40.4873                45.7851                64.6882
 Red. masses --      6.7561                 6.2462                 8.5056
 Frc consts  --      0.0065                 0.0077                 0.0210
 IR Inten    --      0.6395                 0.8600                 0.9370

                      4                      5                      6
                      A                      A                      A
 Frequencies --     83.1498                84.3944               100.0888
 Red. masses --      6.2937                 5.4418                 5.2698
 Frc consts  --      0.0256                 0.0228                 0.0311
 IR Inten    --      0.2621                 0.4227                 2.4675

                      7                      8                      9
                      A                      A                      A
 Frequencies --    107.6147               111.3493               122.0213
 Red. masses --      5.6915                 5.8815                 6.9902
 Frc consts  --      0.0388                 0.0430                 0.0613
 IR Inten    --      1.9046                 1.4488                 0.6370

                     10                     11                     12
                      A                      A                      A
 Frequencies --    143.4196               163.8681               189.9645
 Red. masses --      6.3366                 4.8499                 7.1800
 Frc consts  --      0.0768                 0.0767                 0.1527
 IR Inten    --      1.0905                 3.7151                 4.1887

                     13                     14                     15
                      A                      A                      A
 Frequencies --    217.4134               223.6521               262.0351
 Red. masses --      3.0317                 5.6506                 3.2344
 Frc consts  --      0.0844                 0.1665                 0.1308
 IR Inten    --      4.0936                 7.6903                 3.1196

                     16                     17                     18
                      A                      A                      A
 Frequencies --    266.2409               284.7516               316.7495
 Red. masses --      4.4287                 4.0505                 3.6410
 Frc consts  --      0.1850                 0.1935                 0.2152
 IR Inten    --      3.6483                 0.3701                 3.3523

                     19                     20                     21
                      A                      A                      A
 Frequencies --    325.9716               350.8535               363.5094
 Red. masses --      4.0274                 3.4043                 3.5145
 Frc consts  --      0.2521                 0.2469                 0.2736
 IR Inten    --      0.4925                14.0158                 6.1677

                     22                     23                     24
                      A                      A                      A
 Frequencies --    386.8282               405.1107               417.0626
 Red. masses --      1.4154                 1.3564                 6.1135
 Frc consts  --      0.1248                 0.1312                 0.6265
 IR Inten    --     47.1538                32.1342                 1.5277

                     25                     26                     27
                      A                      A                      A
 Frequencies --    446.9515               467.0994               502.3108
 Red. masses --      2.6891                 3.0284                 3.4714
 Frc consts  --      0.3165                 0.3893                 0.5161
 IR Inten    --     16.7186                37.3840                 2.9755

                     28                     29                     30
                      A                      A                      A
 Frequencies --    509.3596               523.0545               545.5823
 Red. masses --      1.8859                 3.7061                 2.5251
 Frc consts  --      0.2883                 0.5974                 0.4428
 IR Inten    --     20.7608                12.3986               107.7369

                     31                     32                     33
                      A                      A                      A
 Frequencies --    560.9732               580.6849               613.7225
 Red. masses --      2.8660                 2.0277                 1.8896
 Frc consts  --      0.5314                 0.4028                 0.4193
 IR Inten    --      8.3416               119.9597               253.4271

                     34                     35                     36
                      A                      A                      A
 Frequencies --    620.0079               629.7689               633.4746
 Red. masses --      2.8755                 2.4453                 3.0460
 Frc consts  --      0.6513                 0.5714                 0.7202
 IR Inten    --     74.5573                72.8697                18.3116

                     37                     38                     39
                      A                      A                      A
 Frequencies --    642.4029               663.0210               681.4120
 Red. masses --      2.7175                 3.5064                 1.8185
 Frc consts  --      0.6608                 0.9082                 0.4975
 IR Inten    --     16.7634                 7.1626                87.6935

                     40                     41                     42
                      A                      A                      A
 Frequencies --    701.5730               726.9917               730.1382
 Red. masses --      7.2015                 3.2990                 4.4595
 Frc consts  --      2.0884                 1.0273                 1.4007
 IR Inten    --      9.5016                26.3374                 6.5481

                     43                     44                     45
                      A                      A                      A
 Frequencies --    769.2309               787.6310               799.1076
 Red. masses --      5.0180                 1.3298                 2.2264
 Frc consts  --      1.7494                 0.4861                 0.8376
 IR Inten    --     10.4413               130.2906                27.0874

                     46                     47                     48
                      A                      A                      A
 Frequencies --    823.4186               832.6832               927.0966
 Red. masses --      1.8430                 2.7044                 1.3878
 Frc consts  --      0.7363                 1.1048                 0.7028
 IR Inten    --     23.8902                21.0737                 9.4598

                     49                     50                     51
                      A                      A                      A
 Frequencies --    932.0063               956.6051               973.4209
 Red. masses --      2.4083                 2.2225                 1.7786
 Frc consts  --      1.2325                 1.1983                 0.9930
 IR Inten    --      7.6062                15.0138                 1.0511

                     52                     53                     54
                      A                      A                      A
 Frequencies --    976.0853              1034.5053              1056.5198
 Red. masses --      1.7780                 2.9652                 2.6516
 Frc consts  --      0.9980                 1.8697                 1.7439
 IR Inten    --     17.0357                 2.2408                 0.4466

                     55                     56                     57
                      A                      A                      A
 Frequencies --   1068.7782              1080.0964              1127.3850
 Red. masses --      2.8478                 3.1890                 2.0552
 Frc consts  --      1.9166                 2.1919                 1.5391
 IR Inten    --     23.3903                 0.3796                 4.4967

                     58                     59                     60
                      A                      A                      A
 Frequencies --   1136.9034              1155.3118              1188.4715
 Red. masses --      2.2035                 1.3517                 1.2489
 Frc consts  --      1.6781                 1.0630                 1.0393
 IR Inten    --    117.3451                 1.4670                58.8693

                     61                     62                     63
                      A                      A                      A
 Frequencies --   1213.7048              1233.4422              1249.7608
 Red. masses --      1.2164                 1.2421                 1.4872
 Frc consts  --      1.0557                 1.1134                 1.3685
 IR Inten    --     25.3525                 1.2099                42.2290

                     64                     65                     66
                      A                      A                      A
 Frequencies --   1260.8350              1263.6240              1302.2094
 Red. masses --      1.7891                 1.8920                 1.4767
 Frc consts  --      1.6757                 1.7799                 1.4754
 IR Inten    --    133.3548                15.1053                78.3127

                     67                     68                     69
                      A                      A                      A
 Frequencies --   1318.6222              1332.3885              1337.2392
 Red. masses --      1.4809                 1.4853                 3.1374
 Frc consts  --      1.5171                 1.5536                 3.3055
 IR Inten    --      5.5293                42.2471                 2.5555

                     70                     71                     72
                      A                      A                      A
 Frequencies --   1340.1593              1373.2432              1376.2300
 Red. masses --      1.3098                 2.9198                 1.4599
 Frc consts  --      1.3860                 3.2442                 1.6292
 IR Inten    --     28.8686                11.0889                13.1117

                     73                     74                     75
                      A                      A                      A
 Frequencies --   1452.7974              1462.8922              1475.7159
 Red. masses --      1.7041                 1.7218                 4.1592
 Frc consts  --      2.1191                 2.1709                 5.3367
 IR Inten    --     26.7831                24.4418                50.2940

                     76                     77                     78
                      A                      A                      A
 Frequencies --   1485.4904              1495.0187              1499.9946
 Red. masses --      1.1806                 1.1578                 1.0944
 Frc consts  --      1.5350                 1.5247                 1.4509
 IR Inten    --     19.1795                32.8613                 9.5055

                     79                     80                     81
                      A                      A                      A
 Frequencies --   1507.6066              1529.9196              1588.1182
 Red. masses --      1.0958                 2.8954                 5.4952
 Frc consts  --      1.4674                 3.9929                 8.1658
 IR Inten    --      5.5390                26.4091                25.1202

                     82                     83                     84
                      A                      A                      A
 Frequencies --   1641.3298              1673.3002              1679.3259
 Red. masses --      2.4040                 1.3465                 1.4625
 Frc consts  --      3.8158                 2.2212                 2.4301
 IR Inten    --     64.9217               183.3117               237.2512

                     85                     86                     87
                      A                      A                      A
 Frequencies --   1813.6324              1853.8414              3037.3567
 Red. masses --      8.8823                 9.1207                 1.0723
 Frc consts  --     17.2136                18.4681                 5.8285
 IR Inten    --    194.4925               217.1771                 8.3666

                     88                     89                     90
                      A                      A                      A
 Frequencies --   3041.9325              3087.1996              3089.4995
 Red. masses --      1.0702                 1.0577                 1.0593
 Frc consts  --      5.8348                 5.9395                 5.9572
 IR Inten    --     13.8574                31.2838                28.9759

                     91                     92                     93
                      A                      A                      A
 Frequencies --   3132.6010              3138.6288              3143.6097
 Red. masses --      1.0999                 1.0982                 1.0979
 Frc consts  --      6.3591                 6.3740                 6.3927
 IR Inten    --     24.0133                 0.8716                 8.1539

                     94                     95                     96
                      A                      A                      A
 Frequencies --   3150.3656              3163.8394              3216.1551
 Red. masses --      1.1008                 1.0894                 1.0912
 Frc consts  --      6.4370                 6.4251                 6.6502
 IR Inten    --      3.4485                22.2915                 0.2231

                     97                     98                     99
                      A                      A                      A
 Frequencies --   3531.3906              3549.3678              3556.1939
 Red. masses --      1.0491                 1.0643                 1.0485
 Frc consts  --      7.7082                 7.9000                 7.8128
 IR Inten    --     30.2325               284.7974                94.1427

                    100                    101                    102
                      A                      A                      A
 Frequencies --   3647.7926              3667.9996              3683.1606
 Red. masses --      1.0972                 1.0987                 1.0641
 Frc consts  --      8.6019                 8.7095                 8.5048
 IR Inten    --     22.0296                24.2316                52.7425

 - Thermochemistry -
 -------------------
 Temperature   298.150 Kelvin.  Pressure   1.00000 Atm.
 Atom     1 has atomic number  6 and mass  12.00000

 Molecular mass:   316.05515 amu.
 Principal axes and moments of inertia in atomic units:
                           1         2         3
     Eigenvalues --  4099.747367687.879748389.20881
           X            0.99996  -0.00461  -0.00760
           Y            0.00393   0.99613  -0.08784
           Z            0.00797   0.08781   0.99611
 This molecule is an asymmetric top.
 Rotational symmetry number  1.
 Warning -- assumption of classical behavior for rotation
           may cause significant error
 Rotational temperatures (Kelvin)      0.02113     0.01127     0.01032
 Rotational constants (GHZ):           0.44021     0.23475     0.21513
 Zero-point vibrational energy     742153.2 (Joules/Mol)
                                  177.37888 (Kcal/Mol)
 Warning -- explicit consideration of  34 degrees of freedom as
           vibrations may cause significant error
 Vibrational temperatures:     58.25    65.87    93.07   119.63   121.42
          (Kelvin)            144.01   154.83   160.21   175.56   206.35
                              235.77   273.32   312.81   321.79   377.01
                              383.06   409.69   455.73   469.00   504.80
                              523.01   556.56   582.86   600.06   643.06
                              672.05   722.71   732.85   752.56   784.97
                              807.12   835.48   883.01   892.05   906.10
                              911.43   924.27   953.94   980.40  1009.41
                             1045.98  1050.51  1106.75  1133.23  1149.74
                             1184.72  1198.05  1333.89  1340.95  1376.34
                             1400.54  1404.37  1488.42  1520.10  1537.73
                             1554.02  1622.06  1635.75  1662.24  1709.95
                             1746.25  1774.65  1798.13  1814.06  1818.07
                             1873.59  1897.20  1917.01  1923.99  1928.19
                             1975.79  1980.09  2090.25  2104.78  2123.23
                             2137.29  2151.00  2158.16  2169.11  2201.21
                             2284.95  2361.51  2407.51  2416.18  2609.41
                             2667.26  4370.08  4376.66  4441.79  4445.10
                             4507.11  4515.79  4522.95  4532.67  4552.06
                             4627.33  5080.88  5106.75  5116.57  5248.36
                             5277.43  5299.25

 Zero-point correction=                           0.282671 (Hartree/Particle)
 Thermal correction to Energy=                    0.303100
 Thermal correction to Enthalpy=                  0.304044
 Thermal correction to Gibbs Free Energy=         0.234046
 Sum of electronic and zero-point Energies=          -1673.535522
 Sum of electronic and thermal Energies=             -1673.515093
 Sum of electronic and thermal Enthalpies=           -1673.514149
 Sum of electronic and thermal Free Energies=        -1673.584147

                     E (Thermal)             CV                S
                      KCal/Mol        Cal/Mol-Kelvin    Cal/Mol-Kelvin
 Total                  190.198             77.786            147.323
 Electronic               0.000              0.000              0.000
 Translational            0.889              2.981             43.148
 Rotational               0.889              2.981             33.935
 Vibrational            188.421             71.824             70.240
 Vibration     1          0.594              1.981              5.235
 Vibration     2          0.595              1.979              4.992
 Vibration     3          0.597              1.971              4.309
 Vibration     4          0.600              1.961              3.815
 Vibration     5          0.601              1.960              3.786
 Vibration     6          0.604              1.949              3.453
 Vibration     7          0.606              1.943              3.311
 Vibration     8          0.607              1.940              3.245
 Vibration     9          0.610              1.931              3.068
 Vibration    10          0.616              1.910              2.758
 Vibration    11          0.623              1.887              2.505
 Vibration    12          0.633              1.854              2.228
 Vibration    13          0.646              1.815              1.981
 Vibration    14          0.649              1.805              1.929
 Vibration    15          0.669              1.742              1.648
 Vibration    16          0.672              1.735              1.620
 Vibration    17          0.683              1.702              1.505
 Vibration    18          0.704              1.642              1.327
 Vibration    19          0.710              1.624              1.280
 Vibration    20          0.728              1.574              1.162
 Vibration    21          0.737              1.547              1.107
 Vibration    22          0.755              1.498              1.012
 Vibration    23          0.770              1.459              0.944
 Vibration    24          0.780              1.433              0.902
 Vibration    25          0.806              1.368              0.805
 Vibration    26          0.824              1.323              0.746
 Vibration    27          0.858              1.245              0.652
 Vibration    28          0.865              1.229              0.635
 Vibration    29          0.878              1.199              0.603
 Vibration    30          0.901              1.149              0.553
 Vibration    31          0.917              1.116              0.522
 Vibration    32          0.937              1.073              0.484
 Vibration    33          0.973              1.003              0.427
 Vibration    34          0.980              0.990              0.416

                           ! Non-Optimized Parameters !
 Normal termination of Gaussian 16 at Mon Dec 14 14:40:28 2020.

 ----------------------------------------------------------------------
 # B3LYP/6-311++G(d,p) empiricaldispersion=gd3bj scf=xqc pop=npa geom=c
 heck
 ----------------------------------------------------------------------

 ---------------------------------------
 CID_19437444_JID_10073_Energie_neutraal
 ---------------------------------------
 Structure from the checkpoint file:  "JID_10073.chk"
 Charge =  0 Multiplicity = 1

 SCF Done:  E(RB3LYP) =  -1674.14762620     A.U. after   16 cycles
 Normal termination of Gaussian 16 at Mon Dec 14 14:52:10 2020.

 ----------------------------------------------------------------------
 # B3LYP/6-311++G(d,p) empiricaldispersion=gd3bj scf=xqc pop=npa geom=c
 heck
 ----------------------------------------------------------------------

 -------------------------------------
 CID_19437444_JID_10073_Energie_kation
 -------------------------------------
 Structure from the checkpoint file:  "JID_10073.chk"
 Charge =  1 Multiplicity = 2

 SCF Done:  E(UB3LYP) =  -1673.88102783     A.U. after   27 cycles
 Normal termination of Gaussian 16 at Mon Dec 14 15:20:46 2020.
 Gaussian 16:  ES64L-G16RevA.03 25-Dec-2016

 ----------------------------------------------------------------------
 # B3LYP/6-311++G(d,p) empiricaldispersion=gd3bj scf=xqc pop=npa geom=c
 heck
 ----------------------------------------------------------------------

 ------------------------------------
 CID_19437444_JID_10073_Energie_anion
 ------------------------------------
 Structure from the checkpoint file:  "JID_10073.chk"
 Charge = -1 Multiplicity = 2

                         Standard orientation:
 ---------------------------------------------------------------------
 Center     Atomic      Atomic             Coordinates (Angstroms)
 Number     Number       Type             X           Y           Z
 ---------------------------------------------------------------------
      1          6           0       -0.233362   -1.552644    1.654356
      2          6           0       -1.483952   -1.333108    1.070581
      3          6           0       -1.559755   -1.079236   -0.325268
      4          6           0       -0.379888   -1.081563   -1.070550
      5          6           0        0.874870   -1.289026   -0.495620
      6          6           0        0.950255   -1.546728    0.903607
      7          7           0        2.150029   -1.849549    1.508501
      8         16           0        2.343424   -1.396049   -1.502541
      9          6           0        2.844073    0.364699   -1.844933
     10          6           0        2.262027    1.422609   -0.920454
     11          6           0        2.725697    1.310005    0.505492
     12          8           0        3.695245    0.717681    0.919256
     13          8           0        1.923845    2.025767    1.358951
     14         16           0       -3.143777   -0.884360   -1.122953
     15          6           0       -3.437731    0.945814   -1.076531
     16          6           0       -2.973363    1.639365    0.202707
     17          6           0       -1.485509    1.921633    0.176187
     18          8           0       -0.857710    2.169328   -0.837470
     19          8           0       -0.938421    1.916033    1.400001
     20          7           0       -2.626183   -1.320068    1.854759
     21          1           0       -0.177522   -1.752206    2.722565
     22          1           0       -0.442164   -0.912526   -2.140150
     23          1           0        2.199162   -1.703020    2.506951
     24          1           0        2.980738   -1.558615    1.006720
     25          1           0        3.935653    0.362380   -1.784931
     26          1           0        2.553300    0.602374   -2.871076
     27          1           0        2.585318    2.413692   -1.272693
     28          1           0        1.170485    1.448396   -0.950242
     29          1           0        2.313482    1.921350    2.247657
     30          1           0       -2.942907    1.405270   -1.934884
     31          1           0       -4.519784    1.046085   -1.200081
     32          1           0       -3.472028    2.616515    0.275501
     33          1           0       -3.225038    1.073852    1.102234
     34          1           0        0.026550    2.074795    1.298425
     35          1           0       -2.567528   -1.842376    2.719067
     36          1           0       -3.482844   -1.483505    1.336666
 ---------------------------------------------------------------------

 SCF Done:  E(UB3LYP) =  -1674.14304268     A.U. after   33 cycles
 SCF Done:  E(UB3LYP) =  -1674.14304268     a.u. after    1 cycles

 The electronic state is 2-A.
 Alpha  occ. eigenvalues --  -88.74519 -88.74147 -19.08181 -19.05906 -19.02182
 Alpha  occ. eigenvalues --  -19.00733 -14.22429 -14.21884 -10.20834 -10.20004
 Alpha  occ. eigenvalues --  -10.12458 -10.12414 -10.10652 -10.10433 -10.08994
 Alpha  occ. eigenvalues --  -10.08872 -10.08853 -10.08851 -10.07534 -10.06356
 Alpha  occ. eigenvalues --   -7.83098  -7.82737  -5.79493  -5.79149  -5.79119
 Alpha  occ. eigenvalues --   -5.78755  -5.78489  -5.78107  -1.01795  -1.00281
 Alpha  occ. eigenvalues --   -0.92938  -0.91329  -0.83596  -0.82300  -0.74193
 Alpha  occ. eigenvalues --   -0.71927  -0.70773  -0.66363  -0.65595  -0.61611
 Alpha  occ. eigenvalues --   -0.60293  -0.55562  -0.54843  -0.51754  -0.49681
 Alpha  occ. eigenvalues --   -0.48716  -0.45886  -0.44095  -0.43239  -0.41405
 Alpha  occ. eigenvalues --   -0.40715  -0.40103  -0.39406  -0.38875  -0.38256
 Alpha  occ. eigenvalues --   -0.37763  -0.35673  -0.35117  -0.33841  -0.32922
 Alpha  occ. eigenvalues --   -0.32677  -0.32103  -0.31801  -0.31159  -0.30500
 Alpha  occ. eigenvalues --   -0.29937  -0.29100  -0.28262  -0.27580  -0.26225
 Alpha  occ. eigenvalues --   -0.25456  -0.24822  -0.23855  -0.22984  -0.21999
 Alpha  occ. eigenvalues --   -0.21553  -0.19569  -0.18712  -0.17980  -0.13970
 Alpha  occ. eigenvalues --   -0.13329  -0.12358  -0.10671   0.03790
 Alpha virt. eigenvalues --    0.05696   0.05996   0.06524   0.07491   0.08240
 Alpha virt. eigenvalues --    0.08705   0.08776   0.09473   0.09692   0.10061
 Alpha virt. eigenvalues --    0.10248   0.10736   0.11133   0.11595   0.12177

  Beta  occ. eigenvalues --  -88.74518 -88.74146 -19.08135 -19.05894 -19.02114
  Beta  occ. eigenvalues --  -19.00725 -14.22404 -14.21873 -10.20710 -10.19939
  Beta  occ. eigenvalues --  -10.12458 -10.12397 -10.10636 -10.10406 -10.09006
  Beta  occ. eigenvalues --  -10.08871 -10.08848 -10.08843 -10.07411 -10.06317
  Beta  occ. eigenvalues --   -7.83097  -7.82736  -5.79489  -5.79146  -5.79118
  Beta  occ. eigenvalues --   -5.78754  -5.78489  -5.78107  -1.01653  -1.00227
  Beta  occ. eigenvalues --   -0.92817  -0.91301  -0.83558  -0.82266  -0.74110
  Beta  occ. eigenvalues --   -0.71881  -0.70715  -0.66303  -0.65518  -0.61482
  Beta  occ. eigenvalues --   -0.60215  -0.55431  -0.54783  -0.51644  -0.49612
  Beta  occ. eigenvalues --   -0.48652  -0.45852  -0.44059  -0.43187  -0.41311
  Beta  occ. eigenvalues --   -0.40612  -0.40042  -0.39349  -0.38641  -0.38157
  Beta  occ. eigenvalues --   -0.37631  -0.35633  -0.35059  -0.33766  -0.32867
  Beta  occ. eigenvalues --   -0.32614  -0.31978  -0.31760  -0.31062  -0.30419
  Beta  occ. eigenvalues --   -0.29841  -0.29038  -0.28206  -0.27539  -0.26173
  Beta  occ. eigenvalues --   -0.25404  -0.24748  -0.23639  -0.22887  -0.21922
  Beta  occ. eigenvalues --   -0.21519  -0.19473  -0.18473  -0.17958  -0.13948
  Beta  occ. eigenvalues --   -0.13306  -0.12140  -0.10592
  Beta virt. eigenvalues --    0.06153   0.06514   0.06825   0.07272   0.08040
  Beta virt. eigenvalues --    0.08614   0.08935   0.09190   0.09634   0.09940
  Beta virt. eigenvalues --    0.10293   0.10506   0.11114   0.11295   0.11693

 Mulliken charges and spin densities:
               1          2
     1  C   -1.699285   1.587035
     2  C    0.120817  -0.711867
     3  C    1.843357  -0.782473
     4  C   -1.174856   0.507970
     5  C    1.631003  -0.556889
     6  C   -0.391920  -0.295313
     7  N   -0.185301  -0.039473
     8  S   -0.273763  -0.099985
     9  C   -0.697287  -0.136338
    10  C    0.353853  -0.385978
    11  C    0.071179  -0.257719
    12  O   -0.249456   0.041791
    13  O   -0.217327   0.034687
    14  S    0.109791  -0.341960
    15  C   -0.383816  -0.412302
    16  C   -0.312990   0.049433
    17  C    0.113555  -0.179562
    18  O   -0.196613   0.018553
    19  O   -0.034736  -0.001671
    20  N   -0.352185   0.022794
    21  H   -0.496059   0.633564
    22  H    0.140104   0.075831
    23  H    0.202993   0.038934
    24  H    0.245995   0.010367
    25  H    0.202949   0.019414
    26  H    0.153321   0.045577
    27  H   -0.368657   0.584910
    28  H    0.527453  -0.203336
    29  H   -0.280078   0.583846
    30  H    0.224626   0.004541
    31  H   -0.155843   0.353878
    32  H   -0.304019   0.524587
    33  H    0.275505  -0.029300
    34  H    0.430515  -0.078449
    35  H    0.010868   0.257267
    36  H    0.116307   0.117635
 Sum of Mulliken charges =  -1.00000   1.00000

 Dipole moment (field-independent basis, Debye):
    X=             -0.2607    Y=             -1.2831    Z=             -1.2508  Tot=              1.8107
 Quadrupole moment (field-independent basis, Debye-Ang):
   XX=           -191.6501   YY=           -176.9791   ZZ=           -167.6078
   XY=             -0.2756   XZ=             -4.1314   YZ=             -2.4160

 Summary of Natural Population Analysis:

                                       Natural Population
                Natural  -----------------------------------------------
    Atom  No    Charge         Core      Valence    Rydberg      Total
 -----------------------------------------------------------------------
      C    1   -0.14610      0.99947     2.13737    0.00926     3.14610
      C    2    0.10164      0.99943     1.88653    0.01240     2.89836
      C    3   -0.14841      0.99936     2.13622    0.01283     3.14841
      C    4   -0.04684      0.99944     2.03560    0.01180     3.04684
      C    5   -0.14718      0.99936     2.13510    0.01272     3.14718
      C    6    0.10314      0.99944     1.88505    0.01237     2.89686
      N    7   -0.39155      0.99970     2.88400    0.00785     3.89155
      S    8    0.09335      4.99956     2.88861    0.01848     7.90665
      C    9   -0.24051      0.99958     2.23080    0.01014     3.24051
      C   10   -0.26190      0.99954     2.25273    0.00963     3.26190
      C   11    0.42767      0.99971     1.54718    0.02544     2.57233
      O   12   -0.30785      0.99986     3.30213    0.00586     4.30785
      O   13   -0.36380      0.99987     3.35613    0.00781     4.36380
      S   14    0.09218      4.99956     2.88853    0.01974     7.90782
      C   15   -0.24309      0.99958     2.23288    0.01063     3.24309
      C   16   -0.25060      0.99956     2.24200    0.00904     3.25060
      C   17    0.41683      0.99973     1.55728    0.02616     2.58317
      O   18   -0.32338      0.99986     3.31779    0.00573     4.32338
      O   19   -0.34684      0.99987     3.34101    0.00596     4.34684
      N   20   -0.39645      0.99970     2.88753    0.00922     3.89645
      H   21    0.09648      0.00000     0.40179    0.00173     0.40352
      H   22    0.10606      0.00000     0.39285    0.00110     0.39394
      H   23    0.18488      0.00000     0.31348    0.00164     0.31512
      H   24    0.20215      0.00000     0.29564    0.00221     0.29785
      H   25    0.10606      0.00000     0.39258    0.00136     0.39394
      H   26    0.10015      0.00000     0.39852    0.00132     0.39985
      H   27    0.12116      0.00000     0.37712    0.00172     0.37884
      H   28    0.13607      0.00000     0.36162    0.00231     0.36393
      H   29    0.24663      0.00000     0.24497    0.00840     0.25337
      H   30    0.10837      0.00000     0.39012    0.00151     0.39163
      H   31    0.10331      0.00000     0.39510    0.00159     0.39669
      H   32    0.11718      0.00000     0.38126    0.00156     0.38282
      H   33    0.11963      0.00000     0.37850    0.00188     0.38037
      H   34    0.25239      0.00000     0.24417    0.00344     0.24761
      H   35    0.18652      0.00000     0.31149    0.00199     0.31348
      H   36    0.19266      0.00000     0.30511    0.00223     0.30734
 =======================================================================
   * Total *   -0.00000     27.99216    54.72880    0.27903    83.00000

 Normal termination of Gaussian 16 at Mon Dec 14 15:54:19 2020.
