 Gaussian 16, Revision A.03,

 -----------------------------------------------------------
 # opt freq B3LYP/6-31G(d) empiricaldispersion=gd3bj scf=xqc
 -----------------------------------------------------------

 -------------------------------
 CID_112515108_JID_3112_neutraal
 -------------------------------
 Symbolic Z-matrix:
 Charge =  0 Multiplicity = 1

 SCF Done:  E(RB3LYP) =  -576.687689939     A.U. after   15 cycles
 SCF Done:  E(RB3LYP) =  -576.690023821     A.U. after   12 cycles
 SCF Done:  E(RB3LYP) =  -576.688319620     A.U. after   13 cycles
 SCF Done:  E(RB3LYP) =  -576.690284411     A.U. after   12 cycles
 SCF Done:  E(RB3LYP) =  -576.690980880     A.U. after   12 cycles
 SCF Done:  E(RB3LYP) =  -576.691391786     A.U. after   13 cycles
 SCF Done:  E(RB3LYP) =  -576.691439415     A.U. after   12 cycles
 SCF Done:  E(RB3LYP) =  -576.691663049     A.U. after   11 cycles
 SCF Done:  E(RB3LYP) =  -576.691803440     A.U. after   12 cycles
 SCF Done:  E(RB3LYP) =  -576.691849246     A.U. after   11 cycles
 SCF Done:  E(RB3LYP) =  -576.691880513     A.U. after    8 cycles
 SCF Done:  E(RB3LYP) =  -576.691880909     A.U. after    8 cycles
 SCF Done:  E(RB3LYP) =  -576.691881071     A.U. after    8 cycles
 SCF Done:  E(RB3LYP) =  -576.691881197     A.U. after    9 cycles
 SCF Done:  E(RB3LYP) =  -576.691881208     A.U. after    7 cycles
 SCF Done:  E(RB3LYP) =  -576.691881208     A.U. after    7 cycles
 Optimization completed.
    -- Stationary point found.
 Normal termination of Gaussian 16 at Wed Dec  9 22:31:27 2020.

 --------------------------------------------------------------------
 #N Geom=AllCheck Guess=TCheck SCRF=Check GenChk RB3LYP/6-31G(d) Freq
 --------------------------------------------------------------------

 Structure from the checkpoint file:  "JID_3112.chk"
 -------------------------------
 CID_112515108_JID_3112_neutraal
 -------------------------------
 Charge =  0 Multiplicity = 1

 SCF Done:  E(RB3LYP) =  -576.691881208     A.U. after    1 cycles

  Exact polarizability: 132.966   8.105 108.253   7.370  -1.985 102.941
 Approx polarizability: 169.074  14.879 162.475  15.657  -6.491 158.099

                      1                      2                      3
                      A                      A                      A
 Frequencies --     17.7867                43.0945                63.3824
 Red. masses --      3.6855                 3.1036                 3.2788
 Frc consts  --      0.0007                 0.0034                 0.0078
 IR Inten    --      0.6328                 0.1334                 2.3916

                      4                      5                      6
                      A                      A                      A
 Frequencies --     68.5619                89.2170               108.7270
 Red. masses --      3.8965                 3.7998                 4.2899
 Frc consts  --      0.0108                 0.0178                 0.0299
 IR Inten    --      2.2403                 1.3137                 0.9190

                      7                      8                      9
                      A                      A                      A
 Frequencies --    123.6765               154.8148               178.4031
 Red. masses --      3.2775                 4.9540                 2.3057
 Frc consts  --      0.0295                 0.0700                 0.0432
 IR Inten    --      3.7232                 5.3014                 4.6436

                     10                     11                     12
                      A                      A                      A
 Frequencies --    208.3629               216.3336               259.4097
 Red. masses --      1.5339                 1.7742                 1.5183
 Frc consts  --      0.0392                 0.0489                 0.0602
 IR Inten    --      0.6438                 0.8980                 0.3217

                     13                     14                     15
                      A                      A                      A
 Frequencies --    284.4244               325.3071               374.4924
 Red. masses --      2.1003                 1.9479                 2.3819
 Frc consts  --      0.1001                 0.1215                 0.1968
 IR Inten    --      3.3735                 0.8899                 3.6512

                     16                     17                     18
                      A                      A                      A
 Frequencies --    394.5076               418.2468               468.1525
 Red. masses --      2.5989                 3.5780                 2.5244
 Frc consts  --      0.2383                 0.3688                 0.3260
 IR Inten    --      1.5083                 1.8256                 0.2756

                     19                     20                     21
                      A                      A                      A
 Frequencies --    504.2588               526.0839               550.5205
 Red. masses --      2.0830                 2.6858                 5.7008
 Frc consts  --      0.3121                 0.4380                 1.0180
 IR Inten    --     27.3407                24.0306                 0.3673

                     22                     23                     24
                      A                      A                      A
 Frequencies --    584.6926               624.3853               670.5531
 Red. masses --      2.8126                 3.3201                 1.7599
 Frc consts  --      0.5665                 0.7626                 0.4662
 IR Inten    --      9.9561                 2.8991                87.6944

                     25                     26                     27
                      A                      A                      A
 Frequencies --    729.7840               765.7567               802.3874
 Red. masses --      1.6102                 2.6326                 1.2146
 Frc consts  --      0.5053                 0.9095                 0.4608
 IR Inten    --      2.1472                 3.1869                 5.0509

                     28                     29                     30
                      A                      A                      A
 Frequencies --    831.4300               876.7952               911.0168
 Red. masses --      1.6074                 2.9402                 1.9258
 Frc consts  --      0.6547                 1.3317                 0.9417
 IR Inten    --      3.3371                 0.4152                 0.9827

                     31                     32                     33
                      A                      A                      A
 Frequencies --    927.4166               931.7243               945.5073
 Red. masses --      1.9154                 2.0160                 2.0765
 Frc consts  --      0.9707                 1.0311                 1.0937
 IR Inten    --      9.6418                 4.3711                 5.3186

                     34                     35                     36
                      A                      A                      A
 Frequencies --   1020.7196              1046.5210              1063.3520
 Red. masses --      1.9946                 1.9068                 1.9860
 Frc consts  --      1.2244                 1.2304                 1.3231
 IR Inten    --      5.0933                 3.3953                 1.0248

                     37                     38                     39
                      A                      A                      A
 Frequencies --   1078.0584              1095.6978              1121.2098
 Red. masses --      2.0537                 2.5325                 1.7300
 Frc consts  --      1.4063                 1.7914                 1.2814
 IR Inten    --     16.4065                 1.0223                 2.1234

                     40                     41                     42
                      A                      A                      A
 Frequencies --   1130.2612              1161.2502              1198.2020
 Red. masses --      1.9595                 1.7618                 2.3987
 Frc consts  --      1.4749                 1.3998                 2.0290
 IR Inten    --      6.5772                 4.0813                11.9884

                     43                     44                     45
                      A                      A                      A
 Frequencies --   1218.5561              1255.4541              1273.2663
 Red. masses --      1.3221                 1.2107                 1.3308
 Frc consts  --      1.1566                 1.1244                 1.2711
 IR Inten    --      2.4478                 0.8017                13.3922

                     46                     47                     48
                      A                      A                      A
 Frequencies --   1300.2021              1313.2252              1335.6523
 Red. masses --      1.2705                 1.4462                 1.2580
 Frc consts  --      1.2654                 1.4694                 1.3222
 IR Inten    --      7.8908                58.6475                 6.0802

                     49                     50                     51
                      A                      A                      A
 Frequencies --   1346.7544              1355.5248              1395.7630
 Red. masses --      1.3553                 1.2505                 1.3841
 Frc consts  --      1.4483                 1.3538                 1.5887
 IR Inten    --     31.1292                 1.4010                15.8784

                     52                     53                     54
                      A                      A                      A
 Frequencies --   1400.3796              1409.4590              1413.1924
 Red. masses --      1.3230                 1.4001                 1.4171
 Frc consts  --      1.5286                 1.6388                 1.6675
 IR Inten    --     18.7419                 0.5966                 2.7044

                     55                     56                     57
                      A                      A                      A
 Frequencies --   1444.0978              1446.0182              1446.7078
 Red. masses --      1.5375                 1.2583                 1.4019
 Frc consts  --      1.8891                 1.5502                 1.7288
 IR Inten    --     45.1453                 8.7698                18.6332

                     58                     59                     60
                      A                      A                      A
 Frequencies --   1497.1607              1500.8358              1509.9096
 Red. masses --      1.3545                 1.2523                 1.0785
 Frc consts  --      1.7888                 1.6620                 1.4487
 IR Inten    --     31.8661                31.1590                 5.6341

                     61                     62                     63
                      A                      A                      A
 Frequencies --   1517.9664              1519.6181              1525.1120
 Red. masses --      1.0435                 1.0747                 1.1252
 Frc consts  --      1.4167                 1.4621                 1.5420
 IR Inten    --      1.1025                 4.6868                 4.9667

                     64                     65                     66
                      A                      A                      A
 Frequencies --   1529.3684              1535.3066              1539.8984
 Red. masses --      1.0518                 1.0555                 1.0979
 Frc consts  --      1.4495                 1.4659                 1.5339
 IR Inten    --      7.2455                 4.8829                11.2061

                     67                     68                     69
                      A                      A                      A
 Frequencies --   1541.9495              1786.3683              2359.7237
 Red. masses --      1.0773                 7.8175                12.6469
 Frc consts  --      1.5092                14.6981                41.4914
 IR Inten    --      9.2736               307.8630                12.3278

                     70                     71                     72
                      A                      A                      A
 Frequencies --   3044.6792              3048.4113              3051.9638
 Red. masses --      1.0569                 1.0431                 1.0633
 Frc consts  --      5.7727                 5.7109                 5.8352
 IR Inten    --     11.1550                28.5778                 7.5511

                     73                     74                     75
                      A                      A                      A
 Frequencies --   3055.7831              3056.7729              3058.3871
 Red. masses --      1.0686                 1.0379                 1.0808
 Frc consts  --      5.8790                 5.7140                 5.9564
 IR Inten    --      6.9661                20.5022                 7.9219

                     76                     77                     78
                      A                      A                      A
 Frequencies --   3068.3877              3074.4206              3091.9079
 Red. masses --      1.0643                 1.0979                 1.0856
 Frc consts  --      5.9037                 6.1141                 6.1144
 IR Inten    --     40.1049                13.9019                46.2039

                     79                     80                     81
                      A                      A                      A
 Frequencies --   3093.6178              3104.5427              3113.8452
 Red. masses --      1.0797                 1.1014                 1.1020
 Frc consts  --      6.0882                 6.2546                 6.2954
 IR Inten    --     21.6692                22.7972                52.9344

                     82                     83                     84
                      A                      A                      A
 Frequencies --   3119.0901              3120.0368              3127.9457
 Red. masses --      1.0946                 1.1014                 1.0999
 Frc consts  --      6.2741                 6.3170                 6.3407
 IR Inten    --     11.9785                38.4032                37.1040

                     85                     86                     87
                      A                      A                      A
 Frequencies --   3138.1528              3147.1552              3586.3264
 Red. masses --      1.1020                 1.1020                 1.0756
 Frc consts  --      6.3939                 6.4306                 8.1507
 IR Inten    --      6.5452                30.1371                20.3603

 - Thermochemistry -
 -------------------
 Temperature   298.150 Kelvin.  Pressure   1.00000 Atm.
 Atom     1 has atomic number  6 and mass  12.00000

 Molecular mass:   182.14191 amu.
 Principal axes and moments of inertia in atomic units:
                           1         2         3
     Eigenvalues --  1538.122364131.467634327.84514
           X            0.99973   0.02319   0.00121
           Y           -0.02313   0.99904  -0.03710
           Z           -0.00207   0.03707   0.99931
 This molecule is an asymmetric top.
 Rotational symmetry number  1.
 Warning -- assumption of classical behavior for rotation
           may cause significant error
 Rotational temperatures (Kelvin)      0.05631     0.02096     0.02001
 Rotational constants (GHZ):           1.17334     0.43683     0.41701
 Zero-point vibrational energy     722026.4 (Joules/Mol)
                                  172.56844 (Kcal/Mol)
 Warning -- explicit consideration of  22 degrees of freedom as
           vibrations may cause significant error
 Vibrational temperatures:     25.59    62.00    91.19    98.65   128.36
          (Kelvin)            156.43   177.94   222.74   256.68   299.79
                              311.26   373.23   409.22   468.04   538.81
                              567.61   601.76   673.57   725.52   756.92
                              792.08   841.24   898.35   964.78  1050.00
                             1101.75  1154.46  1196.24  1261.51  1310.75
                             1334.35  1340.54  1360.37  1468.59  1505.71
                             1529.93  1551.09  1576.46  1613.17  1626.19
                             1670.78  1723.95  1753.23  1806.32  1831.95
                             1870.70  1889.44  1921.71  1937.68  1950.30
                             2008.19  2014.83  2027.90  2033.27  2077.73
                             2080.50  2081.49  2154.08  2159.37  2172.42
                             2184.02  2186.39  2194.30  2200.42  2208.96
                             2215.57  2218.52  2570.19  3395.12  4380.61
                             4385.98  4391.10  4396.59  4398.01  4400.34
                             4414.73  4423.41  4448.57  4451.03  4466.74
                             4480.13  4487.67  4489.04  4500.42  4515.10
                             4528.05  5159.92

 Zero-point correction=                           0.275005 (Hartree/Particle)
 Thermal correction to Energy=                    0.290226
 Thermal correction to Enthalpy=                  0.291170
 Thermal correction to Gibbs Free Energy=         0.231087
 Sum of electronic and zero-point Energies=           -576.416876
 Sum of electronic and thermal Energies=              -576.401655
 Sum of electronic and thermal Enthalpies=            -576.400711
 Sum of electronic and thermal Free Energies=         -576.460794

                     E (Thermal)             CV                S
                      KCal/Mol        Cal/Mol-Kelvin    Cal/Mol-Kelvin
 Total                  182.119             54.699            126.455
 Electronic               0.000              0.000              0.000
 Translational            0.889              2.981             41.505
 Rotational               0.889              2.981             31.687
 Vibrational            180.342             48.737             53.263
 Vibration     1          0.593              1.986              6.867
 Vibration     2          0.595              1.980              5.112
 Vibration     3          0.597              1.972              4.349
 Vibration     4          0.598              1.969              4.194
 Vibration     5          0.602              1.957              3.677
 Vibration     6          0.606              1.942              3.292
 Vibration     7          0.610              1.929              3.042
 Vibration     8          0.620              1.897              2.612
 Vibration     9          0.629              1.869              2.345
 Vibration    10          0.642              1.828              2.058
 Vibration    11          0.645              1.816              1.990
 Vibration    12          0.668              1.747              1.666
 Vibration    13          0.683              1.703              1.507
 Vibration    14          0.709              1.625              1.283
 Vibration    15          0.746              1.524              1.061
 Vibration    16          0.761              1.482              0.983
 Vibration    17          0.781              1.431              0.898
 Vibration    18          0.825              1.321              0.743
 Vibration    19          0.860              1.241              0.648
 Vibration    20          0.881              1.192              0.596
 Vibration    21          0.906              1.139              0.543
 Vibration    22          0.942              1.064              0.477

 Optimization completed.
    -- Stationary point found.
 Normal termination of Gaussian 16 at Wed Dec  9 22:39:36 2020.

 ----------------------------------------------------------------------
 # B3LYP/6-311++G(d,p) empiricaldispersion=gd3bj scf=xqc pop=npa geom=c
 heck
 ----------------------------------------------------------------------

 ---------------------------------------
 CID_112515108_JID_3112_Energie_neutraal
 ---------------------------------------
 Structure from the checkpoint file:  "JID_3112.chk"
 Charge =  0 Multiplicity = 1

 SCF Done:  E(RB3LYP) =  -576.860422396     A.U. after   14 cycles
 Normal termination of Gaussian 16 at Wed Dec  9 22:43:30 2020.

 ----------------------------------------------------------------------
 # B3LYP/6-311++G(d,p) empiricaldispersion=gd3bj scf=xqc pop=npa geom=c
 heck
 ----------------------------------------------------------------------

 -------------------------------------
 CID_112515108_JID_3112_Energie_kation
 -------------------------------------
 Structure from the checkpoint file:  "JID_3112.chk"
 Charge =  1 Multiplicity = 2

 SCF Done:  E(UB3LYP) =  -576.525330935     A.U. after   28 cycles
 Normal termination of Gaussian 16 at Wed Dec  9 22:55:22 2020.
 Gaussian 16:  ES64L-G16RevA.03 25-Dec-2016

 ----------------------------------------------------------------------
 # B3LYP/6-311++G(d,p) empiricaldispersion=gd3bj scf=xqc pop=npa geom=c
 heck
 ----------------------------------------------------------------------

 ------------------------------------
 CID_112515108_JID_3112_Energie_anion
 ------------------------------------
 Structure from the checkpoint file:  "JID_3112.chk"
 Charge = -1 Multiplicity = 2

                         Standard orientation:
 ---------------------------------------------------------------------
 Center     Atomic      Atomic             Coordinates (Angstroms)
 Number     Number       Type             X           Y           Z
 ---------------------------------------------------------------------
      1          6           0       -4.332401   -0.065199   -0.356338
      2          6           0       -3.165670    0.750507   -0.920646
      3          6           0       -2.034956    1.007149    0.084512
      4          6           0       -1.403246   -0.273915    0.691415
      5          6           0       -0.812125   -1.251507   -0.352564
      6          6           0        0.461281   -0.743858   -1.038956
      7          6           0        1.713171   -1.142846   -0.247148
      8          8           0        1.726675   -2.154249    0.444794
      9          7           0        2.835284   -0.379257   -0.405811
     10          6           0        2.947128    0.947276   -1.001241
     11          6           0        2.578156    2.085675   -0.046507
     12          6           0       -0.391212    0.135990    1.674878
     13          7           0        0.410212    0.523957    2.420169
     14          1           0       -4.034262   -1.090985   -0.111479
     15          1           0       -5.151788   -0.128460   -1.080086
     16          1           0       -4.728275    0.393153    0.558087
     17          1           0       -2.768574    0.257305   -1.816628
     18          1           0       -3.536256    1.726943   -1.257112
     19          1           0       -1.248134    1.602424   -0.393867
     20          1           0       -2.417981    1.617197    0.911738
     21          1           0       -2.183266   -0.811282    1.244708
     22          1           0       -0.569842   -2.198141    0.136551
     23          1           0       -1.590005   -1.451347   -1.094740
     24          1           0        0.556596   -1.209317   -2.028587
     25          1           0        0.415140    0.334575   -1.212202
     26          1           0        3.589054   -0.676134    0.203096
     27          1           0        3.982355    1.061555   -1.341622
     28          1           0        2.329195    0.980892   -1.903235
     29          1           0        3.220322    2.070460    0.840270
     30          1           0        2.696532    3.056488   -0.541917
     31          1           0        1.546556    1.990131    0.303722
 ---------------------------------------------------------------------

 SCF Done:  E(UB3LYP) =  -576.851656794     A.U. after   30 cycles

 The electronic state is 2-A.
 Alpha  occ. eigenvalues --  -18.99139 -14.24103 -14.21601 -10.17797 -10.12578
 Alpha  occ. eigenvalues --  -10.11775 -10.11463 -10.08789 -10.08733 -10.08663
 Alpha  occ. eigenvalues --  -10.07624 -10.06964 -10.06853  -0.94346  -0.82914
 Alpha  occ. eigenvalues --   -0.81519  -0.74422  -0.68907  -0.66357  -0.64945
 Alpha  occ. eigenvalues --   -0.58813  -0.55629  -0.54244  -0.49019  -0.47005
 Alpha  occ. eigenvalues --   -0.42228  -0.41336  -0.40449  -0.38488  -0.36655
 Alpha  occ. eigenvalues --   -0.34365  -0.34280  -0.33480  -0.33286  -0.32162
 Alpha  occ. eigenvalues --   -0.30792  -0.29603  -0.28414  -0.28342  -0.27212
 Alpha  occ. eigenvalues --   -0.27089  -0.26747  -0.26040  -0.25602  -0.24705
 Alpha  occ. eigenvalues --   -0.24267  -0.22507  -0.22066  -0.16671  -0.16064
 Alpha  occ. eigenvalues --    0.03953
 Alpha virt. eigenvalues --    0.05739   0.07108   0.07290   0.08353   0.08760
 Alpha virt. eigenvalues --    0.09045   0.10011   0.10404   0.10988   0.11457
 Alpha virt. eigenvalues --    0.11534   0.11751   0.12279   0.12335   0.12682

  Beta  occ. eigenvalues --  -18.99136 -14.24097 -14.21591 -10.17797 -10.12573
  Beta  occ. eigenvalues --  -10.11743 -10.11462 -10.08772 -10.08703 -10.08647
  Beta  occ. eigenvalues --  -10.07591 -10.06943 -10.06815  -0.94340  -0.82897
  Beta  occ. eigenvalues --   -0.81502  -0.74393  -0.68860  -0.66316  -0.64899
  Beta  occ. eigenvalues --   -0.58752  -0.55579  -0.54178  -0.48936  -0.46961
  Beta  occ. eigenvalues --   -0.42179  -0.41309  -0.40400  -0.38457  -0.36621
  Beta  occ. eigenvalues --   -0.34328  -0.34252  -0.33422  -0.33260  -0.32132
  Beta  occ. eigenvalues --   -0.30757  -0.29570  -0.28377  -0.28302  -0.27179
  Beta  occ. eigenvalues --   -0.27054  -0.26716  -0.26006  -0.25573  -0.24659
  Beta  occ. eigenvalues --   -0.24219  -0.22470  -0.22043  -0.16655  -0.16045
  Beta virt. eigenvalues --    0.06309   0.06652   0.07784   0.07946   0.08900
  Beta virt. eigenvalues --    0.09158   0.09447   0.10299   0.10790   0.11450
  Beta virt. eigenvalues --    0.11633   0.11795   0.11996   0.12461   0.12581

 Mulliken charges and spin densities:
               1          2
     1  C    0.943944  -1.544268
     2  C   -0.530608   0.297410
     3  C   -0.019374  -0.448407
     4  C    0.648227   0.402760
     5  C    0.215959  -0.870040
     6  C   -0.018553   0.101561
     7  C   -0.350058   0.078756
     8  O   -0.333855   0.007488
     9  N   -0.153680   0.059893
    10  C    0.259222  -0.543960
    11  C    0.332458  -0.774504
    12  C    0.187007  -0.826832
    13  N   -0.274463   0.051376
    14  H   -0.208558   0.345740
    15  H   -0.465465   0.623961
    16  H   -0.045098   0.179836
    17  H   -0.379460   0.535258
    18  H   -0.524530   0.696074
    19  H   -0.226285   0.361212
    20  H   -0.046437   0.234981
    21  H    0.176938   0.071138
    22  H    0.292772  -0.090333
    23  H    0.117335   0.060695
    24  H   -0.460563   0.686791
    25  H    0.749911  -0.633247
    26  H    0.217298   0.055884
    27  H   -0.519376   0.694054
    28  H   -0.591957   0.775301
    29  H    0.139601  -0.000885
    30  H   -0.213173   0.341868
    31  H    0.080820   0.070440
 Sum of Mulliken charges =  -1.00000   1.00000

 Dipole moment (field-independent basis, Debye):
    X=              1.7164    Y=             -1.5267    Z=              3.4415  Tot=              4.1378
 Quadrupole moment (field-independent basis, Debye-Ang):
   XX=           -155.8882   YY=           -123.2164   ZZ=           -130.2578
   XY=              2.8047   XZ=             -6.3792   YZ=              4.7206

 Summary of Natural Population Analysis:

                                       Natural Population
                Natural  -----------------------------------------------
    Atom  No    Charge         Core      Valence    Rydberg      Total
 -----------------------------------------------------------------------
      C    1   -0.28857      0.99967     2.28282    0.00608     3.28857
      C    2   -0.19302      0.99964     2.18473    0.00865     3.19302
      C    3   -0.18073      0.99961     2.17126    0.00986     3.18073
      C    4   -0.16281      0.99950     2.15438    0.00893     3.16281
      C    5   -0.18762      0.99961     2.17782    0.01020     3.18762
      C    6   -0.24269      0.99958     2.23393    0.00918     3.24269
      C    7    0.34704      0.99967     1.62949    0.02379     2.65296
      O    8   -0.32778      0.99988     3.32251    0.00540     4.32778
      N    9   -0.31704      0.99967     2.80712    0.01026     3.81704
      C   10   -0.09045      0.99963     2.08006    0.01076     3.09045
      C   11   -0.29117      0.99965     2.28585    0.00567     3.29117
      C   12    0.16640      0.99965     1.81537    0.01858     2.83360
      N   13   -0.18431      0.99979     2.67380    0.01072     3.68431
      H   14    0.09387      0.00000     0.40508    0.00106     0.40613
      H   15    0.10438      0.00000     0.39426    0.00136     0.39562
      H   16    0.09574      0.00000     0.40326    0.00100     0.40426
      H   17    0.09813      0.00000     0.39972    0.00215     0.40187
      H   18    0.10246      0.00000     0.39578    0.00176     0.39754
      H   19    0.10210      0.00000     0.39589    0.00201     0.39790
      H   20    0.10011      0.00000     0.39854    0.00135     0.39989
      H   21    0.11928      0.00000     0.37906    0.00166     0.38072
      H   22    0.11599      0.00000     0.38260    0.00141     0.38401
      H   23    0.10605      0.00000     0.39283    0.00112     0.39395
      H   24    0.11876      0.00000     0.37997    0.00127     0.38124
      H   25    0.10588      0.00000     0.39157    0.00255     0.39412
      H   26    0.19161      0.00000     0.30638    0.00201     0.30839
      H   27    0.09684      0.00000     0.40162    0.00154     0.40316
      H   28    0.09951      0.00000     0.39838    0.00211     0.40049
      H   29    0.09789      0.00000     0.40120    0.00092     0.40211
      H   30    0.10010      0.00000     0.39881    0.00109     0.39990
      H   31    0.10404      0.00000     0.39456    0.00140     0.39596
 =======================================================================
   * Total *    0.00000     12.99554    36.83861    0.16585    50.00000

 Normal termination of Gaussian 16 at Wed Dec  9 23:07:05 2020.
