 Gaussian 16, Revision A.03,

 -----------------------------------------------------------
 # opt freq B3LYP/6-31G(d) empiricaldispersion=gd3bj scf=xqc
 -----------------------------------------------------------

 ------------------------------
 CID_79605392_JID_9835_neutraal
 ------------------------------
 Symbolic Z-matrix:
 Charge =  0 Multiplicity = 1

 SCF Done:  E(RB3LYP) =  -771.846704826     A.U. after   14 cycles
 SCF Done:  E(RB3LYP) =  -771.851495695     A.U. after   12 cycles
 SCF Done:  E(RB3LYP) =  -771.851740422     A.U. after   11 cycles
 SCF Done:  E(RB3LYP) =  -771.851859544     A.U. after   11 cycles
 SCF Done:  E(RB3LYP) =  -771.851903987     A.U. after   10 cycles
 SCF Done:  E(RB3LYP) =  -771.851932861     A.U. after   10 cycles
 SCF Done:  E(RB3LYP) =  -771.851945540     A.U. after   10 cycles
 SCF Done:  E(RB3LYP) =  -771.851953299     A.U. after   10 cycles
 SCF Done:  E(RB3LYP) =  -771.851955556     A.U. after    9 cycles
 SCF Done:  E(RB3LYP) =  -771.851957234     A.U. after    9 cycles
 SCF Done:  E(RB3LYP) =  -771.851973259     A.U. after    9 cycles
 SCF Done:  E(RB3LYP) =  -771.851974077     A.U. after    9 cycles
 SCF Done:  E(RB3LYP) =  -771.851974223     A.U. after    8 cycles
 SCF Done:  E(RB3LYP) =  -771.851974312     A.U. after    7 cycles
 SCF Done:  E(RB3LYP) =  -771.851974327     A.U. after    6 cycles
 Optimization completed.
    -- Stationary point found.
 Normal termination of Gaussian 16 at Sun Dec 13 16:32:25 2020.

 --------------------------------------------------------------------
 #N Geom=AllCheck Guess=TCheck SCRF=Check GenChk RB3LYP/6-31G(d) Freq
 --------------------------------------------------------------------

 Structure from the checkpoint file:  "JID_9835.chk"
 ------------------------------
 CID_79605392_JID_9835_neutraal
 ------------------------------
 Charge =  0 Multiplicity = 1

 SCF Done:  E(RB3LYP) =  -771.851974327     A.U. after    1 cycles

  Exact polarizability: 232.900  -1.336 206.345  19.924   0.547 127.586
 Approx polarizability: 298.848  -0.191 324.808  37.670   0.782 201.509

                      1                      2                      3
                      A                      A                      A
 Frequencies --     13.7257                24.5120                27.5686
 Red. masses --      3.6108                 3.2178                 1.0902
 Frc consts  --      0.0004                 0.0011                 0.0005
 IR Inten    --      0.0376                 0.5933                 0.1765

                      4                      5                      6
                      A                      A                      A
 Frequencies --     32.2706                57.6923                67.1964
 Red. masses --      3.6263                 3.5461                 3.9806
 Frc consts  --      0.0022                 0.0070                 0.0106
 IR Inten    --      0.0438                 0.8838                 0.7396

                      7                      8                      9
                      A                      A                      A
 Frequencies --     92.0594               109.2134               133.1858
 Red. masses --      2.3185                 3.0075                 1.1300
 Frc consts  --      0.0116                 0.0211                 0.0118
 IR Inten    --      0.1598                 0.5550                 0.0223

                     10                     11                     12
                      A                      A                      A
 Frequencies --    166.2254               184.5208               186.1602
 Red. masses --      1.1848                 2.5399                 3.8094
 Frc consts  --      0.0193                 0.0510                 0.0778
 IR Inten    --      0.1225                 2.2309                 2.8441

                     13                     14                     15
                      A                      A                      A
 Frequencies --    211.3856               211.9672               217.7814
 Red. masses --      3.0291                 1.1285                 3.1074
 Frc consts  --      0.0797                 0.0299                 0.0868
 IR Inten    --      2.7504                 0.2889                 0.5028

                     16                     17                     18
                      A                      A                      A
 Frequencies --    244.5567               270.7928               279.5187
 Red. masses --      2.6629                 2.5460                 2.4966
 Frc consts  --      0.0938                 0.1100                 0.1149
 IR Inten    --      0.4994                 0.7048                 0.9944

                     19                     20                     21
                      A                      A                      A
 Frequencies --    309.0757               328.5224               345.8071
 Red. masses --      2.3513                 1.9975                 3.8401
 Frc consts  --      0.1323                 0.1270                 0.2706
 IR Inten    --      2.2458                 0.5214                 0.8730

                     22                     23                     24
                      A                      A                      A
 Frequencies --    375.7929               416.7380               441.8134
 Red. masses --      2.8784                 3.4674                 3.1310
 Frc consts  --      0.2395                 0.3548                 0.3601
 IR Inten    --      1.7281                 2.9788                 3.6299

                     25                     26                     27
                      A                      A                      A
 Frequencies --    467.8141               516.1971               517.2709
 Red. masses --      3.7674                 3.7590                 2.4769
 Frc consts  --      0.4858                 0.5901                 0.3905
 IR Inten    --      1.3809                 1.0106                 0.2072

                     28                     29                     30
                      A                      A                      A
 Frequencies --    540.1717               584.5282               608.6113
 Red. masses --      4.5402                 3.9152                 4.0708
 Frc consts  --      0.7805                 0.7882                 0.8884
 IR Inten    --      0.6698                 1.5752                 4.8617

                     31                     32                     33
                      A                      A                      A
 Frequencies --    641.7935               646.4987               708.1548
 Red. masses --      3.3689                 4.7096                 3.2837
 Frc consts  --      0.8176                 1.1598                 0.9702
 IR Inten    --      4.1397                 4.9688                 1.5378

                     34                     35                     36
                      A                      A                      A
 Frequencies --    715.0901               732.7115               736.9153
 Red. masses --      2.8502                 3.1937                 3.5960
 Frc consts  --      0.8587                 1.0102                 1.1506
 IR Inten    --      7.7219                10.1287                 6.8892

                     37                     38                     39
                      A                      A                      A
 Frequencies --    781.8021               792.4691               798.5221
 Red. masses --      1.3569                 1.3243                 1.3726
 Frc consts  --      0.4887                 0.4900                 0.5157
 IR Inten    --     32.4476                17.4426                12.1294

                     40                     41                     42
                      A                      A                      A
 Frequencies --    819.1602               859.1757               904.9474
 Red. masses --      1.6193                 2.0553                 1.4332
 Frc consts  --      0.6402                 0.8939                 0.6915
 IR Inten    --     41.7097                 2.1307                 0.6264

                     43                     44                     45
                      A                      A                      A
 Frequencies --    915.9587               939.1835               970.2089
 Red. masses --      1.4549                 2.1173                 1.7523
 Frc consts  --      0.7192                 1.1004                 0.9718
 IR Inten    --      6.2375                10.3500                 1.9466

                     46                     47                     48
                      A                      A                      A
 Frequencies --    973.1610               973.6818              1003.0973
 Red. masses --      1.8519                 1.5681                 1.6335
 Frc consts  --      1.0333                 0.8759                 0.9684
 IR Inten    --      1.8076                 2.7548                 0.9865

                     49                     50                     51
                      A                      A                      A
 Frequencies --   1005.9057              1021.1731              1037.2869
 Red. masses --      1.7909                 5.4281                 1.5429
 Frc consts  --      1.0677                 3.3350                 0.9781
 IR Inten    --     14.5911                 0.6580                 8.2192

                     52                     53                     54
                      A                      A                      A
 Frequencies --   1038.5201              1067.8050              1075.5346
 Red. masses --      1.5656                 1.6597                 1.6128
 Frc consts  --      0.9949                 1.1150                 1.0992
 IR Inten    --      0.2141                 0.6399                 1.3825

                     55                     56                     57
                      A                      A                      A
 Frequencies --   1076.3715              1080.7141              1111.3619
 Red. masses --      1.5370                 1.5239                 1.9641
 Frc consts  --      1.0492                 1.0487                 1.4293
 IR Inten    --      8.9137                 0.8350                 5.3081

                     58                     59                     60
                      A                      A                      A
 Frequencies --   1125.0120              1136.0702              1151.8691
 Red. masses --      2.3756                 1.9347                 2.2712
 Frc consts  --      1.7715                 1.4712                 1.7755
 IR Inten    --     20.4826                 2.6168                29.1757

                     61                     62                     63
                      A                      A                      A
 Frequencies --   1176.1853              1186.5381              1202.9235
 Red. masses --      1.9345                 1.7638                 1.5970
 Frc consts  --      1.5768                 1.4631                 1.3616
 IR Inten    --      5.6024                 7.1220                 0.3588

                     64                     65                     66
                      A                      A                      A
 Frequencies --   1204.8068              1227.2732              1266.7155
 Red. masses --      1.1252                 2.7110                 1.3231
 Frc consts  --      0.9623                 2.4058                 1.2508
 IR Inten    --      0.6002                 3.3214                 0.9218

                     67                     68                     69
                      A                      A                      A
 Frequencies --   1275.8380              1281.7751              1314.3687
 Red. masses --      1.3684                 2.8480                 1.4469
 Frc consts  --      1.3123                 2.7569                 1.4727
 IR Inten    --     32.6997                 3.6731                 0.9237

                     70                     71                     72
                      A                      A                      A
 Frequencies --   1337.2569              1362.7567              1375.1284
 Red. masses --      1.5152                 2.5651                 1.9719
 Frc consts  --      1.5964                 2.8067                 2.1970
 IR Inten    --      4.3306                 1.2761                42.4911

                     73                     74                     75
                      A                      A                      A
 Frequencies --   1401.9339              1408.3197              1421.0132
 Red. masses --      1.6376                 1.4067                 1.9865
 Frc consts  --      1.8963                 1.6438                 2.3634
 IR Inten    --     68.5964                11.6798                11.6275

                     76                     77                     78
                      A                      A                      A
 Frequencies --   1437.5826              1441.3402              1444.5562
 Red. masses --      1.2963                 1.2560                 2.2786
 Frc consts  --      1.5785                 1.5374                 2.8015
 IR Inten    --     18.4954                 0.2587                 6.9958

                     79                     80                     81
                      A                      A                      A
 Frequencies --   1444.9465              1454.0136              1481.4565
 Red. masses --      1.2552                 1.4973                 2.1422
 Frc consts  --      1.5440                 1.8651                 2.7700
 IR Inten    --      4.3169                23.2692                14.9548

                     82                     83                     84
                      A                      A                      A
 Frequencies --   1487.9924              1503.2097              1509.7154
 Red. masses --      2.8024                 1.3374                 1.0728
 Frc consts  --      3.6558                 1.7805                 1.4407
 IR Inten    --     18.1307                26.5901                 0.9040

                     85                     86                     87
                      A                      A                      A
 Frequencies --   1511.3565              1514.1355              1517.5194
 Red. masses --      1.0651                 1.1237                 1.0528
 Frc consts  --      1.4335                 1.5178                 1.4284
 IR Inten    --      7.1398                 1.4504                 4.4668

                     88                     89                     90
                      A                      A                      A
 Frequencies --   1519.8488              1520.8919              1524.5223
 Red. masses --      1.1027                 1.0471                 1.0955
 Frc consts  --      1.5008                 1.4270                 1.5002
 IR Inten    --      1.1083                 6.2182                10.3859

                     91                     92                     93
                      A                      A                      A
 Frequencies --   1526.6001              1531.3958              1541.1589
 Red. masses --      1.3687                 1.1932                 1.1825
 Frc consts  --      1.8794                 1.6487                 1.6548
 IR Inten    --     11.0963                 2.1979                 8.9053

                     94                     95                     96
                      A                      A                      A
 Frequencies --   1543.2609              1546.3455              1580.8761
 Red. masses --      1.8620                 1.1244                 3.5721
 Frc consts  --      2.6128                 1.5841                 5.2598
 IR Inten    --      6.6554                 4.3215                16.7293

                     97                     98                     99
                      A                      A                      A
 Frequencies --   1644.0935              1652.8120              1669.9733
 Red. masses --      6.1196                 5.5500                 5.7687
 Frc consts  --      9.7460                 8.9328                 9.4787
 IR Inten    --      2.7488                 3.3681                11.7648

                    100                    101                    102
                      A                      A                      A
 Frequencies --   2935.5807              2944.1482              3022.0483
 Red. masses --      1.0731                 1.0739                 1.0417
 Frc consts  --      5.4485                 5.4845                 5.6051
 IR Inten    --     63.2267               100.0411                60.5755

                    103                    104                    105
                      A                      A                      A
 Frequencies --   3024.4665              3040.7578              3049.1333
 Red. masses --      1.0419                 1.0394                 1.0876
 Frc consts  --      5.6154                 5.6623                 5.9578
 IR Inten    --     47.0538                33.3493                33.2696

                    106                    107                    108
                      A                      A                      A
 Frequencies --   3056.7675              3060.7299              3062.2209
 Red. masses --      1.0371                 1.0865                 1.1002
 Frc consts  --      5.7092                 5.9971                 6.0787
 IR Inten    --     16.5954                27.0571                 4.1943

                    109                    110                    111
                      A                      A                      A
 Frequencies --   3063.5276              3080.0862              3095.4807
 Red. masses --      1.0986                 1.0604                 1.0976
 Frc consts  --      6.0749                 5.9269                 6.1963
 IR Inten    --     55.9748                28.6913                22.1416

                    112                    113                    114
                      A                      A                      A
 Frequencies --   3114.0757              3124.3445              3128.1040
 Red. masses --      1.1043                 1.1019                 1.1013
 Frc consts  --      6.3096                 6.3372                 6.3490
 IR Inten    --      2.2190                19.3743                43.0860

                    115                    116                    117
                      A                      A                      A
 Frequencies --   3130.8913              3140.7032              3154.3660
 Red. masses --      1.0958                 1.1045                 1.0938
 Frc consts  --      6.3290                 6.4191                 6.4121
 IR Inten    --     17.2079                34.3364                 3.7610

                    118                    119                    120
                      A                      A                      A
 Frequencies --   3171.8330              3180.1197              3195.3362
 Red. masses --      1.0856                 1.0902                 1.0897
 Frc consts  --      6.4351                 6.4962                 6.5555
 IR Inten    --      1.1606                26.9484                18.2220

                    121                    122                    123
                      A                      A                      A
 Frequencies --   3199.3405              3237.9451              3500.6315
 Red. masses --      1.0959                 1.0955                 1.0747
 Frc consts  --      6.6092                 6.7672                 7.7597
 IR Inten    --     25.5709                10.2894                 0.8288

 - Thermochemistry -
 -------------------
 Temperature   298.150 Kelvin.  Pressure   1.00000 Atm.
 Atom     1 has atomic number  6 and mass  12.00000

 Molecular mass:   256.19395 amu.
 Principal axes and moments of inertia in atomic units:
                           1         2         3
     Eigenvalues --  2415.65956********************
           X            0.99999   0.00092   0.00326
           Y           -0.00094   0.99998   0.00553
           Z           -0.00326  -0.00553   0.99998
 This molecule is an asymmetric top.
 Rotational symmetry number  1.
 Warning -- assumption of classical behavior for rotation
           may cause significant error
 Rotational temperatures (Kelvin)      0.03586     0.00817     0.00716
 Rotational constants (GHZ):           0.74710     0.17025     0.14912
 Zero-point vibrational energy     996058.1 (Joules/Mol)
                                  238.06359 (Kcal/Mol)
 Warning -- explicit consideration of  30 degrees of freedom as
           vibrations may cause significant error
 Vibrational temperatures:     19.75    35.27    39.67    46.43    83.01
          (Kelvin)             96.68   132.45   157.13   191.62   239.16
                              265.48   267.84   304.14   304.97   313.34
                              351.86   389.61   402.17   444.69   472.67
                              497.54   540.68   599.59   635.67   673.08
                              742.69   744.24   777.19   841.01   875.66
                              923.40   930.17  1018.88  1028.86  1054.21
                             1060.26  1124.84  1140.19  1148.90  1178.59
                             1236.16  1302.02  1317.86  1351.28  1395.91
                             1400.16  1400.91  1443.23  1447.27  1469.24
                             1492.42  1494.20  1536.33  1547.45  1548.66
                             1554.91  1599.00  1618.64  1634.55  1657.28
                             1692.27  1707.16  1730.74  1733.45  1765.77
                             1822.52  1835.65  1844.19  1891.08  1924.01
                             1960.70  1978.50  2017.07  2026.26  2044.52
                             2068.36  2073.77  2078.39  2078.96  2092.00
                             2131.49  2140.89  2162.78  2172.14  2174.50
                             2178.50  2183.37  2186.72  2188.22  2193.45
                             2196.44  2203.34  2217.38  2220.41  2224.85
                             2274.53  2365.48  2378.03  2402.72  4223.65
                             4235.97  4348.05  4351.53  4374.97  4387.02
                             4398.01  4403.71  4405.85  4407.73  4431.56
                             4453.71  4480.46  4495.23  4500.64  4504.65
                             4518.77  4538.43  4563.56  4575.48  4597.38
                             4603.14  4658.68  5036.63

 Zero-point correction=                           0.379378 (Hartree/Particle)
 Thermal correction to Energy=                    0.399581
 Thermal correction to Enthalpy=                  0.400525
 Thermal correction to Gibbs Free Energy=         0.327495
 Sum of electronic and zero-point Energies=           -771.472596
 Sum of electronic and thermal Energies=              -771.452394
 Sum of electronic and thermal Enthalpies=            -771.451449
 Sum of electronic and thermal Free Energies=         -771.524479

                     E (Thermal)             CV                S
                      KCal/Mol        Cal/Mol-Kelvin    Cal/Mol-Kelvin
 Total                  250.741             74.982            153.704
 Electronic               0.000              0.000              0.000
 Translational            0.889              2.981             42.522
 Rotational               0.889              2.981             34.093
 Vibrational            248.963             69.020             77.088
 Vibration     1          0.593              1.986              7.382
 Vibration     2          0.593              1.985              6.230
 Vibration     3          0.593              1.984              5.997
 Vibration     4          0.594              1.983              5.685
 Vibration     5          0.596              1.974              4.535
 Vibration     6          0.598              1.970              4.234
 Vibration     7          0.602              1.955              3.616
 Vibration     8          0.606              1.942              3.283
 Vibration     9          0.613              1.920              2.900
 Vibration    10          0.624              1.884              2.478
 Vibration    11          0.631              1.861              2.282
 Vibration    12          0.632              1.859              2.266
 Vibration    13          0.643              1.823              2.032
 Vibration    14          0.643              1.823              2.027
 Vibration    15          0.646              1.814              1.977
 Vibration    16          0.660              1.772              1.769
 Vibration    17          0.674              1.727              1.591
 Vibration    18          0.680              1.711              1.537
 Vibration    19          0.698              1.656              1.367
 Vibration    20          0.712              1.619              1.267
 Vibration    21          0.724              1.584              1.185
 Vibration    22          0.747              1.522              1.056
 Vibration    23          0.780              1.434              0.903
 Vibration    24          0.802              1.379              0.821
 Vibration    25          0.825              1.321              0.744
 Vibration    26          0.871              1.214              0.619
 Vibration    27          0.872              1.212              0.616
 Vibration    28          0.895              1.161              0.565
 Vibration    29          0.941              1.065              0.477
 Vibration    30          0.967              1.014              0.435

                           ! Non-Optimized Parameters !
 Normal termination of Gaussian 16 at Sun Dec 13 16:55:34 2020.

 ----------------------------------------------------------------------
 # B3LYP/6-311++G(d,p) empiricaldispersion=gd3bj scf=xqc pop=npa geom=c
 heck
 ----------------------------------------------------------------------

 --------------------------------------
 CID_79605392_JID_9835_Energie_neutraal
 --------------------------------------
 Structure from the checkpoint file:  "JID_9835.chk"
 Charge =  0 Multiplicity = 1

 SCF Done:  E(RB3LYP) =  -772.055788935     A.U. after   14 cycles
 Normal termination of Gaussian 16 at Sun Dec 13 17:06:17 2020.

 ----------------------------------------------------------------------
 # B3LYP/6-311++G(d,p) empiricaldispersion=gd3bj scf=xqc pop=npa geom=c
 heck
 ----------------------------------------------------------------------

 ------------------------------------
 CID_79605392_JID_9835_Energie_kation
 ------------------------------------
 Structure from the checkpoint file:  "JID_9835.chk"
 Charge =  1 Multiplicity = 2

 SCF Done:  E(UB3LYP) =  -771.802653432     A.U. after   26 cycles
 Normal termination of Gaussian 16 at Sun Dec 13 17:34:51 2020.
 Gaussian 16:  ES64L-G16RevA.03 25-Dec-2016

 ----------------------------------------------------------------------
 # B3LYP/6-311++G(d,p) empiricaldispersion=gd3bj scf=xqc pop=npa geom=c
 heck
 ----------------------------------------------------------------------

 -----------------------------------
 CID_79605392_JID_9835_Energie_anion
 -----------------------------------
 Structure from the checkpoint file:  "JID_9835.chk"
 Charge = -1 Multiplicity = 2

                         Standard orientation:
 ---------------------------------------------------------------------
 Center     Atomic      Atomic             Coordinates (Angstroms)
 Number     Number       Type             X           Y           Z
 ---------------------------------------------------------------------
      1          6           0        4.322815    2.015640    1.102947
      2          6           0        3.972519    1.617441   -0.333126
      3          7           0        3.174477    0.404044   -0.401155
      4          6           0        3.685852   -0.885225   -0.430549
      5          6           0        2.614291   -1.750155   -0.366727
      6          6           0        1.418607   -0.976134   -0.292541
      7          6           0        1.792736    0.356179   -0.306272
      8          6           0        0.941571    1.582257   -0.251221
      9          6           0        0.016871   -1.491880   -0.179598
     10          7           0       -0.549769   -1.214564    1.148339
     11          6           0       -1.903375   -1.738352    1.312069
     12          6           0       -2.911699   -0.908160    0.541615
     13          6           0       -3.891594   -1.507632   -0.250358
     14          6           0       -4.814066   -0.720609   -0.943806
     15          6           0       -4.756771    0.667683   -0.855434
     16          6           0       -3.778209    1.291755   -0.067854
     17          6           0       -2.867212    0.489364    0.621845
     18          6           0       -3.724110    2.796661    0.044312
     19          6           0        5.148619   -1.169547   -0.537285
     20          1           0        3.414458    2.187440    1.688937
     21          1           0        4.921048    2.933770    1.113556
     22          1           0        4.895787    1.223689    1.595759
     23          1           0        3.415448    2.420359   -0.824723
     24          1           0        4.884026    1.460868   -0.917655
     25          1           0        2.678095   -2.830996   -0.389849
     26          1           0       -0.107990    1.287417   -0.189523
     27          1           0        1.155037    2.205881    0.627560
     28          1           0        1.063111    2.218639   -1.138871
     29          1           0       -0.641239   -1.009300   -0.912720
     30          1           0        0.001890   -2.571812   -0.419371
     31          1           0        0.067273   -1.612413    1.853271
     32          1           0       -2.142811   -1.699504    2.383103
     33          1           0       -2.000705   -2.796755    1.002605
     34          1           0       -3.927405   -2.591327   -0.333000
     35          1           0       -5.570672   -1.193279   -1.564561
     36          1           0       -5.470939    1.276449   -1.405393
     37          1           0       -2.088896    0.945979    1.226967
     38          1           0       -3.880535    3.276928   -0.928274
     39          1           0       -4.503242    3.174291    0.719500
     40          1           0       -2.758626    3.131548    0.436488
     41          1           0        5.591264   -0.768250   -1.459652
     42          1           0        5.726267   -0.759909    0.302607
     43          1           0        5.305325   -2.251805   -0.545137
 ---------------------------------------------------------------------

 SCF Done:  E(UB3LYP) =  -772.043733576     A.U. after   33 cycles
 SCF Done:  E(UB3LYP) =  -772.043733577     a.u. after    1 cycles

 The electronic state is 2-A.
 Alpha  occ. eigenvalues --  -14.25435 -14.20699 -10.11631 -10.11034 -10.09889
 Alpha  occ. eigenvalues --  -10.09733 -10.09467 -10.09191 -10.09142 -10.09020
 Alpha  occ. eigenvalues --  -10.08581 -10.08473 -10.08256 -10.07953 -10.07882
 Alpha  occ. eigenvalues --  -10.07156 -10.07094 -10.05538 -10.05160  -0.88346
 Alpha  occ. eigenvalues --   -0.81904  -0.77158  -0.71822  -0.69258  -0.68245
 Alpha  occ. eigenvalues --   -0.67038  -0.64459  -0.62850  -0.60562  -0.59973
 Alpha  occ. eigenvalues --   -0.56064  -0.54429  -0.52625  -0.51028  -0.48331
 Alpha  occ. eigenvalues --   -0.46900  -0.43777  -0.42030  -0.39842  -0.39688
 Alpha  occ. eigenvalues --   -0.38577  -0.36690  -0.36226  -0.35671  -0.34276
 Alpha  occ. eigenvalues --   -0.34005  -0.33616  -0.33235  -0.32371  -0.32287
 Alpha  occ. eigenvalues --   -0.31927  -0.31125  -0.30934  -0.30373  -0.30079
 Alpha  occ. eigenvalues --   -0.28982  -0.28474  -0.28192  -0.27211  -0.26317
 Alpha  occ. eigenvalues --   -0.25783  -0.25352  -0.25207  -0.25030  -0.24579
 Alpha  occ. eigenvalues --   -0.16556  -0.15958  -0.14145  -0.13552  -0.09980
 Alpha  occ. eigenvalues --    0.03880
 Alpha virt. eigenvalues --    0.05306   0.06007   0.06292   0.06970   0.07030
 Alpha virt. eigenvalues --    0.07127   0.07715   0.08274   0.08488   0.08705
 Alpha virt. eigenvalues --    0.09559   0.10058   0.10326   0.10451   0.10775

  Beta  occ. eigenvalues --  -14.25436 -14.20689 -10.11608 -10.11025 -10.09884
  Beta  occ. eigenvalues --  -10.09736 -10.09464 -10.09175 -10.09136 -10.09012
  Beta  occ. eigenvalues --  -10.08578 -10.08450 -10.08235 -10.07922 -10.07868
  Beta  occ. eigenvalues --  -10.07137 -10.07055 -10.05538 -10.05158  -0.88336
  Beta  occ. eigenvalues --   -0.81886  -0.77135  -0.71799  -0.69233  -0.68221
  Beta  occ. eigenvalues --   -0.67005  -0.64426  -0.62812  -0.60528  -0.59938
  Beta  occ. eigenvalues --   -0.56021  -0.54376  -0.52579  -0.51003  -0.48295
  Beta  occ. eigenvalues --   -0.46885  -0.43746  -0.41999  -0.39814  -0.39656
  Beta  occ. eigenvalues --   -0.38554  -0.36658  -0.36194  -0.35640  -0.34253
  Beta  occ. eigenvalues --   -0.33979  -0.33591  -0.33214  -0.32345  -0.32261
  Beta  occ. eigenvalues --   -0.31898  -0.31088  -0.30904  -0.30332  -0.30054
  Beta  occ. eigenvalues --   -0.28959  -0.28451  -0.28158  -0.27182  -0.26280
  Beta  occ. eigenvalues --   -0.25759  -0.25326  -0.25183  -0.25008  -0.24560
  Beta  occ. eigenvalues --   -0.16490  -0.15901  -0.14124  -0.13544  -0.09950
  Beta virt. eigenvalues --    0.05537   0.06151   0.06361   0.06559   0.07079
  Beta virt. eigenvalues --    0.07272   0.07494   0.08073   0.08503   0.08793
  Beta virt. eigenvalues --    0.09011   0.09783   0.10279   0.10450   0.10672

 Mulliken charges and spin densities:
               1          2
     1  C    1.655205  -2.040298
     2  C   -1.410378   1.236894
     3  N    0.385113   0.005063
     4  C   -1.420026   1.263586
     5  C    0.231883   0.060862
     6  C    0.661905  -0.171998
     7  C   -0.590078   0.120667
     8  C   -0.072101  -0.868324
     9  C   -0.408677  -0.218960
    10  N   -0.127760   0.115669
    11  C    0.279171  -0.915541
    12  C    0.422708   0.345060
    13  C   -0.008286  -0.453430
    14  C   -0.089191  -0.310179
    15  C   -0.420838  -0.056649
    16  C   -0.505765   0.867829
    17  C   -0.534712   0.555719
    18  C    0.780161  -1.316675
    19  C    1.463897  -2.150381
    20  H   -0.058394   0.207115
    21  H   -0.541633   0.681585
    22  H   -0.029741   0.171517
    23  H   -0.222268   0.361272
    24  H   -0.510377   0.660747
    25  H   -0.062234   0.208736
    26  H    0.848042  -0.741254
    27  H   -0.186531   0.329339
    28  H   -0.158911   0.324347
    29  H    0.085432   0.062387
    30  H    0.140232  -0.032890
    31  H    0.195973   0.029275
    32  H   -0.164544   0.344957
    33  H    0.022589   0.101223
    34  H    0.021198   0.120943
    35  H   -0.092333   0.251319
    36  H   -0.165763   0.314849
    37  H    0.121865   0.099983
    38  H   -0.114335   0.255341
    39  H    0.042025   0.117958
    40  H   -0.165609   0.302513
    41  H   -0.143618   0.313629
    42  H   -0.203451   0.346426
    43  H    0.050151   0.099770
 Sum of Mulliken charges =  -1.00000   1.00000

 Dipole moment (field-independent basis, Debye):
    X=             -5.1623    Y=             -4.3574    Z=             -0.2910  Tot=              6.7617
 Quadrupole moment (field-independent basis, Debye-Ang):
   XX=           -239.3001   YY=           -165.9482   ZZ=           -151.0068
   XY=             -9.8349   XZ=             -2.0021   YZ=             -0.7098

 Summary of Natural Population Analysis:

                                       Natural Population
                Natural  -----------------------------------------------
    Atom  No    Charge         Core      Valence    Rydberg      Total
 -----------------------------------------------------------------------
      C    1   -0.28798      0.99966     2.28332    0.00501     3.28798
      C    2   -0.08436      0.99962     2.07412    0.01062     3.08436
      N    3   -0.20669      0.99960     2.69692    0.01018     3.70669
      C    4    0.07446      0.99953     1.91342    0.01259     2.92554
      C    5   -0.14205      0.99946     2.13438    0.00821     3.14205
      C    6   -0.06613      0.99946     2.05718    0.00949     3.06613
      C    7    0.08678      0.99947     1.90247    0.01129     2.91322
      C    8   -0.30385      0.99963     2.29793    0.00629     3.30385
      C    9   -0.09322      0.99959     2.08400    0.00963     3.09322
      N   10   -0.33422      0.99974     2.82400    0.01048     3.83422
      C   11   -0.09416      0.99958     2.08243    0.01215     3.09416
      C   12   -0.01502      0.99950     2.00582    0.00970     3.01502
      C   13   -0.10804      0.99951     2.09960    0.00894     3.10804
      C   14   -0.09749      0.99957     2.08796    0.00997     3.09749
      C   15   -0.10305      0.99951     2.09458    0.00896     3.10305
      C   16   -0.01551      0.99952     2.00544    0.01055     3.01551
      C   17   -0.09979      0.99946     2.09105    0.00928     3.09979
      C   18   -0.29149      0.99964     2.28688    0.00497     3.29149
      C   19   -0.30184      0.99964     2.29703    0.00517     3.30184
      H   20    0.10000      0.00000     0.39879    0.00121     0.40000
      H   21    0.10206      0.00000     0.39618    0.00176     0.39794
      H   22    0.09949      0.00000     0.39933    0.00118     0.40051
      H   23    0.10044      0.00000     0.39821    0.00135     0.39956
      H   24    0.10076      0.00000     0.39767    0.00157     0.39924
      H   25    0.10019      0.00000     0.39903    0.00078     0.39981
      H   26    0.11417      0.00000     0.38466    0.00117     0.38583
      H   27    0.10368      0.00000     0.39493    0.00139     0.39632
      H   28    0.10075      0.00000     0.39809    0.00115     0.39925
      H   29    0.09812      0.00000     0.40032    0.00156     0.40188
      H   30    0.08170      0.00000     0.41679    0.00152     0.41830
      H   31    0.17419      0.00000     0.32289    0.00292     0.32581
      H   32    0.10107      0.00000     0.39785    0.00108     0.39893
      H   33    0.07996      0.00000     0.41840    0.00165     0.42004
      H   34    0.09856      0.00000     0.40026    0.00119     0.40144
      H   35    0.09841      0.00000     0.40077    0.00082     0.40159
      H   36    0.09844      0.00000     0.40061    0.00095     0.40156
      H   37    0.10763      0.00000     0.39051    0.00185     0.39237
      H   38    0.10359      0.00000     0.39519    0.00122     0.39641
      H   39    0.10277      0.00000     0.39608    0.00116     0.39723
      H   40    0.10469      0.00000     0.39419    0.00112     0.39531
      H   41    0.10248      0.00000     0.39625    0.00126     0.39752
      H   42    0.10387      0.00000     0.39474    0.00138     0.39613
      H   43    0.10661      0.00000     0.39269    0.00069     0.39339
 =======================================================================
   * Total *   -0.00000     18.99167    50.80292    0.20541    70.00000

 Normal termination of Gaussian 16 at Sun Dec 13 18:11:18 2020.
