 Gaussian 16, Revision A.03,

 -----------------------------------------------------------
 # opt freq B3LYP/6-31G(d) empiricaldispersion=gd3bj scf=xqc
 -----------------------------------------------------------

 -------------------------------
 CID_123681641_JID_1739_neutraal
 -------------------------------
 Symbolic Z-matrix:
 Charge =  0 Multiplicity = 1

 SCF Done:  E(RB3LYP) =  -449.712856844     A.U. after   12 cycles
 SCF Done:  E(RB3LYP) =  -449.715412309     A.U. after   10 cycles
 SCF Done:  E(RB3LYP) =  -449.715586975     A.U. after   10 cycles
 SCF Done:  E(RB3LYP) =  -449.715869894     A.U. after    9 cycles
 SCF Done:  E(RB3LYP) =  -449.715959726     A.U. after    9 cycles
 SCF Done:  E(RB3LYP) =  -449.715968117     A.U. after    9 cycles
 SCF Done:  E(RB3LYP) =  -449.715994622     A.U. after    9 cycles
 SCF Done:  E(RB3LYP) =  -449.716003652     A.U. after    8 cycles
 SCF Done:  E(RB3LYP) =  -449.716181930     A.U. after   10 cycles
 SCF Done:  E(RB3LYP) =  -449.717031797     A.U. after   11 cycles
 SCF Done:  E(RB3LYP) =  -449.718416236     A.U. after    8 cycles
 SCF Done:  E(RB3LYP) =  -449.718418099     A.U. after    8 cycles
 SCF Done:  E(RB3LYP) =  -449.718418759     A.U. after    7 cycles
 SCF Done:  E(RB3LYP) =  -449.718419059     A.U. after    7 cycles
 SCF Done:  E(RB3LYP) =  -449.718419335     A.U. after    7 cycles
 SCF Done:  E(RB3LYP) =  -449.718419349     A.U. after    6 cycles
 Optimization completed.
    -- Stationary point found.
 Normal termination of Gaussian 16 at Tue Dec  8 21:08:06 2020.

 --------------------------------------------------------------------
 #N Geom=AllCheck Guess=TCheck SCRF=Check GenChk RB3LYP/6-31G(d) Freq
 --------------------------------------------------------------------

 Structure from the checkpoint file:  "JID_1739.chk"
 -------------------------------
 CID_123681641_JID_1739_neutraal
 -------------------------------
 Charge =  0 Multiplicity = 1

 SCF Done:  E(RB3LYP) =  -449.718419349     A.U. after    1 cycles

  Exact polarizability: 127.504  -0.259 110.023  -0.528   0.056 103.340
 Approx polarizability: 155.588  -0.125 153.238  -0.054   0.901 149.420

                      1                      2                      3
                      A                      A                      A
 Frequencies --     46.2358                52.1564                84.7143
 Red. masses --      2.8983                 2.3051                 1.8868
 Frc consts  --      0.0037                 0.0037                 0.0080
 IR Inten    --      0.2045                 0.1055                 1.7191

                      4                      5                      6
                      A                      A                      A
 Frequencies --     88.9607               121.8851               151.0739
 Red. masses --      2.1580                 2.2523                 2.1586
 Frc consts  --      0.0101                 0.0197                 0.0290
 IR Inten    --      0.6787                 0.9147                 0.4660

                      7                      8                      9
                      A                      A                      A
 Frequencies --    204.4649               217.6850               223.4342
 Red. masses --      1.8133                 1.7016                 1.2122
 Frc consts  --      0.0447                 0.0475                 0.0357
 IR Inten    --      0.2600                 0.1396                 0.3206

                     10                     11                     12
                      A                      A                      A
 Frequencies --    227.5199               239.8887               266.7143
 Red. masses --      1.8684                 1.2674                 1.2650
 Frc consts  --      0.0570                 0.0430                 0.0530
 IR Inten    --      0.1264                 0.0850                 1.4368

                     13                     14                     15
                      A                      A                      A
 Frequencies --    286.3031               290.8660               301.6799
 Red. masses --      1.5989                 1.4249                 2.0471
 Frc consts  --      0.0772                 0.0710                 0.1098
 IR Inten    --      0.1443                 0.2557                 0.2545

                     16                     17                     18
                      A                      A                      A
 Frequencies --    326.7871               372.0921               387.8471
 Red. masses --      2.7181                 2.7498                 2.2363
 Frc consts  --      0.1710                 0.2243                 0.1982
 IR Inten    --      0.3616                 2.0821                 0.0355

                     19                     20                     21
                      A                      A                      A
 Frequencies --    467.4604               489.3865               539.2053
 Red. masses --      2.4606                 2.5624                 2.4506
 Frc consts  --      0.3168                 0.3616                 0.4198
 IR Inten    --      0.1283                 1.4856                 1.4867

                     22                     23                     24
                      A                      A                      A
 Frequencies --    634.7411               735.8698               805.8078
 Red. masses --      2.4727                 1.9121                 1.2631
 Frc consts  --      0.5870                 0.6100                 0.4832
 IR Inten    --      1.1704                 5.6985                73.8439

                     25                     26                     27
                      A                      A                      A
 Frequencies --    836.2052               858.1043               903.9294
 Red. masses --      1.5670                 2.2959                 2.0301
 Frc consts  --      0.6456                 0.9961                 0.9773
 IR Inten    --      8.1710                 1.1271                 0.4038

                     28                     29                     30
                      A                      A                      A
 Frequencies --    934.3876               939.7224               956.4401
 Red. masses --      1.2427                 1.2055                 1.9546
 Frc consts  --      0.6392                 0.6272                 1.0535
 IR Inten    --      2.1952                 1.7683                 2.9689

                     31                     32                     33
                      A                      A                      A
 Frequencies --    976.2506               983.0234              1003.0334
 Red. masses --      1.5254                 1.6895                 1.9584
 Frc consts  --      0.8566                 0.9619                 1.1609
 IR Inten    --      1.6459                 4.8109                 8.5665

                     34                     35                     36
                      A                      A                      A
 Frequencies --   1054.3737              1058.7602              1077.6467
 Red. masses --      1.8361                 1.6286                 2.0189
 Frc consts  --      1.2026                 1.0756                 1.3814
 IR Inten    --      1.4732                 0.7345                 3.7168

                     37                     38                     39
                      A                      A                      A
 Frequencies --   1081.3684              1121.1214              1143.7491
 Red. masses --      1.7003                 1.4135                 1.7160
 Frc consts  --      1.1715                 1.0467                 1.3226
 IR Inten    --      3.5792                 9.8357                 2.0155

                     40                     41                     42
                      A                      A                      A
 Frequencies --   1153.6320              1182.2489              1198.3159
 Red. masses --      2.6631                 2.2706                 2.0321
 Frc consts  --      2.0882                 1.8698                 1.7192
 IR Inten    --     47.7171                 5.5460                13.8405

                     43                     44                     45
                      A                      A                      A
 Frequencies --   1204.7639              1211.2819              1232.7502
 Red. masses --      2.0595                 1.8781                 1.9637
 Frc consts  --      1.7612                 1.6236                 1.7583
 IR Inten    --      2.0615                 3.8647                 1.5464

                     46                     47                     48
                      A                      A                      A
 Frequencies --   1302.5254              1309.3805              1322.5273
 Red. masses --      1.2708                 1.2936                 1.2103
 Frc consts  --      1.2703                 1.3068                 1.2473
 IR Inten    --      1.0160                 1.2462                 1.4871

                     49                     50                     51
                      A                      A                      A
 Frequencies --   1341.0479              1370.1630              1383.5113
 Red. masses --      1.2085                 1.3071                 1.4134
 Frc consts  --      1.2805                 1.4457                 1.5940
 IR Inten    --      1.5664                 3.2484                 7.7720

                     52                     53                     54
                      A                      A                      A
 Frequencies --   1387.4676              1404.9378              1422.0378
 Red. masses --      1.3855                 1.3187                 1.3633
 Frc consts  --      1.5715                 1.5337                 1.6243
 IR Inten    --      6.1992                 2.6785                 4.3877

                     55                     56                     57
                      A                      A                      A
 Frequencies --   1424.0470              1432.8048              1442.8356
 Red. masses --      1.3549                 1.3068                 1.2444
 Frc consts  --      1.6189                 1.5806                 1.5263
 IR Inten    --      0.1644                 5.6788                 0.9472

                     58                     59                     60
                      A                      A                      A
 Frequencies --   1446.5294              1453.2837              1483.6315
 Red. masses --      1.2597                 1.2604                 1.1835
 Frc consts  --      1.5530                 1.5684                 1.5349
 IR Inten    --     11.4393                 5.8984                 2.2325

                     61                     62                     63
                      A                      A                      A
 Frequencies --   1505.1524              1515.1272              1517.8209
 Red. masses --      1.2245                 1.0651                 1.0446
 Frc consts  --      1.6344                 1.4406                 1.4179
 IR Inten    --     15.8731                 1.0755                 0.8005

                     64                     65                     66
                      A                      A                      A
 Frequencies --   1518.6454              1524.0244              1529.5951
 Red. masses --      1.0540                 1.0506                 1.0464
 Frc consts  --      1.4322                 1.4378                 1.4425
 IR Inten    --     10.6002                 3.4879                 5.6262

                     67                     68                     69
                      A                      A                      A
 Frequencies --   1532.4999              1536.7359              1538.9311
 Red. masses --      1.0528                 1.0483                 1.0529
 Frc consts  --      1.4567                 1.4586                 1.4691
 IR Inten    --      1.7311                 2.7800                 3.0550

                     70                     71                     72
                      A                      A                      A
 Frequencies --   1541.0405              1543.6431              1547.1347
 Red. masses --      1.0680                 1.0594                 1.0564
 Frc consts  --      1.4944                 1.4873                 1.4898
 IR Inten    --     10.7144                11.8045                 5.5222

                     73                     74                     75
                      A                      A                      A
 Frequencies --   1549.8517              2917.6235              2946.5351
 Red. masses --      1.0629                 1.0734                 1.0618
 Frc consts  --      1.5043                 5.3837                 5.4314
 IR Inten    --      3.8648                59.8389               119.1155

                     76                     77                     78
                      A                      A                      A
 Frequencies --   2988.2070              3009.3647              3034.6951
 Red. masses --      1.0820                 1.0802                 1.0780
 Frc consts  --      5.6926                 5.7637                 5.8494
 IR Inten    --     35.5819                14.4398                10.1648

                     79                     80                     81
                      A                      A                      A
 Frequencies --   3038.2226              3041.5555              3044.4901
 Red. masses --      1.0739                 1.0393                 1.0676
 Frc consts  --      5.8405                 5.6648                 5.8302
 IR Inten    --     17.7184                24.8612                55.3087

                     82                     83                     84
                      A                      A                      A
 Frequencies --   3046.4028              3049.3954              3069.2143
 Red. masses --      1.0426                 1.0379                 1.0405
 Frc consts  --      5.7009                 5.6863                 5.7748
 IR Inten    --     42.6927                12.2935                22.3599

                     85                     86                     87
                      A                      A                      A
 Frequencies --   3071.7158              3075.6507              3104.3244
 Red. masses --      1.0711                 1.0991                 1.1017
 Frc consts  --      5.9544                 6.1257                 6.2550
 IR Inten    --     53.0183                20.3109                 2.8679

                     88                     89                     90
                      A                      A                      A
 Frequencies --   3108.1522              3109.3899              3110.4984
 Red. masses --      1.1021                 1.1016                 1.1012
 Frc consts  --      6.2729                 6.2749                 6.2775
 IR Inten    --     21.6207                57.5352                77.7485

                     91                     92                     93
                      A                      A                      A
 Frequencies --   3117.9614              3118.4701              3121.7072
 Red. masses --      1.1014                 1.1025                 1.1012
 Frc consts  --      6.3085                 6.3170                 6.3228
 IR Inten    --     55.6466                42.4249                42.0154

                     94                     95                     96
                      A                      A                      A
 Frequencies --   3132.5114              3152.4212              3474.4272
 Red. masses --      1.0973                 1.1025                 1.0736
 Frc consts  --      6.3441                 6.4554                 7.6358
 IR Inten    --     36.5116                22.0461                 1.5917

 - Thermochemistry -
 -------------------
 Temperature   298.150 Kelvin.  Pressure   1.00000 Atm.
 Atom     1 has atomic number  6 and mass  12.00000

 Molecular mass:   157.18305 amu.
 Principal axes and moments of inertia in atomic units:
                           1         2         3
     Eigenvalues --  1318.711973147.129593523.06018
           X            0.99998  -0.00209  -0.00548
           Y            0.00211   0.99999   0.00352
           Z            0.00547  -0.00353   0.99998
 This molecule is an asymmetric top.
 Rotational symmetry number  1.
 Warning -- assumption of classical behavior for rotation
           may cause significant error
 Rotational temperatures (Kelvin)      0.06568     0.02752     0.02458
 Rotational constants (GHZ):           1.36856     0.57346     0.51227
 Zero-point vibrational energy     845662.7 (Joules/Mol)
                                  202.11823 (Kcal/Mol)
 Warning -- explicit consideration of  21 degrees of freedom as
           vibrations may cause significant error
 Vibrational temperatures:     66.52    75.04   121.89   127.99   175.37
          (Kelvin)            217.36   294.18   313.20   321.47   327.35
                              345.15   383.74   411.93   418.49   434.05
                              470.17   535.36   558.03   672.57   704.12
                              775.80   913.25  1058.75  1159.38  1203.11
                             1234.62  1300.55  1344.38  1352.05  1376.10
                             1404.61  1414.35  1443.14  1517.01  1523.32
                             1550.49  1555.85  1613.04  1645.60  1659.82
                             1700.99  1724.11  1733.39  1742.76  1773.65
                             1874.04  1883.91  1902.82  1929.47  1971.36
                             1990.56  1996.26  2021.39  2046.00  2048.89
                             2061.49  2075.92  2081.23  2090.95  2134.61
                             2165.58  2179.93  2183.81  2184.99  2192.73
                             2200.75  2204.93  2211.02  2214.18  2217.21
                             2220.96  2225.98  2229.89  4197.81  4239.41
                             4299.36  4329.80  4366.25  4371.32  4376.12
                             4380.34  4383.09  4387.40  4415.91  4419.51
                             4425.18  4466.43  4471.94  4473.72  4475.31
                             4486.05  4486.78  4491.44  4506.99  4535.63
                             4998.93

 Zero-point correction=                           0.322096 (Hartree/Particle)
 Thermal correction to Energy=                    0.336753
 Thermal correction to Enthalpy=                  0.337697
 Thermal correction to Gibbs Free Energy=         0.281098
 Sum of electronic and zero-point Energies=           -449.396323
 Sum of electronic and thermal Energies=              -449.381667
 Sum of electronic and thermal Enthalpies=            -449.380723
 Sum of electronic and thermal Free Energies=         -449.437322

                     E (Thermal)             CV                S
                      KCal/Mol        Cal/Mol-Kelvin    Cal/Mol-Kelvin
 Total                  211.315             53.917            119.123
 Electronic               0.000              0.000              0.000
 Translational            0.889              2.981             41.066
 Rotational               0.889              2.981             31.059
 Vibrational            209.538             47.955             46.998
 Vibration     1          0.595              1.979              4.972
 Vibration     2          0.596              1.977              4.734
 Vibration     3          0.601              1.960              3.779
 Vibration     4          0.602              1.957              3.683
 Vibration     5          0.609              1.931              3.070
 Vibration     6          0.618              1.901              2.659
 Vibration     7          0.640              1.834              2.093
 Vibration     8          0.646              1.814              1.978
 Vibration     9          0.649              1.805              1.931
 Vibration    10          0.651              1.799              1.898
 Vibration    11          0.657              1.779              1.804
 Vibration    12          0.672              1.734              1.617
 Vibration    13          0.684              1.699              1.496
 Vibration    14          0.687              1.691              1.469
 Vibration    15          0.694              1.671              1.408
 Vibration    16          0.710              1.622              1.276
 Vibration    17          0.744              1.529              1.071
 Vibration    18          0.756              1.496              1.008
 Vibration    19          0.825              1.322              0.745
 Vibration    20          0.845              1.274              0.685
 Vibration    21          0.894              1.163              0.567

 Optimization completed.
    -- Stationary point found.
 Normal termination of Gaussian 16 at Tue Dec  8 21:17:05 2020.

 ----------------------------------------------------------------------
 # B3LYP/6-311++G(d,p) empiricaldispersion=gd3bj scf=xqc pop=npa geom=c
 heck
 ----------------------------------------------------------------------

 ---------------------------------------
 CID_123681641_JID_1739_Energie_neutraal
 ---------------------------------------
 Structure from the checkpoint file:  "JID_1739.chk"
 Charge =  0 Multiplicity = 1

 SCF Done:  E(RB3LYP) =  -449.849265013     A.U. after   13 cycles
 Normal termination of Gaussian 16 at Tue Dec  8 21:21:51 2020.

 ----------------------------------------------------------------------
 # B3LYP/6-311++G(d,p) empiricaldispersion=gd3bj scf=xqc pop=npa geom=c
 heck
 ----------------------------------------------------------------------

 -------------------------------------
 CID_123681641_JID_1739_Energie_kation
 -------------------------------------
 Structure from the checkpoint file:  "JID_1739.chk"
 Charge =  1 Multiplicity = 2

 SCF Done:  E(UB3LYP) =  -449.537192296     A.U. after   20 cycles
 Normal termination of Gaussian 16 at Tue Dec  8 21:30:03 2020.
 Gaussian 16:  ES64L-G16RevA.03 25-Dec-2016

 ----------------------------------------------------------------------
 # B3LYP/6-311++G(d,p) empiricaldispersion=gd3bj scf=xqc pop=npa geom=c
 heck
 ----------------------------------------------------------------------

 ------------------------------------
 CID_123681641_JID_1739_Energie_anion
 ------------------------------------
 Structure from the checkpoint file:  "JID_1739.chk"
 Charge = -1 Multiplicity = 2

                         Standard orientation:
 ---------------------------------------------------------------------
 Center     Atomic      Atomic             Coordinates (Angstroms)
 Number     Number       Type             X           Y           Z
 ---------------------------------------------------------------------
      1          6           0       -2.178509   -2.416737   -0.569850
      2          6           0       -1.173703   -1.631414    0.279032
      3          6           0       -0.774995   -0.263962   -0.312966
      4          6           0       -1.960772    0.738168   -0.369444
      5          6           0       -2.400025    1.287856    0.994264
      6          6           0       -1.682232    1.892148   -1.343594
      7          6           0        0.513187    0.315207    0.344950
      8          6           0        0.635886    0.078754    1.858303
      9          6           0        1.757049   -0.221946   -0.383149
     10          7           0        2.992368    0.357437    0.132236
     11          6           0        4.177494   -0.131856   -0.558572
     12          1           0       -3.149774   -1.914842   -0.633056
     13          1           0       -2.353338   -3.411748   -0.145416
     14          1           0       -1.808000   -2.551062   -1.593759
     15          1           0       -1.573633   -1.504029    1.292439
     16          1           0       -0.268121   -2.241154    0.390853
     17          1           0       -0.520847   -0.456577   -1.367407
     18          1           0       -2.813572    0.184146   -0.783508
     19          1           0       -1.635716    1.943446    1.426331
     20          1           0       -3.316051    1.880646    0.887808
     21          1           0       -2.604876    0.488923    1.714780
     22          1           0       -1.416116    1.516477   -2.338662
     23          1           0       -2.565680    2.532320   -1.450345
     24          1           0       -0.860229    2.529327   -0.996288
     25          1           0        0.506446    1.403433    0.182755
     26          1           0        0.731870   -0.988457    2.085403
     27          1           0        1.536953    0.567603    2.236394
     28          1           0       -0.228234    0.461931    2.406881
     29          1           0        1.820822   -1.311082   -0.245901
     30          1           0        1.637723   -0.054193   -1.472295
     31          1           0        2.941500    1.370638    0.032546
     32          1           0        4.147173   -0.008676   -1.658206
     33          1           0        5.064970    0.385219   -0.179208
     34          1           0        4.299874   -1.201656   -0.351642
 ---------------------------------------------------------------------

 SCF Done:  E(UB3LYP) =  -449.832719206     A.U. after   28 cycles

 The electronic state is 2-A.
 Alpha  occ. eigenvalues --  -14.19441 -10.08455 -10.08429 -10.06950 -10.06877
 Alpha  occ. eigenvalues --  -10.06720 -10.06377 -10.05963 -10.05575 -10.05322
 Alpha  occ. eigenvalues --  -10.04943  -0.80317  -0.72792  -0.67041  -0.65705
 Alpha  occ. eigenvalues --   -0.58887  -0.58314  -0.57476  -0.53404  -0.50582
 Alpha  occ. eigenvalues --   -0.48176  -0.42906  -0.38612  -0.37234  -0.36163
 Alpha  occ. eigenvalues --   -0.35392  -0.33597  -0.33244  -0.32283  -0.31390
 Alpha  occ. eigenvalues --   -0.29914  -0.29647  -0.28734  -0.27550  -0.26818
 Alpha  occ. eigenvalues --   -0.26516  -0.25941  -0.25061  -0.24243  -0.23862
 Alpha  occ. eigenvalues --   -0.23366  -0.21011  -0.20129  -0.19379  -0.12594
 Alpha  occ. eigenvalues --    0.04524
 Alpha virt. eigenvalues --    0.06360   0.06919   0.07667   0.08380   0.08724
 Alpha virt. eigenvalues --    0.09480   0.09779   0.10200   0.10808   0.11082
 Alpha virt. eigenvalues --    0.11628   0.12610   0.12850   0.13320   0.13520

  Beta  occ. eigenvalues --  -14.19421 -10.08421 -10.08413 -10.06939 -10.06867
  Beta  occ. eigenvalues --  -10.06715 -10.06367 -10.05937 -10.05550 -10.05294
  Beta  occ. eigenvalues --  -10.04935  -0.80287  -0.72770  -0.67012  -0.65677
  Beta  occ. eigenvalues --   -0.58845  -0.58263  -0.57434  -0.53329  -0.50524
  Beta  occ. eigenvalues --   -0.48129  -0.42865  -0.38569  -0.37198  -0.36124
  Beta  occ. eigenvalues --   -0.35360  -0.33551  -0.33211  -0.32247  -0.31362
  Beta  occ. eigenvalues --   -0.29881  -0.29619  -0.28709  -0.27521  -0.26778
  Beta  occ. eigenvalues --   -0.26480  -0.25905  -0.25032  -0.24208  -0.23826
  Beta  occ. eigenvalues --   -0.23340  -0.20984  -0.20102  -0.19356  -0.12553
  Beta virt. eigenvalues --    0.06575   0.07228   0.07555   0.08096   0.08971
  Beta virt. eigenvalues --    0.09225   0.09932   0.10152   0.10487   0.11221
  Beta virt. eigenvalues --    0.11522   0.12001   0.12914   0.13142   0.13495

 Mulliken charges and spin densities:
               1          2
     1  C    0.817732  -1.483606
     2  C   -1.118569   0.719485
     3  C    1.367682  -0.792978
     4  C   -1.458021   1.627855
     5  C    0.438502  -1.144412
     6  C    0.922282  -1.593612
     7  C   -0.800984   0.966406
     8  C   -0.307209  -0.219059
     9  C    0.219071  -1.184797
    10  N   -0.183928   0.166818
    11  C    0.869640  -1.187156
    12  H   -0.161972   0.298551
    13  H   -0.227561   0.363337
    14  H   -0.190582   0.327991
    15  H    0.076963   0.061095
    16  H    0.084362   0.051147
    17  H    0.209098  -0.067975
    18  H   -0.070308   0.239541
    19  H   -0.159708   0.317215
    20  H   -0.255051   0.404519
    21  H    0.004141   0.129303
    22  H   -0.246031   0.380605
    23  H   -0.203145   0.355347
    24  H   -0.336161   0.466759
    25  H    0.524036  -0.328834
    26  H   -0.009384   0.156549
    27  H    0.006015   0.151522
    28  H    0.080019   0.044542
    29  H    0.052170   0.101716
    30  H    0.004045   0.143603
    31  H   -0.163225   0.373995
    32  H   -0.294888   0.414803
    33  H   -0.270913   0.401324
    34  H   -0.218116   0.338400
 Sum of Mulliken charges =  -1.00000   1.00000

 Dipole moment (field-independent basis, Debye):
    X=             -0.7493    Y=             -1.3323    Z=              2.3887  Tot=              2.8359
 Quadrupole moment (field-independent basis, Debye-Ang):
   XX=           -151.6616   YY=           -119.6633   ZZ=           -113.2056
   XY=             -0.3911   XZ=              1.1969   YZ=              0.6156

 Summary of Natural Population Analysis:

                                       Natural Population
                Natural  -----------------------------------------------
    Atom  No    Charge         Core      Valence    Rydberg      Total
 -----------------------------------------------------------------------
      C    1   -0.28381      0.99966     2.27941    0.00474     3.28381
      C    2   -0.19157      0.99961     2.18288    0.00907     3.19157
      C    3   -0.10244      0.99956     2.09027    0.01261     3.10244
      C    4   -0.11209      0.99959     2.10168    0.01082     3.11209
      C    5   -0.28714      0.99964     2.28129    0.00620     3.28714
      C    6   -0.28225      0.99965     2.27649    0.00611     3.28225
      C    7   -0.11528      0.99958     2.10396    0.01174     3.11528
      C    8   -0.28808      0.99964     2.28317    0.00526     3.28808
      C    9   -0.08016      0.99960     2.06830    0.01226     3.08016
      N   10   -0.33661      0.99974     2.82579    0.01107     3.83661
      C   11   -0.17394      0.99967     2.16735    0.00692     3.17394
      H   12    0.09625      0.00000     0.40247    0.00128     0.40375
      H   13    0.09739      0.00000     0.40179    0.00082     0.40261
      H   14    0.09636      0.00000     0.40260    0.00104     0.40364
      H   15    0.09547      0.00000     0.40340    0.00113     0.40453
      H   16    0.09566      0.00000     0.40307    0.00128     0.40434
      H   17    0.09593      0.00000     0.40162    0.00245     0.40407
      H   18    0.09458      0.00000     0.40345    0.00197     0.40542
      H   19    0.09647      0.00000     0.40259    0.00094     0.40353
      H   20    0.09991      0.00000     0.39921    0.00088     0.40009
      H   21    0.09828      0.00000     0.40073    0.00100     0.40172
      H   22    0.09980      0.00000     0.39897    0.00122     0.40020
      H   23    0.09874      0.00000     0.40030    0.00096     0.40126
      H   24    0.09564      0.00000     0.40300    0.00136     0.40436
      H   25    0.09383      0.00000     0.40364    0.00254     0.40617
      H   26    0.09565      0.00000     0.40339    0.00095     0.40435
      H   27    0.10714      0.00000     0.39164    0.00122     0.39286
      H   28    0.09799      0.00000     0.40107    0.00094     0.40201
      H   29    0.08765      0.00000     0.41068    0.00167     0.41235
      H   30    0.08136      0.00000     0.41684    0.00180     0.41864
      H   31    0.16872      0.00000     0.32750    0.00378     0.33128
      H   32    0.07824      0.00000     0.41920    0.00256     0.42176
      H   33    0.09337      0.00000     0.40539    0.00124     0.40663
      H   34    0.08891      0.00000     0.40950    0.00159     0.41109
 =======================================================================
   * Total *    0.00000     10.99596    33.87263    0.13141    45.00000

 Normal termination of Gaussian 16 at Tue Dec  8 21:40:57 2020.
