 Gaussian 16, Revision A.03,

 -----------------------------------------------------------
 # opt freq B3LYP/6-31G(d) empiricaldispersion=gd3bj scf=xqc
 -----------------------------------------------------------

 ------------------------------
 CID_82893516_JID_7132_neutraal
 ------------------------------
 Symbolic Z-matrix:
 Charge =  0 Multiplicity = 1

 SCF Done:  E(RB3LYP) =  -732.735117908     A.U. after   14 cycles
 SCF Done:  E(RB3LYP) =  -732.739037888     A.U. after   12 cycles
 SCF Done:  E(RB3LYP) =  -732.739532837     A.U. after   12 cycles
 SCF Done:  E(RB3LYP) =  -732.739783468     A.U. after   11 cycles
 SCF Done:  E(RB3LYP) =  -732.739880420     A.U. after   11 cycles
 SCF Done:  E(RB3LYP) =  -732.740025091     A.U. after   11 cycles
 SCF Done:  E(RB3LYP) =  -732.740072890     A.U. after   11 cycles
 SCF Done:  E(RB3LYP) =  -732.740067852     A.U. after   10 cycles
 SCF Done:  E(RB3LYP) =  -732.740101113     A.U. after   10 cycles
 SCF Done:  E(RB3LYP) =  -732.740197561     A.U. after   12 cycles
 SCF Done:  E(RB3LYP) =  -732.740241482     A.U. after   10 cycles
 SCF Done:  E(RB3LYP) =  -732.740241062     A.U. after    9 cycles
 SCF Done:  E(RB3LYP) =  -732.740241522     A.U. after    9 cycles
 SCF Done:  E(RB3LYP) =  -732.740241536     A.U. after    6 cycles
 SCF Done:  E(RB3LYP) =  -732.740241547     A.U. after    6 cycles
 Optimization completed.
    -- Stationary point found.
 Normal termination of Gaussian 16 at Sun Dec 13 16:15:35 2020.

 --------------------------------------------------------------------
 #N Geom=AllCheck Guess=TCheck SCRF=Check GenChk RB3LYP/6-31G(d) Freq
 --------------------------------------------------------------------

 Structure from the checkpoint file:  "JID_7132.chk"
 ------------------------------
 CID_82893516_JID_7132_neutraal
 ------------------------------
 Charge =  0 Multiplicity = 1

 SCF Done:  E(RB3LYP) =  -732.740241547     A.U. after    1 cycles

  Exact polarizability: 202.927   4.948 170.851  16.013  -6.968 124.692
 Approx polarizability: 259.802   4.335 250.251  34.029 -19.264 190.880

 ******    1 imaginary frequencies (negative Signs) ******

                      1                      2                      3
                      A                      A                      A
 Frequencies --    -34.6219                14.5372                18.0894
 Red. masses --      1.0248                 3.7723                 3.9241
 Frc consts  --      0.0007                 0.0005                 0.0008
 IR Inten    --      0.2444                 0.1739                 0.1304

                      4                      5                      6
                      A                      A                      A
 Frequencies --     37.7212                67.2383                85.9647
 Red. masses --      3.3722                 2.7614                 3.3899
 Frc consts  --      0.0028                 0.0074                 0.0148
 IR Inten    --      0.3924                 0.4940                 3.7232

                      7                      8                      9
                      A                      A                      A
 Frequencies --    119.7996               120.9772               175.1720
 Red. masses --      2.5983                 3.4301                 2.7581
 Frc consts  --      0.0220                 0.0296                 0.0499
 IR Inten    --      0.2263                 0.2867                 0.3513

                     10                     11                     12
                      A                      A                      A
 Frequencies --    181.0769               197.7295               222.1445
 Red. masses --      2.2994                 3.2230                 2.6421
 Frc consts  --      0.0444                 0.0742                 0.0768
 IR Inten    --      0.0810                 1.0644                 0.4708

                     13                     14                     15
                      A                      A                      A
 Frequencies --    233.6509               241.4298               247.4085
 Red. masses --      2.1295                 1.5278                 1.1704
 Frc consts  --      0.0685                 0.0525                 0.0422
 IR Inten    --      3.7651                 0.3383                 0.6028

                     16                     17                     18
                      A                      A                      A
 Frequencies --    250.7353               266.3405               274.2381
 Red. masses --      1.6205                 1.3908                 1.6346
 Frc consts  --      0.0600                 0.0581                 0.0724
 IR Inten    --      0.2683                 0.4881                 0.3359

                     19                     20                     21
                      A                      A                      A
 Frequencies --    277.3650               319.4045               352.1025
 Red. masses --      1.9063                 2.3632                 2.7706
 Frc consts  --      0.0864                 0.1420                 0.2024
 IR Inten    --      4.1989                 0.1990                 0.3814

                     22                     23                     24
                      A                      A                      A
 Frequencies --    382.3647               412.2459               443.1978
 Red. masses --      2.9131                 2.2459                 2.3019
 Frc consts  --      0.2509                 0.2249                 0.2664
 IR Inten    --      2.7584                 0.2620                 3.7781

                     25                     26                     27
                      A                      A                      A
 Frequencies --    469.1491               487.1243               519.2886
 Red. masses --      1.8811                 4.5832                 3.2169
 Frc consts  --      0.2439                 0.6408                 0.5111
 IR Inten    --      2.9857                 0.0457                 1.6863

                     28                     29                     30
                      A                      A                      A
 Frequencies --    561.4252               579.1621               594.1212
 Red. masses --      4.8506                 3.7312                 3.5462
 Frc consts  --      0.9008                 0.7374                 0.7375
 IR Inten    --      1.7292                 7.8664                 1.7090

                     31                     32                     33
                      A                      A                      A
 Frequencies --    627.5319               678.5777               722.4349
 Red. masses --      4.1018                 3.2953                 1.7777
 Frc consts  --      0.9517                 0.8940                 0.5466
 IR Inten    --      7.6014                13.6740                60.4814

                     34                     35                     36
                      A                      A                      A
 Frequencies --    777.3618               820.8498               850.6637
 Red. masses --      2.7409                 2.4958                 1.4196
 Frc consts  --      0.9759                 0.9908                 0.6052
 IR Inten    --     18.3330                 2.1399                17.6707

                     37                     38                     39
                      A                      A                      A
 Frequencies --    860.5128               880.0598               898.3514
 Red. masses --      1.6701                 1.6304                 1.5130
 Frc consts  --      0.7286                 0.7440                 0.7194
 IR Inten    --      0.6792                16.5903                 4.6823

                     40                     41                     42
                      A                      A                      A
 Frequencies --    935.7889               942.1713               946.6246
 Red. masses --      2.5277                 1.7830                 1.3326
 Frc consts  --      1.3042                 0.9325                 0.7036
 IR Inten    --     18.6321                 6.0985                 6.2320

                     43                     44                     45
                      A                      A                      A
 Frequencies --    979.0674               985.3052               997.0075
 Red. masses --      1.5597                 2.0368                 1.6301
 Frc consts  --      0.8809                 1.1650                 0.9547
 IR Inten    --      0.1766                 1.2032                 5.5852

                     46                     47                     48
                      A                      A                      A
 Frequencies --   1012.2044              1013.6680              1039.6713
 Red. masses --      6.6765                 2.9419                 1.9857
 Frc consts  --      4.0303                 1.7810                 1.2646
 IR Inten    --      2.3799                 5.7025                12.6520

                     49                     50                     51
                      A                      A                      A
 Frequencies --   1059.5146              1068.1647              1071.4090
 Red. masses --      1.8758                 1.8834                 1.5651
 Frc consts  --      1.2406                 1.2661                 1.0585
 IR Inten    --      2.7062                 7.8140                 4.0053

                     52                     53                     54
                      A                      A                      A
 Frequencies --   1101.3701              1127.0160              1161.4208
 Red. masses --      2.3282                 2.8676                 2.2372
 Frc consts  --      1.6640                 2.1460                 1.7780
 IR Inten    --     68.6479                23.8684                14.6038

                     55                     56                     57
                      A                      A                      A
 Frequencies --   1179.0560              1185.8561              1196.5196
 Red. masses --      1.6090                 1.2717                 1.8580
 Frc consts  --      1.3179                 1.0536                 1.5673
 IR Inten    --     53.4867                 0.8391                66.5230

                     58                     59                     60
                      A                      A                      A
 Frequencies --   1204.0303              1210.3647              1231.7038
 Red. masses --      2.0724                 1.8171                 1.6475
 Frc consts  --      1.7701                 1.5685                 1.4726
 IR Inten    --     41.8345                 4.0526                33.7342

                     61                     62                     63
                      A                      A                      A
 Frequencies --   1241.4801              1261.7101              1304.8364
 Red. masses --      1.6483                 1.4083                 1.9223
 Frc consts  --      1.4968                 1.3209                 1.9283
 IR Inten    --     30.0416                 2.2382                 1.8457

                     64                     65                     66
                      A                      A                      A
 Frequencies --   1320.1019              1326.8584              1362.3289
 Red. masses --      1.2733                 2.7138                 1.3322
 Frc consts  --      1.3073                 2.8150                 1.4567
 IR Inten    --      1.5562                11.6105                 1.7528

                     67                     68                     69
                      A                      A                      A
 Frequencies --   1368.3478              1390.0582              1396.6645
 Red. masses --      1.4314                 2.0739                 1.4604
 Frc consts  --      1.5791                 2.3610                 1.6785
 IR Inten    --      9.7096                94.4401                49.7523

                     70                     71                     72
                      A                      A                      A
 Frequencies --   1411.9445              1422.5116              1426.6391
 Red. masses --      1.5324                 1.3629                 1.2682
 Frc consts  --      1.7999                 1.6249                 1.5208
 IR Inten    --      7.0114                10.5356                 2.1162

                     73                     74                     75
                      A                      A                      A
 Frequencies --   1431.7212              1434.3582              1445.9511
 Red. masses --      1.2589                 1.5122                 1.2413
 Frc consts  --      1.5204                 1.8331                 1.5291
 IR Inten    --      6.9492                37.2799                 4.5522

                     76                     77                     78
                      A                      A                      A
 Frequencies --   1462.7249              1492.9722              1499.2576
 Red. masses --      2.7323                 2.0712                 1.1848
 Frc consts  --      3.4443                 2.7200                 1.5691
 IR Inten    --      1.8834                52.4409                15.7741

                     79                     80                     81
                      A                      A                      A
 Frequencies --   1508.6520              1512.1964              1516.3977
 Red. masses --      1.2844                 1.0892                 1.0518
 Frc consts  --      1.7224                 1.4674                 1.4249
 IR Inten    --      0.3381                 2.7592                 5.9624

                     82                     83                     84
                      A                      A                      A
 Frequencies --   1520.1211              1521.1782              1521.8977
 Red. masses --      1.0852                 1.0478                 1.1346
 Frc consts  --      1.4774                 1.4285                 1.5483
 IR Inten    --      8.4047                 6.4782                14.2704

                     85                     86                     87
                      A                      A                      A
 Frequencies --   1524.9141              1525.5406              1527.7767
 Red. masses --      1.1908                 1.1807                 1.0622
 Frc consts  --      1.6315                 1.6190                 1.4607
 IR Inten    --     13.3489                 6.8098                 3.9980

                     88                     89                     90
                      A                      A                      A
 Frequencies --   1531.6624              1534.6928              1535.5015
 Red. masses --      1.0989                 1.0557                 1.0860
 Frc consts  --      1.5189                 1.4650                 1.5086
 IR Inten    --     16.3615                 0.5187                15.8733

                     91                     92                     93
                      A                      A                      A
 Frequencies --   1549.5913              1634.2911              1656.3564
 Red. masses --      1.0475                 8.0464                 5.4224
 Frc consts  --      1.4820                12.6622                 8.7649
 IR Inten    --      9.5479               104.1717               268.3827

                     94                     95                     96
                      A                      A                      A
 Frequencies --   2969.0124              3005.1481              3029.3007
 Red. masses --      1.0717                 1.0622                 1.0404
 Frc consts  --      5.5658                 5.6517                 5.6254
 IR Inten    --     72.9593                31.5837                23.0271

                     97                     98                     99
                      A                      A                      A
 Frequencies --   3033.0660              3033.8892              3034.8826
 Red. masses --      1.0583                 1.0343                 1.0486
 Frc consts  --      5.7361                 5.6093                 5.6904
 IR Inten    --     24.0952                50.9208                16.8688

                    100                    101                    102
                      A                      A                      A
 Frequencies --   3037.1166              3047.9151              3048.1064
 Red. masses --      1.0554                 1.0393                 1.0856
 Frc consts  --      5.7357                 5.6886                 5.9426
 IR Inten    --     33.6233                20.9885                16.5759

                    103                    104                    105
                      A                      A                      A
 Frequencies --   3060.0363              3090.6534              3091.0296
 Red. masses --      1.0891                 1.0987                 1.0904
 Frc consts  --      6.0087                 6.1834                 6.1383
 IR Inten    --     32.4156                15.3961                 6.6041

                    106                    107                    108
                      A                      A                      A
 Frequencies --   3095.6253              3097.2703              3099.2562
 Red. masses --      1.1069                 1.1007                 1.1006
 Frc consts  --      6.2498                 6.2210                 6.2287
 IR Inten    --     34.7285                41.5841                21.6930

                    109                    110                    111
                      A                      A                      A
 Frequencies --   3101.8365              3104.9990              3112.3366
 Red. masses --      1.1005                 1.1012                 1.1018
 Frc consts  --      6.2383                 6.2551                 6.2882
 IR Inten    --     74.8804                64.1488                43.3141

                    112                    113                    114
                      A                      A                      A
 Frequencies --   3132.7566              3161.1265              3164.8060
 Red. masses --      1.0995                 1.0994                 1.1006
 Frc consts  --      6.3576                 6.4726                 6.4951
 IR Inten    --     15.7617                 8.4067                24.3243

                    115                    116                    117
                      A                      A                      A
 Frequencies --   3214.5454              3225.9121              3486.8337
 Red. masses --      1.0915                 1.0902                 1.0736
 Frc consts  --      6.6454                 6.6846                 7.6906
 IR Inten    --      4.3645                 9.0364                 0.3724

 - Thermochemistry -
 -------------------
 Temperature   298.150 Kelvin.  Pressure   1.00000 Atm.
 Atom     1 has atomic number  6 and mass  12.00000

 Molecular mass:   236.18886 amu.
 Principal axes and moments of inertia in atomic units:
                           1         2         3
     Eigenvalues --  2483.333578558.463029779.65419
           X            0.99998   0.00608  -0.00049
           Y           -0.00608   0.99994   0.00940
           Z            0.00055  -0.00939   0.99996
 This molecule is an asymmetric top.
 Rotational symmetry number  1.
 Warning -- assumption of classical behavior for rotation
           may cause significant error
 Rotational temperatures (Kelvin)      0.03488     0.01012     0.00886
 Rotational constants (GHZ):           0.72674     0.21087     0.18454
    1 imaginary frequencies ignored.
 Zero-point vibrational energy     960088.0 (Joules/Mol)
                                  229.46654 (Kcal/Mol)
 Warning -- explicit consideration of  29 degrees of freedom as
           vibrations may cause significant error
 Vibrational temperatures:     20.92    26.03    54.27    96.74   123.68
          (Kelvin)            172.36   174.06   252.03   260.53   284.49
                              319.62   336.17   347.36   355.97   360.75
                              383.20   394.57   399.07   459.55   506.60
                              550.14   593.13   637.66   675.00   700.86
                              747.14   807.77   833.29   854.81   902.88
                              976.32  1039.42  1118.45  1181.02  1223.92
                             1238.09  1266.21  1292.53  1346.39  1355.57
                             1361.98  1408.66  1417.63  1434.47  1456.34
                             1458.44  1495.86  1524.41  1536.85  1541.52
                             1584.63  1621.52  1671.03  1696.40  1706.18
                             1721.52  1732.33  1741.44  1772.15  1786.21
                             1815.32  1877.37  1899.33  1909.05  1960.09
                             1968.75  1999.98  2009.49  2031.47  2046.68
                             2052.62  2059.93  2063.72  2080.40  2104.53
                             2148.05  2157.10  2170.61  2175.71  2181.76
                             2187.12  2188.64  2189.67  2194.01  2194.91
                             2198.13  2203.72  2208.08  2209.24  2229.52
                             2351.38  2383.13  4271.75  4323.74  4358.49
                             4363.91  4365.09  4366.52  4369.73  4385.27
                             4385.55  4402.71  4446.76  4447.30  4453.91
                             4456.28  4459.14  4462.85  4467.40  4477.96
                             4507.34  4548.16  4553.45  4625.01  4641.37
                             5016.78

 Zero-point correction=                           0.365678 (Hartree/Particle)
 Thermal correction to Energy=                    0.384220
 Thermal correction to Enthalpy=                  0.385164
 Thermal correction to Gibbs Free Energy=         0.317163
 Sum of electronic and zero-point Energies=           -732.374563
 Sum of electronic and thermal Energies=              -732.356022
 Sum of electronic and thermal Enthalpies=            -732.355078
 Sum of electronic and thermal Free Energies=         -732.423078

                     E (Thermal)             CV                S
                      KCal/Mol        Cal/Mol-Kelvin    Cal/Mol-Kelvin
 Total                  241.102             69.550            143.119
 Electronic               0.000              0.000              0.000
 Translational            0.889              2.981             42.280
 Rotational               0.889              2.981             33.696
 Vibrational            239.324             63.588             67.143
 Vibration     1          0.593              1.986              7.268
 Vibration     2          0.593              1.986              6.834
 Vibration     3          0.594              1.982              5.375
 Vibration     4          0.598              1.970              4.233
 Vibration     5          0.601              1.959              3.750
 Vibration     6          0.609              1.933              3.104
 Vibration     7          0.609              1.932              3.085
 Vibration     8          0.627              1.873              2.379
 Vibration     9          0.630              1.865              2.317
 Vibration    10          0.637              1.843              2.154
 Vibration    11          0.648              1.807              1.942
 Vibration    12          0.654              1.789              1.851
 Vibration    13          0.658              1.777              1.792
 Vibration    14          0.661              1.767              1.749
 Vibration    15          0.663              1.762              1.725
 Vibration    16          0.672              1.735              1.620
 Vibration    17          0.677              1.721              1.569
 Vibration    18          0.678              1.715              1.550
 Vibration    19          0.705              1.636              1.313
 Vibration    20          0.729              1.571              1.157
 Vibration    21          0.752              1.508              1.030
 Vibration    22          0.776              1.444              0.919
 Vibration    23          0.803              1.376              0.817
 Vibration    24          0.826              1.318              0.740
 Vibration    25          0.843              1.279              0.691
 Vibration    26          0.874              1.207              0.612
 Vibration    27          0.917              1.115              0.521
 Vibration    28          0.936              1.076              0.487
 Vibration    29          0.952              1.044              0.460

                           ! Non-Optimized Parameters !
 Normal termination of Gaussian 16 at Sun Dec 13 16:31:53 2020.

 ----------------------------------------------------------------------
 # B3LYP/6-311++G(d,p) empiricaldispersion=gd3bj scf=xqc pop=npa geom=c
 heck
 ----------------------------------------------------------------------

 --------------------------------------
 CID_82893516_JID_7132_Energie_neutraal
 --------------------------------------
 Structure from the checkpoint file:  "JID_7132.chk"
 Charge =  0 Multiplicity = 1

 SCF Done:  E(RB3LYP) =  -732.943028811     A.U. after   14 cycles
 Normal termination of Gaussian 16 at Sun Dec 13 16:39:43 2020.

 ----------------------------------------------------------------------
 # B3LYP/6-311++G(d,p) empiricaldispersion=gd3bj scf=xqc pop=npa geom=c
 heck
 ----------------------------------------------------------------------

 ------------------------------------
 CID_82893516_JID_7132_Energie_kation
 ------------------------------------
 Structure from the checkpoint file:  "JID_7132.chk"
 Charge =  1 Multiplicity = 2

 SCF Done:  E(UB3LYP) =  -732.657102045     A.U. after   23 cycles
 Normal termination of Gaussian 16 at Sun Dec 13 16:57:51 2020.
 Gaussian 16:  ES64L-G16RevA.03 25-Dec-2016

 ----------------------------------------------------------------------
 # B3LYP/6-311++G(d,p) empiricaldispersion=gd3bj scf=xqc pop=npa geom=c
 heck
 ----------------------------------------------------------------------

 -----------------------------------
 CID_82893516_JID_7132_Energie_anion
 -----------------------------------
 Structure from the checkpoint file:  "JID_7132.chk"
 Charge = -1 Multiplicity = 2

                         Standard orientation:
 ---------------------------------------------------------------------
 Center     Atomic      Atomic             Coordinates (Angstroms)
 Number     Number       Type             X           Y           Z
 ---------------------------------------------------------------------
      1          6           0        2.009398    2.855554   -1.082702
      2          6           0        2.040290    1.399494   -0.688419
      3          6           0        3.171681    0.868174   -0.045925
      4          6           0        3.166627   -0.481784    0.298507
      5          6           0        2.031625   -1.248134   -0.006930
      6          6           0        0.960592   -0.630702   -0.635439
      7          7           0        0.959148    0.673350   -0.979118
      8          6           0       -0.312066   -1.389318   -0.940639
      9          7           0       -1.355390   -0.994118   -0.000689
     10          6           0       -2.734893   -1.197218   -0.441332
     11          6           0       -3.139580   -2.672095   -0.594434
     12          6           0       -3.688796   -0.454590    0.505332
     13          6           0       -3.310371    1.006353    0.807304
     14          6           0       -3.049965    1.818910   -0.466689
     15          6           0       -4.395255    1.658978    1.672547
     16          8           0        4.183943   -1.134042    0.916541
     17          6           0        5.349181   -0.389581    1.243028
     18          1           0        1.072178    3.072138   -1.598732
     19          1           0        2.082807    3.504651   -0.201354
     20          1           0        2.847296    3.108667   -1.743608
     21          1           0        4.019463    1.509651    0.163037
     22          1           0        2.012207   -2.301447    0.252426
     23          1           0       -0.647125   -1.097483   -1.941637
     24          1           0       -0.107253   -2.473780   -0.964136
     25          1           0       -1.200439   -1.430852    0.906451
     26          1           0       -2.801287   -0.722200   -1.428877
     27          1           0       -3.073425   -3.191501    0.370707
     28          1           0       -4.170924   -2.767132   -0.954980
     29          1           0       -2.487101   -3.193414   -1.303778
     30          1           0       -4.697563   -0.488476    0.068204
     31          1           0       -3.754038   -1.008497    1.455035
     32          1           0       -2.372810    0.991652    1.376327
     33          1           0       -3.900523    1.757160   -1.159606
     34          1           0       -2.899489    2.877729   -0.223845
     35          1           0       -2.149304    1.464599   -0.976715
     36          1           0       -4.578985    1.084150    2.588844
     37          1           0       -4.109424    2.676141    1.965326
     38          1           0       -5.345784    1.725496    1.126675
     39          1           0        5.825987    0.020626    0.343971
     40          1           0        5.118718    0.429561    1.935708
     41          1           0        6.028163   -1.093988    1.725617
 ---------------------------------------------------------------------

 SCF Done:  E(UB3LYP) =  -732.930919000     A.U. after   33 cycles
 SCF Done:  E(UB3LYP) =  -732.930919000     a.u. after    1 cycles

 The electronic state is 2-A.
 Alpha  occ. eigenvalues --  -19.06967 -14.20487 -14.20320 -10.15470 -10.12764
 Alpha  occ. eigenvalues --  -10.12246 -10.11579 -10.11079 -10.10521 -10.08060
 Alpha  occ. eigenvalues --  -10.07996 -10.07950 -10.07585 -10.07366 -10.07359
 Alpha  occ. eigenvalues --  -10.07326 -10.06239  -0.98605  -0.85091  -0.81849
 Alpha  occ. eigenvalues --   -0.72212  -0.70930  -0.69772  -0.66454  -0.62354
 Alpha  occ. eigenvalues --   -0.61662  -0.59734  -0.59328  -0.57915  -0.51142
 Alpha  occ. eigenvalues --   -0.50535  -0.49931  -0.46889  -0.43655  -0.42694
 Alpha  occ. eigenvalues --   -0.39754  -0.38361  -0.38110  -0.37486  -0.36762
 Alpha  occ. eigenvalues --   -0.35648  -0.34777  -0.34019  -0.33687  -0.33070
 Alpha  occ. eigenvalues --   -0.32220  -0.31655  -0.31201  -0.29952  -0.29806
 Alpha  occ. eigenvalues --   -0.29574  -0.28620  -0.28189  -0.28082  -0.26329
 Alpha  occ. eigenvalues --   -0.26118  -0.24614  -0.24371  -0.23388  -0.23216
 Alpha  occ. eigenvalues --   -0.22796  -0.16516  -0.16152  -0.15626  -0.13364
 Alpha  occ. eigenvalues --    0.03955
 Alpha virt. eigenvalues --    0.05249   0.06312   0.06916   0.07153   0.07192
 Alpha virt. eigenvalues --    0.07655   0.07925   0.08678   0.08902   0.09216
 Alpha virt. eigenvalues --    0.09431   0.09635   0.10076   0.11163   0.11315

  Beta  occ. eigenvalues --  -19.06956 -14.20478 -14.20314 -10.15470 -10.12701
  Beta  occ. eigenvalues --  -10.12247 -10.11572 -10.11074 -10.10513 -10.08057
  Beta  occ. eigenvalues --  -10.07988 -10.07925 -10.07574 -10.07349 -10.07347
  Beta  occ. eigenvalues --  -10.07302 -10.06233  -0.98583  -0.85079  -0.81833
  Beta  occ. eigenvalues --   -0.72198  -0.70907  -0.69752  -0.66432  -0.62281
  Beta  occ. eigenvalues --   -0.61631  -0.59705  -0.59305  -0.57879  -0.51112
  Beta  occ. eigenvalues --   -0.50505  -0.49882  -0.46864  -0.43616  -0.42667
  Beta  occ. eigenvalues --   -0.39729  -0.38325  -0.38072  -0.37464  -0.36737
  Beta  occ. eigenvalues --   -0.35624  -0.34755  -0.33978  -0.33658  -0.33043
  Beta  occ. eigenvalues --   -0.32194  -0.31631  -0.31178  -0.29939  -0.29783
  Beta  occ. eigenvalues --   -0.29552  -0.28596  -0.28169  -0.28053  -0.26308
  Beta  occ. eigenvalues --   -0.26094  -0.24585  -0.24333  -0.23371  -0.23199
  Beta  occ. eigenvalues --   -0.22781  -0.16503  -0.16112  -0.15596  -0.13350
  Beta virt. eigenvalues --    0.05561   0.06510   0.06550   0.07085   0.07328
  Beta virt. eigenvalues --    0.07673   0.07715   0.08236   0.08849   0.09079
  Beta virt. eigenvalues --    0.09429   0.09768   0.10000   0.10458   0.11263

 Mulliken charges and spin densities:
               1          2
     1  C    0.347334  -0.831629
     2  C    0.461309  -1.227581
     3  C    0.625210   0.530784
     4  C   -0.485855   0.076387
     5  C   -1.365201   0.925461
     6  C   -0.361411   0.124530
     7  N    0.110713   0.084983
     8  C    0.576265  -1.097848
     9  N    0.177944  -0.005155
    10  C   -0.724794   0.732357
    11  C    0.441617  -1.022700
    12  C    0.117941  -0.880754
    13  C   -0.059872   0.815813
    14  C   -0.384326  -0.352362
    15  C   -0.289131  -0.353936
    16  O   -0.223936   0.081358
    17  C    1.203671  -1.506823
    18  H    0.172941  -0.018854
    19  H   -0.107800   0.268206
    20  H   -0.080109   0.226006
    21  H   -0.253538   0.493922
    22  H   -0.149924   0.358134
    23  H    0.076347   0.100161
    24  H    0.029182   0.127482
    25  H    0.195762   0.004145
    26  H    0.166750  -0.039726
    27  H   -0.135508   0.282900
    28  H   -0.143328   0.275893
    29  H   -0.003716   0.157871
    30  H    0.070886   0.071606
    31  H    0.050286   0.086025
    32  H    0.089374   0.062912
    33  H    0.031458   0.092926
    34  H    0.050547   0.084690
    35  H    0.216967  -0.065051
    36  H   -0.030168   0.157814
    37  H    0.037645   0.097779
    38  H    0.059451   0.066569
    39  H   -0.425028   0.588065
    40  H   -0.411456   0.574575
    41  H   -0.674500   0.853065
 Sum of Mulliken charges =  -1.00000   1.00000

 Dipole moment (field-independent basis, Debye):
    X=             -7.6625    Y=             -0.0189    Z=             -2.4370  Tot=              8.0407
 Quadrupole moment (field-independent basis, Debye-Ang):
   XX=           -234.5871   YY=           -152.8255   ZZ=           -140.7947
   XY=             -6.6764   XZ=            -11.8323   YZ=             -0.7370

 Summary of Natural Population Analysis:

                                       Natural Population
                Natural  -----------------------------------------------
    Atom  No    Charge         Core      Valence    Rydberg      Total
 -----------------------------------------------------------------------
      C    1   -0.30021      0.99963     2.29462    0.00596     3.30021
      C    2    0.12092      0.99957     1.86619    0.01333     2.87908
      C    3   -0.16730      0.99946     2.15972    0.00812     3.16730
      C    4    0.18429      0.99939     1.80277    0.01356     2.81571
      C    5   -0.14467      0.99946     2.13636    0.00886     3.14467
      C    6    0.11372      0.99953     1.87349    0.01326     2.88628
      N    7   -0.25488      0.99965     2.74455    0.01068     3.75488
      C    8   -0.09828      0.99958     2.08734    0.01135     3.09828
      N    9   -0.33757      0.99973     2.82729    0.01056     3.83757
      C   10   -0.00939      0.99961     1.99850    0.01128     3.00939
      C   11   -0.29320      0.99965     2.28811    0.00544     3.29320
      C   12   -0.18716      0.99959     2.17747    0.01009     3.18716
      C   13   -0.11651      0.99961     2.10858    0.00831     3.11651
      C   14   -0.28849      0.99965     2.28388    0.00496     3.28849
      C   15   -0.28125      0.99965     2.27709    0.00451     3.28125
      O   16   -0.26838      0.99986     3.25802    0.01050     4.26838
      C   17   -0.10119      0.99960     2.09256    0.00902     3.10119
      H   18    0.10900      0.00000     0.38992    0.00107     0.39100
      H   19    0.10599      0.00000     0.39305    0.00097     0.39401
      H   20    0.10354      0.00000     0.39557    0.00090     0.39646
      H   21    0.11142      0.00000     0.38668    0.00190     0.38858
      H   22    0.10856      0.00000     0.39007    0.00137     0.39144
      H   23    0.10025      0.00000     0.39829    0.00146     0.39975
      H   24    0.08359      0.00000     0.41512    0.00128     0.41641
      H   25    0.17112      0.00000     0.32665    0.00223     0.32888
      H   26    0.08982      0.00000     0.40826    0.00192     0.41018
      H   27    0.09645      0.00000     0.40245    0.00110     0.40355
      H   28    0.09905      0.00000     0.40010    0.00085     0.40095
      H   29    0.09978      0.00000     0.39944    0.00078     0.40022
      H   30    0.09586      0.00000     0.40321    0.00093     0.40414
      H   31    0.09495      0.00000     0.40401    0.00104     0.40505
      H   32    0.10100      0.00000     0.39713    0.00187     0.39900
      H   33    0.09005      0.00000     0.40913    0.00082     0.40995
      H   34    0.09667      0.00000     0.40251    0.00082     0.40333
      H   35    0.11261      0.00000     0.38621    0.00118     0.38739
      H   36    0.09691      0.00000     0.40220    0.00090     0.40309
      H   37    0.09732      0.00000     0.40185    0.00083     0.40268
      H   38    0.09286      0.00000     0.40618    0.00097     0.40714
      H   39    0.08790      0.00000     0.40952    0.00258     0.41210
      H   40    0.08842      0.00000     0.40912    0.00245     0.41158
      H   41    0.09643      0.00000     0.40174    0.00183     0.40357
 =======================================================================
   * Total *   -0.00000     16.99322    47.81493    0.19185    65.00000

 Normal termination of Gaussian 16 at Sun Dec 13 17:23:47 2020.
