 Gaussian 16, Revision A.03,

 -----------------------------------------------------------
 # opt freq B3LYP/6-31G(d) empiricaldispersion=gd3bj scf=xqc
 -----------------------------------------------------------

 -------------------------------
 CID_102779678_JID_8706_neutraal
 -------------------------------
 Symbolic Z-matrix:
 Charge =  0 Multiplicity = 1

 SCF Done:  E(RB3LYP) =  -838.854716888     A.U. after   15 cycles
 SCF Done:  E(RB3LYP) =  -838.864879772     A.U. after   12 cycles
 SCF Done:  E(RB3LYP) =  -838.865538373     A.U. after   12 cycles
 SCF Done:  E(RB3LYP) =  -838.865399279     A.U. after   12 cycles
 SCF Done:  E(RB3LYP) =  -838.866040267     A.U. after   11 cycles
 SCF Done:  E(RB3LYP) =  -838.866399413     A.U. after   11 cycles
 SCF Done:  E(RB3LYP) =  -838.866549652     A.U. after   12 cycles
 SCF Done:  E(RB3LYP) =  -838.866868496     A.U. after   11 cycles
 SCF Done:  E(RB3LYP) =  -838.867344147     A.U. after   11 cycles
 SCF Done:  E(RB3LYP) =  -838.867590618     A.U. after   11 cycles
 SCF Done:  E(RB3LYP) =  -838.867893979     A.U. after   10 cycles
 SCF Done:  E(RB3LYP) =  -838.867896833     A.U. after   10 cycles
 SCF Done:  E(RB3LYP) =  -838.867897859     A.U. after    7 cycles
 SCF Done:  E(RB3LYP) =  -838.867899264     A.U. after    9 cycles
 SCF Done:  E(RB3LYP) =  -838.867899276     A.U. after    7 cycles
 Optimization completed.
    -- Stationary point found.
 Normal termination of Gaussian 16 at Fri Dec 11 22:16:10 2020.

 --------------------------------------------------------------------
 #N Geom=AllCheck Guess=TCheck SCRF=Check GenChk RB3LYP/6-31G(d) Freq
 --------------------------------------------------------------------

 Structure from the checkpoint file:  "JID_8706.chk"
 -------------------------------
 CID_102779678_JID_8706_neutraal
 -------------------------------
 Charge =  0 Multiplicity = 1

 SCF Done:  E(RB3LYP) =  -838.867899276     A.U. after    1 cycles

  Exact polarizability: 176.697  -0.170 143.827  -5.749   1.492 125.153
 Approx polarizability: 217.072  -1.554 219.698 -15.729   6.464 193.660

                      1                      2                      3
                      A                      A                      A
 Frequencies --     23.0576                53.3121                55.2454
 Red. masses --      4.8923                 4.3497                 4.9304
 Frc consts  --      0.0015                 0.0073                 0.0089
 IR Inten    --      2.2971                 0.9283                 2.4397

                      4                      5                      6
                      A                      A                      A
 Frequencies --    107.2531               117.3652               126.8836
 Red. masses --      3.5887                 4.0400                 2.0267
 Frc consts  --      0.0243                 0.0328                 0.0192
 IR Inten    --      0.6714                 1.6725                 0.5656

                      7                      8                      9
                      A                      A                      A
 Frequencies --    157.8119               179.9862               190.8077
 Red. masses --      3.4693                 3.8204                 2.7841
 Frc consts  --      0.0509                 0.0729                 0.0597
 IR Inten    --      2.4788                 2.7116                 1.9793

                     10                     11                     12
                      A                      A                      A
 Frequencies --    223.2176               227.8159               242.5907
 Red. masses --      2.7545                 2.7905                 1.3561
 Frc consts  --      0.0809                 0.0853                 0.0470
 IR Inten    --     11.6020                 3.4081                 1.8428

                     13                     14                     15
                      A                      A                      A
 Frequencies --    255.8136               293.1405               315.0273
 Red. masses --      3.2970                 2.6664                 2.6183
 Frc consts  --      0.1271                 0.1350                 0.1531
 IR Inten    --      8.2222                 1.7015                 5.4448

                     16                     17                     18
                      A                      A                      A
 Frequencies --    344.7872               366.6112               417.4458
 Red. masses --      4.1356                 3.5454                 3.8713
 Frc consts  --      0.2897                 0.2808                 0.3975
 IR Inten    --      4.4403                15.9715                 4.1772

                     19                     20                     21
                      A                      A                      A
 Frequencies --    457.9672               480.6812               509.7743
 Red. masses --      3.1428                 3.5972                 2.8113
 Frc consts  --      0.3884                 0.4897                 0.4304
 IR Inten    --      1.0387                14.7671                27.3632

                     22                     23                     24
                      A                      A                      A
 Frequencies --    538.6215               566.1422               582.9172
 Red. masses --      1.6837                 3.5217                 3.0891
 Frc consts  --      0.2878                 0.6650                 0.6184
 IR Inten    --     55.4842                21.2828                 8.0284

                     25                     26                     27
                      A                      A                      A
 Frequencies --    657.9061               671.9272               698.6157
 Red. masses --      3.9456                 3.6946                 2.7841
 Frc consts  --      1.0062                 0.9828                 0.8006
 IR Inten    --      7.2986                 4.2699                17.0648

                     28                     29                     30
                      A                      A                      A
 Frequencies --    743.2129               756.7646               767.4841
 Red. masses --      5.2703                 5.3162                 5.6823
 Frc consts  --      1.7152                 1.7938                 1.9720
 IR Inten    --      8.6189                21.4167                21.0694

                     31                     32                     33
                      A                      A                      A
 Frequencies --    793.8133               811.8708               826.1068
 Red. masses --      1.9664                 3.1638                 1.6316
 Frc consts  --      0.7301                 1.2287                 0.6560
 IR Inten    --     14.2218                10.7559                32.8691

                     34                     35                     36
                      A                      A                      A
 Frequencies --    867.5133               896.8175               912.6598
 Red. masses --      2.9079                 2.6984                 2.5785
 Frc consts  --      1.2894                 1.2787                 1.2654
 IR Inten    --     44.8238                21.3617                 6.8834

                     37                     38                     39
                      A                      A                      A
 Frequencies --    922.6486               940.3070               949.1306
 Red. masses --      2.7907                 2.0044                 1.7263
 Frc consts  --      1.3997                 1.0442                 0.9162
 IR Inten    --      6.9333                 3.0969                12.9640

                     40                     41                     42
                      A                      A                      A
 Frequencies --    964.9701               996.8878              1017.6038
 Red. masses --      1.9772                 2.0264                 1.7792
 Frc consts  --      1.0848                 1.1865                 1.0855
 IR Inten    --      1.4265                19.3115                 4.5131

                     43                     44                     45
                      A                      A                      A
 Frequencies --   1021.8377              1041.7554              1052.8779
 Red. masses --      1.9933                 2.0809                 2.0579
 Frc consts  --      1.2262                 1.3305                 1.3441
 IR Inten    --      3.6905                 4.3999                 4.0983

                     46                     47                     48
                      A                      A                      A
 Frequencies --   1079.4490              1089.1517              1093.0094
 Red. masses --      3.2578                 1.7905                 1.9144
 Frc consts  --      2.2365                 1.2514                 1.3475
 IR Inten    --     19.2436                 7.5126                20.2753

                     49                     50                     51
                      A                      A                      A
 Frequencies --   1115.6741              1141.8730              1150.0255
 Red. masses --      2.2442                 2.0908                 2.5322
 Frc consts  --      1.6458                 1.6062                 1.9732
 IR Inten    --     39.4842                 5.7539                12.4610

                     52                     53                     54
                      A                      A                      A
 Frequencies --   1156.7718              1187.1417              1208.0856
 Red. masses --      2.4072                 2.1246                 2.1938
 Frc consts  --      1.8978                 1.7641                 1.8865
 IR Inten    --      3.6090                 8.6237                29.5036

                     55                     56                     57
                      A                      A                      A
 Frequencies --   1226.4268              1236.9324              1253.1169
 Red. masses --      1.4776                 1.2832                 1.3135
 Frc consts  --      1.3095                 1.1568                 1.2153
 IR Inten    --      7.4610                14.9470                34.6703

                     58                     59                     60
                      A                      A                      A
 Frequencies --   1255.4231              1271.0612              1278.9539
 Red. masses --      1.3177                 1.4776                 1.9504
 Frc consts  --      1.2236                 1.4065                 1.8797
 IR Inten    --     10.0927               126.5065                22.5911

                     61                     62                     63
                      A                      A                      A
 Frequencies --   1296.4787              1305.8772              1316.0570
 Red. masses --      1.6036                 1.8436                 1.2929
 Frc consts  --      1.5881                 1.8523                 1.3193
 IR Inten    --     43.3802                79.0985                 3.3313

                     64                     65                     66
                      A                      A                      A
 Frequencies --   1325.5940              1330.0112              1342.2347
 Red. masses --      1.3460                 1.6471                 1.3857
 Frc consts  --      1.3935                 1.7166                 1.4709
 IR Inten    --     11.0873                42.4883                12.7880

                     67                     68                     69
                      A                      A                      A
 Frequencies --   1360.3169              1368.1779              1386.9006
 Red. masses --      1.3884                 1.3494                 1.3660
 Frc consts  --      1.5138                 1.4882                 1.5481
 IR Inten    --      4.1803                 5.8275                30.6342

                     70                     71                     72
                      A                      A                      A
 Frequencies --   1399.8547              1401.7198              1412.9342
 Red. masses --      1.4754                 1.4607                 1.4672
 Frc consts  --      1.7035                 1.6910                 1.7258
 IR Inten    --     88.9303                 2.4198                11.4750

                     73                     74                     75
                      A                      A                      A
 Frequencies --   1417.8599              1433.2192              1438.3744
 Red. masses --      1.4589                 1.2786                 1.9361
 Frc consts  --      1.7280                 1.5474                 2.3601
 IR Inten    --     34.9175                22.3051                91.0444

                     76                     77                     78
                      A                      A                      A
 Frequencies --   1443.5013              1459.3783              1499.5421
 Red. masses --      1.6926                 1.9928                 1.5964
 Frc consts  --      2.0779                 2.5007                 2.1150
 IR Inten    --     22.1849                85.4343                63.0861

                     79                     80                     81
                      A                      A                      A
 Frequencies --   1518.2993              1526.1434              1539.3416
 Red. masses --      1.0817                 1.0476                 1.0870
 Frc consts  --      1.4692                 1.4376                 1.5176
 IR Inten    --      3.2083                 8.3673                 9.6974

                     82                     83                     84
                      A                      A                      A
 Frequencies --   1541.3237              1543.8472              1547.1069
 Red. masses --      1.0927                 1.0538                 1.0861
 Frc consts  --      1.5294                 1.4798                 1.5317
 IR Inten    --      2.4858                 6.4813                 1.9693

                     85                     86                     87
                      A                      A                      A
 Frequencies --   1551.9491              1554.5738              1744.2835
 Red. masses --      1.0890                 1.1041                 9.8292
 Frc consts  --      1.5454                 1.5721                17.6199
 IR Inten    --      7.9710                12.7867               276.3007

                     88                     89                     90
                      A                      A                      A
 Frequencies --   1843.0343              3000.4591              3023.6356
 Red. masses --     10.6168                 1.0838                 1.0704
 Frc consts  --     21.2476                 5.7486                 5.7659
 IR Inten    --    472.8071                33.5445                49.4005

                     91                     92                     93
                      A                      A                      A
 Frequencies --   3027.2105              3028.5282              3047.3306
 Red. masses --      1.0703                 1.0678                 1.0410
 Frc consts  --      5.7786                 5.7701                 5.6957
 IR Inten    --     24.1944                30.9785                37.8658

                     94                     95                     96
                      A                      A                      A
 Frequencies --   3057.6500              3073.0530              3079.6483
 Red. masses --      1.0603                 1.0634                 1.0849
 Frc consts  --      5.8405                 5.9168                 6.0626
 IR Inten    --     44.3856                33.0264                 6.9803

                     97                     98                     99
                      A                      A                      A
 Frequencies --   3081.6054              3088.9490              3092.7493
 Red. masses --      1.0641                 1.0846                 1.0986
 Frc consts  --      5.9534                 6.0976                 6.1911
 IR Inten    --     79.4046                16.1277                27.2353

                    100                    101                    102
                      A                      A                      A
 Frequencies --   3097.8710              3100.3831              3101.2311
 Red. masses --      1.1042                 1.1008                 1.1008
 Frc consts  --      6.2434                 6.2342                 6.2376
 IR Inten    --     16.7772                39.0459                37.1879

                    103                    104                    105
                      A                      A                      A
 Frequencies --   3116.5203              3137.6117              3164.4150
 Red. masses --      1.1054                 1.1042                 1.0978
 Frc consts  --      6.3260                 6.4049                 6.4767
 IR Inten    --     10.6052                33.2067                 9.6941

                    106                    107                    108
                      A                      A                      A
 Frequencies --   3165.3313              3468.8072              3629.8447
 Red. masses --      1.0901                 1.0746                 1.0776
 Frc consts  --      6.4350                 7.6184                 8.3651
 IR Inten    --      4.2749                 1.1083                31.2596

 - Thermochemistry -
 -------------------
 Temperature   298.150 Kelvin.  Pressure   1.00000 Atm.
 Atom     1 has atomic number  6 and mass  12.00000

 Molecular mass:   252.15863 amu.
 Principal axes and moments of inertia in atomic units:
                           1         2         3
     Eigenvalues --  1927.344038048.521988532.38025
           X            0.99993  -0.00591   0.01060
           Y            0.00599   0.99995  -0.00804
           Z           -0.01055   0.00810   0.99991
 This molecule is an asymmetric top.
 Rotational symmetry number  1.
 Warning -- assumption of classical behavior for rotation
           may cause significant error
 Rotational temperatures (Kelvin)      0.04494     0.01076     0.01015
 Rotational constants (GHZ):           0.93639     0.22423     0.21152
 Zero-point vibrational energy     875193.1 (Joules/Mol)
                                  209.17616 (Kcal/Mol)
 Warning -- explicit consideration of  24 degrees of freedom as
           vibrations may cause significant error
 Vibrational temperatures:     33.17    76.70    79.49   154.31   168.86
          (Kelvin)            182.56   227.06   258.96   274.53   321.16
                              327.78   349.03   368.06   421.76   453.25
                              496.07   527.47   600.61   658.91   691.59
                              733.45   774.96   814.55   838.69   946.58
                              966.75  1005.15  1069.32  1088.82  1104.24
                             1142.12  1168.10  1188.58  1248.16  1290.32
                             1313.11  1327.49  1352.89  1365.59  1388.38
                             1434.30  1464.10  1470.20  1498.85  1514.86
                             1553.09  1567.05  1572.60  1605.21  1642.90
                             1654.63  1664.34  1708.03  1738.17  1764.55
                             1779.67  1802.96  1806.27  1828.77  1840.13
                             1865.34  1878.87  1893.51  1907.23  1913.59
                             1931.18  1957.19  1968.50  1995.44  2014.08
                             2016.76  2032.90  2039.98  2062.08  2069.50
                             2076.88  2099.72  2157.51  2184.49  2195.78
                             2214.77  2217.62  2221.25  2225.94  2232.91
                             2236.68  2509.63  2651.72  4316.99  4350.34
                             4355.48  4357.38  4384.43  4399.28  4421.44
                             4430.93  4433.74  4444.31  4449.78  4457.15
                             4460.76  4461.98  4483.98  4514.32  4552.89
                             4554.21  4990.84  5222.54

 Zero-point correction=                           0.333343 (Hartree/Particle)
 Thermal correction to Energy=                    0.349586
 Thermal correction to Enthalpy=                  0.350531
 Thermal correction to Gibbs Free Energy=         0.288897
 Sum of electronic and zero-point Energies=           -838.534556
 Sum of electronic and thermal Energies=              -838.518313
 Sum of electronic and thermal Enthalpies=            -838.517369
 Sum of electronic and thermal Free Energies=         -838.579002

                     E (Thermal)             CV                S
                      KCal/Mol        Cal/Mol-Kelvin    Cal/Mol-Kelvin
 Total                  219.369             63.223            129.718
 Electronic               0.000              0.000              0.000
 Translational            0.889              2.981             42.475
 Rotational               0.889              2.981             33.248
 Vibrational            217.591             57.262             53.995
 Vibration     1          0.593              1.985              6.352
 Vibration     2          0.596              1.976              4.691
 Vibration     3          0.596              1.975              4.620
 Vibration     4          0.606              1.943              3.318
 Vibration     5          0.608              1.935              3.143
 Vibration     6          0.611              1.926              2.993
 Vibration     7          0.621              1.894              2.576
 Vibration     8          0.629              1.867              2.329
 Vibration     9          0.634              1.853              2.220
 Vibration    10          0.649              1.806              1.933
 Vibration    11          0.651              1.799              1.896
 Vibration    12          0.659              1.775              1.784
 Vibration    13          0.666              1.753              1.690
 Vibration    14          0.688              1.687              1.456
 Vibration    15          0.702              1.645              1.336
 Vibration    16          0.723              1.586              1.190
 Vibration    17          0.740              1.541              1.094
 Vibration    18          0.780              1.432              0.901
 Vibration    19          0.816              1.343              0.772
 Vibration    20          0.837              1.293              0.708
 Vibration    21          0.865              1.228              0.634
 Vibration    22          0.894              1.165              0.568
 Vibration    23          0.922              1.105              0.512
 Vibration    24          0.940              1.068              0.480

 Optimization completed.
    -- Stationary point found.
 Normal termination of Gaussian 16 at Fri Dec 11 22:34:10 2020.

 ----------------------------------------------------------------------
 # B3LYP/6-311++G(d,p) empiricaldispersion=gd3bj scf=xqc pop=npa geom=c
 heck
 ----------------------------------------------------------------------

 ---------------------------------------
 CID_102779678_JID_8706_Energie_neutraal
 ---------------------------------------
 Structure from the checkpoint file:  "JID_8706.chk"
 Charge =  0 Multiplicity = 1

 SCF Done:  E(RB3LYP) =  -839.106829980     A.U. after   15 cycles
 Normal termination of Gaussian 16 at Fri Dec 11 22:42:24 2020.

 ----------------------------------------------------------------------
 # B3LYP/6-311++G(d,p) empiricaldispersion=gd3bj scf=xqc pop=npa geom=c
 heck
 ----------------------------------------------------------------------

 -------------------------------------
 CID_102779678_JID_8706_Energie_kation
 -------------------------------------
 Structure from the checkpoint file:  "JID_8706.chk"
 Charge =  1 Multiplicity = 2

 SCF Done:  E(UB3LYP) =  -838.806243855     A.U. after   29 cycles
 Normal termination of Gaussian 16 at Fri Dec 11 23:04:56 2020.
 Gaussian 16:  ES64L-G16RevA.03 25-Dec-2016

 ----------------------------------------------------------------------
 # B3LYP/6-311++G(d,p) empiricaldispersion=gd3bj scf=xqc pop=npa geom=c
 heck
 ----------------------------------------------------------------------

 ------------------------------------
 CID_102779678_JID_8706_Energie_anion
 ------------------------------------
 Structure from the checkpoint file:  "JID_8706.chk"
 Charge = -1 Multiplicity = 2

                         Standard orientation:
 ---------------------------------------------------------------------
 Center     Atomic      Atomic             Coordinates (Angstroms)
 Number     Number       Type             X           Y           Z
 ---------------------------------------------------------------------
      1          6           0        3.488440   -1.414279    1.716773
      2          6           0        3.402782   -0.018734    1.101802
      3          6           0        4.318682    0.233193   -0.118669
      4          6           0        3.549569    1.283304   -0.972207
      5          7           0        2.307899    1.643289   -0.237635
      6          6           0        2.020156    0.453617    0.596639
      7          6           0        1.300543   -0.559583   -0.305732
      8          8           0        1.901024   -1.481343   -0.858032
      9          7           0       -0.041228   -0.358836   -0.492180
     10          6           0       -0.764425   -1.278310   -1.371702
     11          6           0       -2.154865   -1.584314   -0.821042
     12          7           0       -2.847412   -0.331353   -0.514449
     13          6           0       -2.123518    0.928549   -0.674086
     14          6           0       -0.743101    0.840695   -0.014411
     15          6           0       -3.064040    1.920307    0.040379
     16          7           0       -3.697923    1.055000    1.023886
     17          6           0       -3.683864   -0.270164    0.594321
     18          8           0       -4.263653   -1.209585    1.109042
     19          1           0        2.789592   -1.518657    2.556289
     20          1           0        4.496720   -1.600211    2.104294
     21          1           0        3.252284   -2.178156    0.974026
     22          1           0        3.672061    0.711153    1.880421
     23          1           0        5.305932    0.591479    0.191141
     24          1           0        4.455111   -0.691680   -0.683693
     25          1           0        3.267467    0.852286   -1.937024
     26          1           0        4.124372    2.192080   -1.172186
     27          1           0        2.529201    2.407116    0.400617
     28          1           0        1.366677    0.739492    1.426663
     29          1           0       -0.838584   -0.857466   -2.384503
     30          1           0       -0.169996   -2.188471   -1.445839
     31          1           0       -2.721138   -2.164355   -1.559084
     32          1           0       -2.089131   -2.186474    0.091768
     33          1           0       -2.016385    1.186543   -1.732217
     34          1           0       -0.887109    0.795829    1.073864
     35          1           0       -0.149510    1.729151   -0.252631
     36          1           0       -3.783473    2.345838   -0.673355
     37          1           0       -2.513368    2.741098    0.511778
     38          1           0       -4.517191    1.358445    1.531858
 ---------------------------------------------------------------------

 SCF Done:  E(UB3LYP) =  -839.102110329     A.U. after   33 cycles
 SCF Done:  E(UB3LYP) =  -839.102110328     a.u. after    1 cycles

 The electronic state is 2-A.
 Alpha  occ. eigenvalues --  -18.99728 -18.99466 -14.25331 -14.24742 -14.24185
 Alpha  occ. eigenvalues --  -14.20705 -10.20096 -10.17564 -10.13472 -10.12434
 Alpha  occ. eigenvalues --  -10.12422 -10.12219 -10.11648 -10.11008 -10.09498
 Alpha  occ. eigenvalues --  -10.08111 -10.06757 -10.06523  -0.96520  -0.94816
 Alpha  occ. eigenvalues --   -0.88770  -0.84881  -0.82707  -0.80707  -0.70257
 Alpha  occ. eigenvalues --   -0.68872  -0.66711  -0.63734  -0.60835  -0.59392
 Alpha  occ. eigenvalues --   -0.56986  -0.53184  -0.51861  -0.48945  -0.47143
 Alpha  occ. eigenvalues --   -0.44863  -0.43925  -0.42675  -0.42177  -0.39817
 Alpha  occ. eigenvalues --   -0.39076  -0.38448  -0.36417  -0.35913  -0.35593
 Alpha  occ. eigenvalues --   -0.34436  -0.33590  -0.32869  -0.32167  -0.31703
 Alpha  occ. eigenvalues --   -0.31250  -0.30454  -0.30340  -0.29498  -0.28648
 Alpha  occ. eigenvalues --   -0.28373  -0.27832  -0.26928  -0.26124  -0.24652
 Alpha  occ. eigenvalues --   -0.23470  -0.22761  -0.18508  -0.17408  -0.16913
 Alpha  occ. eigenvalues --   -0.15781  -0.15259  -0.14138   0.03620
 Alpha virt. eigenvalues --    0.05556   0.06773   0.07266   0.07689   0.08186
 Alpha virt. eigenvalues --    0.08782   0.09475   0.09659   0.09924   0.10719
 Alpha virt. eigenvalues --    0.10767   0.11202   0.11541   0.12084   0.12622

  Beta  occ. eigenvalues --  -18.99726 -18.99448 -14.25329 -14.24740 -14.24170
  Beta  occ. eigenvalues --  -14.20671 -10.20097 -10.17550 -10.13460 -10.12430
  Beta  occ. eigenvalues --  -10.12379 -10.12209 -10.11629 -10.11003 -10.09487
  Beta  occ. eigenvalues --  -10.08093 -10.06751 -10.06518  -0.96512  -0.94785
  Beta  occ. eigenvalues --   -0.88757  -0.84861  -0.82659  -0.80686  -0.70231
  Beta  occ. eigenvalues --   -0.68836  -0.66682  -0.63705  -0.60784  -0.59357
  Beta  occ. eigenvalues --   -0.56953  -0.53134  -0.51817  -0.48909  -0.47110
  Beta  occ. eigenvalues --   -0.44827  -0.43882  -0.42618  -0.42146  -0.39787
  Beta  occ. eigenvalues --   -0.39027  -0.38402  -0.36386  -0.35888  -0.35568
  Beta  occ. eigenvalues --   -0.34418  -0.33558  -0.32847  -0.32138  -0.31677
  Beta  occ. eigenvalues --   -0.31228  -0.30429  -0.30312  -0.29464  -0.28612
  Beta  occ. eigenvalues --   -0.28348  -0.27791  -0.26883  -0.26077  -0.24625
  Beta  occ. eigenvalues --   -0.23447  -0.22731  -0.18497  -0.17391  -0.16882
  Beta  occ. eigenvalues --   -0.15760  -0.15225  -0.14105
  Beta virt. eigenvalues --    0.06098   0.06575   0.07264   0.07560   0.08223
  Beta virt. eigenvalues --    0.08541   0.08975   0.09867   0.09941   0.10213
  Beta virt. eigenvalues --    0.10911   0.11097   0.11273   0.11855   0.12142

 Mulliken charges and spin densities:
               1          2
     1  C   -0.344371  -0.289931
     2  C    0.567209  -0.685954
     3  C   -0.404560   0.028539
     4  C    0.205021  -0.564547
     5  N   -0.004770   0.015797
     6  C    0.171880  -0.058342
     7  C   -0.278818  -0.302724
     8  O   -0.299439   0.010807
     9  N    0.105744   0.055638
    10  C    0.215092  -0.266674
    11  C   -0.137149  -0.148958
    12  N    0.143076  -0.179962
    13  C   -3.689367   4.036268
    14  C    1.994295  -2.690142
    15  C    1.941080  -2.644049
    16  N   -0.374227   0.109966
    17  C    0.296895  -0.158463
    18  O   -0.406813   0.003468
    19  H    0.107018   0.012250
    20  H    0.070586   0.066476
    21  H    0.161893   0.018046
    22  H   -0.501820   0.710614
    23  H    0.083662   0.049496
    24  H    0.104336   0.046696
    25  H    0.240065  -0.059980
    26  H   -0.268791   0.441849
    27  H   -0.260669   0.520340
    28  H    0.121525   0.145036
    29  H    0.112908   0.062384
    30  H    0.204387   0.009660
    31  H    0.101594   0.079539
    32  H    0.205589  -0.015261
    33  H   -0.480098   0.757658
    34  H   -0.014716   0.260295
    35  H    0.457618  -0.217500
    36  H   -0.574373   0.757810
    37  H   -0.656009   0.858105
    38  H    0.084515   0.225750
 Sum of Mulliken charges =  -1.00000   1.00000

 Dipole moment (field-independent basis, Debye):
    X=              1.8382    Y=             -5.6417    Z=             -2.0249  Tot=              6.2696
 Quadrupole moment (field-independent basis, Debye-Ang):
   XX=           -195.2900   YY=           -163.6465   ZZ=           -142.0702
   XY=             -2.6000   XZ=             -0.6506   YZ=             -0.4114

 Summary of Natural Population Analysis:

                                       Natural Population
                Natural  -----------------------------------------------
    Atom  No    Charge         Core      Valence    Rydberg      Total
 -----------------------------------------------------------------------
      C    1   -0.28891      0.99964     2.28300    0.00626     3.28891
      C    2   -0.11369      0.99960     2.10153    0.01256     3.11369
      C    3   -0.19998      0.99962     2.19232    0.00804     3.19998
      C    4   -0.09197      0.99964     2.08180    0.01053     3.09197
      N    5   -0.33692      0.99975     2.82435    0.01281     3.83692
      C    6   -0.05037      0.99954     2.03619    0.01464     3.05037
      C    7    0.35306      0.99962     1.62298    0.02434     2.64694
      O    8   -0.33315      0.99988     3.32855    0.00471     4.33315
      N    9   -0.25315      0.99963     2.74395    0.00957     3.75315
      C   10   -0.09386      0.99961     2.08529    0.00897     3.09386
      C   11   -0.08358      0.99962     2.07479    0.00917     3.08358
      N   12   -0.27087      0.99964     2.76140    0.00983     3.77087
      C   13   -0.00881      0.99960     1.99519    0.01403     3.00881
      C   14   -0.09488      0.99957     2.08485    0.01046     3.09488
      C   15   -0.08219      0.99961     2.07104    0.01154     3.08219
      N   16   -0.33276      0.99969     2.82300    0.01007     3.83276
      C   17    0.41096      0.99967     1.56442    0.02495     2.58904
      O   18   -0.33173      0.99987     3.32672    0.00514     4.33173
      H   19    0.09684      0.00000     0.40247    0.00069     0.40316
      H   20    0.09602      0.00000     0.40330    0.00068     0.40398
      H   21    0.11060      0.00000     0.38850    0.00090     0.38940
      H   22    0.09864      0.00000     0.39951    0.00185     0.40136
      H   23    0.09705      0.00000     0.40207    0.00088     0.40295
      H   24    0.10324      0.00000     0.39572    0.00104     0.39676
      H   25    0.09221      0.00000     0.40664    0.00115     0.40779
      H   26    0.09521      0.00000     0.40376    0.00103     0.40479
      H   27    0.17977      0.00000     0.31362    0.00661     0.32023
      H   28    0.10866      0.00000     0.38964    0.00170     0.39134
      H   29    0.09296      0.00000     0.40567    0.00138     0.40704
      H   30    0.12004      0.00000     0.37873    0.00123     0.37996
      H   31    0.09668      0.00000     0.40214    0.00119     0.40332
      H   32    0.10210      0.00000     0.39657    0.00133     0.39790
      H   33    0.10269      0.00000     0.39562    0.00168     0.39731
      H   34    0.09736      0.00000     0.40058    0.00206     0.40264
      H   35    0.11720      0.00000     0.38051    0.00229     0.38280
      H   36    0.09518      0.00000     0.40157    0.00325     0.40482
      H   37    0.10312      0.00000     0.39403    0.00285     0.39688
      H   38    0.19723      0.00000     0.30090    0.00187     0.30277
 =======================================================================
   * Total *    0.00000     17.99379    49.76293    0.24328    68.00000

 Normal termination of Gaussian 16 at Fri Dec 11 23:30:54 2020.
