 Gaussian 16, Revision A.03,

 -----------------------------------------------------------
 # opt freq B3LYP/6-31G(d) empiricaldispersion=gd3bj scf=xqc
 -----------------------------------------------------------

 -------------------------------
 CID_114805357_JID_8151_neutraal
 -------------------------------
 Symbolic Z-matrix:
 Charge =  0 Multiplicity = 1

 SCF Done:  E(RB3LYP) =  -1270.66220842     A.U. after   15 cycles
 SCF Done:  E(RB3LYP) =  -1270.67700673     A.U. after   13 cycles
 SCF Done:  E(RB3LYP) =  -1270.67800363     A.U. after   13 cycles
 SCF Done:  E(RB3LYP) =  -1270.68252382     A.U. after   13 cycles
 SCF Done:  E(RB3LYP) =  -1270.68357744     A.U. after   13 cycles
 SCF Done:  E(RB3LYP) =  -1270.68578087     A.U. after   13 cycles
 SCF Done:  E(RB3LYP) =  -1270.68674248     A.U. after   12 cycles
 SCF Done:  E(RB3LYP) =  -1270.68768374     A.U. after   13 cycles
 SCF Done:  E(RB3LYP) =  -1270.68813393     A.U. after   13 cycles
 SCF Done:  E(RB3LYP) =  -1270.68847252     A.U. after   12 cycles
 SCF Done:  E(RB3LYP) =  -1270.68884541     A.U. after   10 cycles
 SCF Done:  E(RB3LYP) =  -1270.68885695     A.U. after   10 cycles
 SCF Done:  E(RB3LYP) =  -1270.68886615     A.U. after   10 cycles
 SCF Done:  E(RB3LYP) =  -1270.68887061     A.U. after    9 cycles
 SCF Done:  E(RB3LYP) =  -1270.68887204     A.U. after    8 cycles
 Optimization completed.
    -- Stationary point found.
 Normal termination of Gaussian 16 at Fri Dec 11 19:16:34 2020.

 --------------------------------------------------------------------
 #N Geom=AllCheck Guess=TCheck SCRF=Check GenChk RB3LYP/6-31G(d) Freq
 --------------------------------------------------------------------

 Structure from the checkpoint file:  "JID_8151.chk"
 -------------------------------
 CID_114805357_JID_8151_neutraal
 -------------------------------
 Charge =  0 Multiplicity = 1

 SCF Done:  E(RB3LYP) =  -1270.68887204     A.U. after    1 cycles

  Exact polarizability: 163.231  -1.943 165.890  17.000   1.450 111.216
 Approx polarizability: 220.548 -11.802 259.525  40.572   2.677 189.721

                      1                      2                      3
                      A                      A                      A
 Frequencies --     22.8497                51.4003                55.4878
 Red. masses --      5.6988                 5.8665                 3.6726
 Frc consts  --      0.0018                 0.0091                 0.0067
 IR Inten    --      1.5526                 1.9594                 0.1774

                      4                      5                      6
                      A                      A                      A
 Frequencies --     90.5606               105.9694               113.7722
 Red. masses --      4.4391                 5.7223                 6.2941
 Frc consts  --      0.0214                 0.0379                 0.0480
 IR Inten    --      0.6764                 0.9915                 0.9815

                      7                      8                      9
                      A                      A                      A
 Frequencies --    135.8216               166.9510               186.4741
 Red. masses --      4.6717                 6.1695                 4.8128
 Frc consts  --      0.0508                 0.1013                 0.0986
 IR Inten    --      1.5357                 0.6180                 2.7326

                     10                     11                     12
                      A                      A                      A
 Frequencies --    204.4906               220.3722               237.1987
 Red. masses --      1.0349                 2.2459                 1.3003
 Frc consts  --      0.0255                 0.0643                 0.0431
 IR Inten    --      0.0918                 2.1457                 0.2842

                     13                     14                     15
                      A                      A                      A
 Frequencies --    247.5736               276.3948               282.4282
 Red. masses --      3.5050                 2.8920                 3.2631
 Frc consts  --      0.1266                 0.1302                 0.1534
 IR Inten    --      2.8587                 0.7776                 2.0828

                     16                     17                     18
                      A                      A                      A
 Frequencies --    288.1244               297.6617               306.8541
 Red. masses --      1.4246                 2.5328                 1.4851
 Frc consts  --      0.0697                 0.1322                 0.0824
 IR Inten    --      0.3833                 1.8981                 2.6304

                     19                     20                     21
                      A                      A                      A
 Frequencies --    316.5208               339.6520               364.4388
 Red. masses --      3.4942                 4.7944                 2.5371
 Frc consts  --      0.2063                 0.3259                 0.1985
 IR Inten    --      2.6479                 1.6139                 0.4793

                     22                     23                     24
                      A                      A                      A
 Frequencies --    391.7763               401.2890               428.0254
 Red. masses --      3.6078                 3.8097                 4.9096
 Frc consts  --      0.3263                 0.3615                 0.5299
 IR Inten    --      2.6616                 8.3890                 0.2860

                     25                     26                     27
                      A                      A                      A
 Frequencies --    453.1276               482.0523               505.0685
 Red. masses --      2.5055                 3.4051                 2.8463
 Frc consts  --      0.3031                 0.4662                 0.4278
 IR Inten    --      1.9974                15.8780                80.9130

                     28                     29                     30
                      A                      A                      A
 Frequencies --    524.7565               565.3611               570.4113
 Red. masses --      2.9689                 3.1325                 1.3357
 Frc consts  --      0.4817                 0.5899                 0.2560
 IR Inten    --      7.5107                 3.2326               100.4902

                     31                     32                     33
                      A                      A                      A
 Frequencies --    599.4322               608.7549               655.3840
 Red. masses --      2.6186                 5.8163                 5.4578
 Frc consts  --      0.5544                 1.2699                 1.3812
 IR Inten    --     93.6073               154.5496                 1.8921

                     34                     35                     36
                      A                      A                      A
 Frequencies --    673.2697               693.7896               762.9015
 Red. masses --      4.1029                 5.0995                 4.7868
 Frc consts  --      1.0958                 1.4462                 1.6415
 IR Inten    --     37.3549                12.2929                42.1243

                     37                     38                     39
                      A                      A                      A
 Frequencies --    775.7348               776.1713               827.1187
 Red. masses --      3.8975                 4.5479                 4.1191
 Frc consts  --      1.3818                 1.6143                 1.6603
 IR Inten    --     18.0489                40.2760                 5.0295

                     40                     41                     42
                      A                      A                      A
 Frequencies --    867.9278               881.0945               892.6193
 Red. masses --      2.7006                 3.0950                 1.3973
 Frc consts  --      1.1986                 1.4157                 0.6559
 IR Inten    --     50.3025               160.6004                 8.5001

                     43                     44                     45
                      A                      A                      A
 Frequencies --    938.1483               940.2287               967.1872
 Red. masses --      1.6931                 2.1661                 2.2209
 Frc consts  --      0.8780                 1.1282                 1.2241
 IR Inten    --      4.8133                46.0389                66.1130

                     46                     47                     48
                      A                      A                      A
 Frequencies --    987.0372              1011.3814              1053.1512
 Red. masses --      1.2026                 3.0818                 3.7253
 Frc consts  --      0.6903                 1.8573                 2.4344
 IR Inten    --      0.4847                33.3191                87.6439

                     49                     50                     51
                      A                      A                      A
 Frequencies --   1070.3606              1075.8600              1126.2348
 Red. masses --      1.4154                 1.4058                 3.9558
 Frc consts  --      0.9554                 0.9587                 2.9562
 IR Inten    --      0.7736                 6.0608               184.3302

                     52                     53                     54
                      A                      A                      A
 Frequencies --   1137.7628              1163.8665              1222.7988
 Red. masses --      4.1828                 1.3386                 1.4243
 Frc consts  --      3.1902                 1.0683                 1.2548
 IR Inten    --     88.5013                13.3668                85.9541

                     55                     56                     57
                      A                      A                      A
 Frequencies --   1242.6022              1257.6655              1262.2531
 Red. masses --      2.1980                 2.8042                 2.5085
 Frc consts  --      1.9996                 2.6133                 2.3549
 IR Inten    --     68.5624                16.5309                19.0787

                     58                     59                     60
                      A                      A                      A
 Frequencies --   1276.3764              1292.9560              1337.0772
 Red. masses --      2.7646                 3.0954                 4.9689
 Frc consts  --      2.6536                 3.0489                 5.2339
 IR Inten    --     11.5437                 5.5445               105.8148

                     61                     62                     63
                      A                      A                      A
 Frequencies --   1338.7432              1397.0462              1429.0310
 Red. masses --      3.5815                 1.7708                 1.2652
 Frc consts  --      3.7819                 2.0363                 1.5223
 IR Inten    --     44.4914                54.0707                24.2060

                     64                     65                     66
                      A                      A                      A
 Frequencies --   1430.6620              1440.2889              1463.0514
 Red. masses --      1.2165                 1.3642                 4.0014
 Frc consts  --      1.4670                 1.6673                 5.0464
 IR Inten    --     17.3114                49.0293                54.4675

                     67                     68                     69
                      A                      A                      A
 Frequencies --   1467.2730              1469.3290              1501.7000
 Red. masses --      1.2901                 1.4996                 2.4698
 Frc consts  --      1.6364                 1.9076                 3.2815
 IR Inten    --      5.6805                18.7607                60.7650

                     70                     71                     72
                      A                      A                      A
 Frequencies --   1508.6713              1514.6722              1516.8092
 Red. masses --      1.0479                 1.1520                 1.0486
 Frc consts  --      1.4053                 1.5571                 1.4214
 IR Inten    --      2.2826                28.9057                 0.4401

                     73                     74                     75
                      A                      A                      A
 Frequencies --   1524.5755              1525.7416              1538.0922
 Red. masses --      1.0494                 1.1883                 1.0629
 Frc consts  --      1.4371                 1.6298                 1.4815
 IR Inten    --      0.5560                 4.7338                 3.3647

                     76                     77                     78
                      A                      A                      A
 Frequencies --   1541.4259              1558.6623              1575.3420
 Red. masses --      1.0665                 1.0551                 3.7960
 Frc consts  --      1.4930                 1.5102                 5.5505
 IR Inten    --      8.8030                11.8807               108.8269

                     79                     80                     81
                      A                      A                      A
 Frequencies --   1605.0382              1835.9393              3048.8865
 Red. masses --      4.7093                 9.5787                 1.0380
 Frc consts  --      7.1479                19.0227                 5.6851
 IR Inten    --    160.0008               481.5936                11.4950

                     82                     83                     84
                      A                      A                      A
 Frequencies --   3054.7778              3079.0026              3090.4953
 Red. masses --      1.0388                 1.0381                 1.0311
 Frc consts  --      5.7115                 5.7987                 5.8023
 IR Inten    --     33.0542                 8.0362                17.0216

                     85                     86                     87
                      A                      A                      A
 Frequencies --   3113.7776              3120.4106              3139.5524
 Red. masses --      1.1005                 1.0992                 1.1033
 Frc consts  --      6.2866                 6.3058                 6.4075
 IR Inten    --      3.7002                41.2978                13.3639

                     88                     89                     90
                      A                      A                      A
 Frequencies --   3148.3649              3161.9013              3169.6259
 Red. masses --      1.0994                 1.1001                 1.1061
 Frc consts  --      6.4205                 6.4800                 6.5475
 IR Inten    --     20.3708                 8.3299                 3.7619

                     91                     92                     93
                      A                      A                      A
 Frequencies --   3172.4849              3185.9210              3276.9605
 Red. masses --      1.1034                 1.1066                 1.0970
 Frc consts  --      6.5429                 6.6178                 6.9408
 IR Inten    --      5.8710                 5.9448                 1.0235

                     94                     95                     96
                      A                      A                      A
 Frequencies --   3523.4703              3535.4728              3698.1813
 Red. masses --      1.0749                 1.0748                 1.0643
 Frc consts  --      7.8623                 7.9154                 8.5764
 IR Inten    --     25.7534                88.3831                76.3812

 - Thermochemistry -
 -------------------
 Temperature   298.150 Kelvin.  Pressure   1.00000 Atm.
 Atom     1 has atomic number  6 and mass  12.00000

 Molecular mass:   276.08923 amu.
 Principal axes and moments of inertia in atomic units:
                           1         2         3
     Eigenvalues --  3501.022585352.867557339.10164
           X            0.99728   0.07269  -0.01205
           Y           -0.07268   0.99735   0.00131
           Z            0.01211  -0.00043   0.99993
 This molecule is an asymmetric top.
 Rotational symmetry number  1.
 Warning -- assumption of classical behavior for rotation
           may cause significant error
 Rotational temperatures (Kelvin)      0.02474     0.01618     0.01180
 Rotational constants (GHZ):           0.51549     0.33715     0.24591
 Zero-point vibrational energy     716033.1 (Joules/Mol)
                                  171.13602 (Kcal/Mol)
 Warning -- explicit consideration of  32 degrees of freedom as
           vibrations may cause significant error
 Vibrational temperatures:     32.88    73.95    79.83   130.30   152.47
          (Kelvin)            163.69   195.42   240.21   268.29   294.22
                              317.07   341.28   356.20   397.67   406.35
                              414.55   428.27   441.49   455.40   488.68
                              524.35   563.68   577.37   615.83   651.95
                              693.57   726.68   755.01   813.43   820.69
                              862.45   875.86   942.95   968.68   998.21
                             1097.65  1116.11  1116.74  1190.04  1248.75
                             1267.70  1284.28  1349.79  1352.78  1391.57
                             1420.13  1455.15  1515.25  1540.01  1547.92
                             1620.40  1636.99  1674.54  1759.33  1787.83
                             1809.50  1816.10  1836.42  1860.28  1923.76
                             1926.15  2010.04  2056.06  2058.40  2072.25
                             2105.00  2111.08  2114.04  2160.61  2170.64
                             2179.28  2182.35  2193.52  2195.20  2212.97
                             2217.77  2242.57  2266.57  2309.29  2641.51
                             4386.67  4395.14  4430.00  4446.53  4480.03
                             4489.57  4517.12  4529.79  4549.27  4560.38
                             4564.50  4583.83  4714.82  5069.49  5086.76
                             5320.86

 Zero-point correction=                           0.272723 (Hartree/Particle)
 Thermal correction to Energy=                    0.291445
 Thermal correction to Enthalpy=                  0.292389
 Thermal correction to Gibbs Free Energy=         0.226171
 Sum of electronic and zero-point Energies=          -1270.416149
 Sum of electronic and thermal Energies=             -1270.397427
 Sum of electronic and thermal Enthalpies=           -1270.396483
 Sum of electronic and thermal Free Energies=        -1270.462701

                     E (Thermal)             CV                S
                      KCal/Mol        Cal/Mol-Kelvin    Cal/Mol-Kelvin
 Total                  182.884             70.855            139.368
 Electronic               0.000              0.000              0.000
 Translational            0.889              2.981             42.745
 Rotational               0.889              2.981             33.286
 Vibrational            181.107             64.893             63.337
 Vibration     1          0.593              1.985              6.370
 Vibration     2          0.596              1.977              4.763
 Vibration     3          0.596              1.975              4.612
 Vibration     4          0.602              1.956              3.648
 Vibration     5          0.605              1.944              3.341
 Vibration     6          0.607              1.938              3.204
 Vibration     7          0.614              1.918              2.862
 Vibration     8          0.624              1.883              2.470
 Vibration     9          0.632              1.858              2.263
 Vibration    10          0.640              1.834              2.092
 Vibration    11          0.647              1.810              1.956
 Vibration    12          0.656              1.784              1.824
 Vibration    13          0.661              1.767              1.748
 Vibration    14          0.678              1.717              1.556
 Vibration    15          0.681              1.706              1.519
 Vibration    16          0.685              1.696              1.485
 Vibration    17          0.691              1.678              1.430
 Vibration    18          0.697              1.661              1.379
 Vibration    19          0.703              1.642              1.328
 Vibration    20          0.720              1.596              1.214
 Vibration    21          0.738              1.545              1.103
 Vibration    22          0.759              1.488              0.993
 Vibration    23          0.767              1.467              0.958
 Vibration    24          0.790              1.409              0.865
 Vibration    25          0.812              1.354              0.786
 Vibration    26          0.838              1.290              0.705
 Vibration    27          0.860              1.239              0.646
 Vibration    28          0.880              1.195              0.599
 Vibration    29          0.921              1.106              0.513
 Vibration    30          0.927              1.095              0.503
 Vibration    31          0.958              1.033              0.451
 Vibration    32          0.968              1.013              0.435

                           ! Non-Optimized Parameters !
 Normal termination of Gaussian 16 at Fri Dec 11 19:32:31 2020.

 ----------------------------------------------------------------------
 # B3LYP/6-311++G(d,p) empiricaldispersion=gd3bj scf=xqc pop=npa geom=c
 heck
 ----------------------------------------------------------------------

 ---------------------------------------
 CID_114805357_JID_8151_Energie_neutraal
 ---------------------------------------
 Structure from the checkpoint file:  "JID_8151.chk"
 Charge =  0 Multiplicity = 1

 SCF Done:  E(RB3LYP) =  -1270.97746149     A.U. after   17 cycles
 Normal termination of Gaussian 16 at Fri Dec 11 19:39:10 2020.

 ----------------------------------------------------------------------
 # B3LYP/6-311++G(d,p) empiricaldispersion=gd3bj scf=xqc pop=npa geom=c
 heck
 ----------------------------------------------------------------------

 -------------------------------------
 CID_114805357_JID_8151_Energie_kation
 -------------------------------------
 Structure from the checkpoint file:  "JID_8151.chk"
 Charge =  1 Multiplicity = 2

 SCF Done:  E(UB3LYP) =  -1270.65816108     A.U. after   27 cycles
 Normal termination of Gaussian 16 at Fri Dec 11 19:53:38 2020.
 Gaussian 16:  ES64L-G16RevA.03 25-Dec-2016

 ----------------------------------------------------------------------
 # B3LYP/6-311++G(d,p) empiricaldispersion=gd3bj scf=xqc pop=npa geom=c
 heck
 ----------------------------------------------------------------------

 ------------------------------------
 CID_114805357_JID_8151_Energie_anion
 ------------------------------------
 Structure from the checkpoint file:  "JID_8151.chk"
 Charge = -1 Multiplicity = 2

                         Standard orientation:
 ---------------------------------------------------------------------
 Center     Atomic      Atomic             Coordinates (Angstroms)
 Number     Number       Type             X           Y           Z
 ---------------------------------------------------------------------
      1          6           0        1.318005    1.443810   -1.164826
      2          6           0        2.565972    0.843972   -0.509903
      3          6           0        3.398287    0.048252   -1.526764
      4          6           0        3.412229    1.962511    0.113610
      5          7           0        2.169491   -0.014658    0.653313
      6         16           0        1.091296   -1.287680    0.520869
      7          8           0        0.836002   -1.703336   -0.857411
      8          8           0        1.513968   -2.253535    1.528421
      9          7           0       -0.359662   -0.561943    1.083850
     10          6           0       -1.475449   -0.402299    0.269510
     11          6           0       -2.190661    0.761685   -0.051343
     12          6           0       -3.262788    0.297537   -0.853710
     13          7           0       -3.224837   -1.014402   -1.018903
     14          7           0       -2.135147   -1.432716   -0.306562
     15          6           0       -1.835643   -2.851850   -0.232472
     16          6           0       -1.976102    2.124054    0.393311
     17          8           0       -2.596544    3.105263    0.040899
     18          8           0       -0.959126    2.219455    1.322169
     19          1           0        1.626620    2.133167   -1.956761
     20          1           0        0.729829    1.999544   -0.431725
     21          1           0        0.687910    0.674744   -1.616950
     22          1           0        3.735960    0.706557   -2.334515
     23          1           0        4.287145   -0.381234   -1.049138
     24          1           0        2.810637   -0.762938   -1.961344
     25          1           0        2.828839    2.526797    0.847314
     26          1           0        4.300836    1.557897    0.613549
     27          1           0        3.753783    2.648928   -0.667560
     28          1           0        2.973380   -0.368913    1.169012
     29          1           0       -0.157388    0.272502    1.631173
     30          1           0       -4.051866    0.888985   -1.296663
     31          1           0       -2.785919   -3.385835   -0.253355
     32          1           0       -1.206099   -3.159553   -1.069205
     33          1           0       -1.311072   -3.054406    0.703867
     34          1           0       -0.909747    3.163854    1.559416
 ---------------------------------------------------------------------

 SCF Done:  E(UB3LYP) =  -1270.97650086     A.U. after   33 cycles
 SCF Done:  E(UB3LYP) =  -1270.97650086     a.u. after    1 cycles

 The electronic state is 2-A.
 Alpha  occ. eigenvalues --  -88.98358 -19.05940 -19.02980 -19.02792 -18.98865
 Alpha  occ. eigenvalues --  -14.28767 -14.25446 -14.24725 -14.23116 -10.17896
 Alpha  occ. eigenvalues --  -10.14452 -10.13448 -10.11421 -10.09367 -10.06942
 Alpha  occ. eigenvalues --  -10.06824 -10.06427 -10.06104  -8.04386  -6.00632
 Alpha  occ. eigenvalues --   -6.00620  -6.00560  -1.04017  -0.99181  -0.95436
 Alpha  occ. eigenvalues --   -0.92497  -0.90151  -0.84796  -0.83198  -0.74756
 Alpha  occ. eigenvalues --   -0.70681  -0.68388  -0.61995  -0.60175  -0.59881
 Alpha  occ. eigenvalues --   -0.56869  -0.55650  -0.49772  -0.49046  -0.46956
 Alpha  occ. eigenvalues --   -0.45076  -0.44360  -0.41582  -0.39253  -0.38642
 Alpha  occ. eigenvalues --   -0.38167  -0.37411  -0.36526  -0.35667  -0.35371
 Alpha  occ. eigenvalues --   -0.34464  -0.33618  -0.33069  -0.31437  -0.30837
 Alpha  occ. eigenvalues --   -0.30463  -0.29946  -0.29537  -0.28998  -0.27603
 Alpha  occ. eigenvalues --   -0.26453  -0.25911  -0.25592  -0.25026  -0.23626
 Alpha  occ. eigenvalues --   -0.22607  -0.21934  -0.21344  -0.19856  -0.18086
 Alpha  occ. eigenvalues --   -0.17231  -0.15765  -0.13547   0.04010
 Alpha virt. eigenvalues --    0.05911   0.07400   0.07955   0.08045   0.09046
 Alpha virt. eigenvalues --    0.09796   0.09938   0.10213   0.11130   0.11445
 Alpha virt. eigenvalues --    0.11810   0.12387   0.12707   0.12940   0.14083

  Beta  occ. eigenvalues --  -88.98302 -19.05889 -19.02953 -19.02789 -18.98670
  Beta  occ. eigenvalues --  -14.28674 -14.25389 -14.24657 -14.23171 -10.17672
  Beta  occ. eigenvalues --  -10.14217 -10.13445 -10.11425 -10.09327 -10.06946
  Beta  occ. eigenvalues --  -10.06775 -10.06398 -10.06092  -8.04322  -6.00581
  Beta  occ. eigenvalues --   -6.00557  -6.00482  -1.03909  -0.98952  -0.95314
  Beta  occ. eigenvalues --   -0.92442  -0.89865  -0.84638  -0.83063  -0.74681
  Beta  occ. eigenvalues --   -0.70572  -0.68208  -0.61827  -0.60108  -0.59833
  Beta  occ. eigenvalues --   -0.56626  -0.55431  -0.49623  -0.48919  -0.46821
  Beta  occ. eigenvalues --   -0.44964  -0.44247  -0.41474  -0.39185  -0.38350
  Beta  occ. eigenvalues --   -0.38051  -0.37202  -0.36449  -0.35589  -0.35301
  Beta  occ. eigenvalues --   -0.34188  -0.33135  -0.33006  -0.31382  -0.30774
  Beta  occ. eigenvalues --   -0.30333  -0.29784  -0.29384  -0.28939  -0.27542
  Beta  occ. eigenvalues --   -0.26392  -0.25837  -0.25518  -0.24942  -0.23551
  Beta  occ. eigenvalues --   -0.22553  -0.21381  -0.21151  -0.19838  -0.17968
  Beta  occ. eigenvalues --   -0.17035  -0.15314  -0.13117
  Beta virt. eigenvalues --    0.06549   0.07875   0.07961   0.08343   0.08878
  Beta virt. eigenvalues --    0.09395   0.09850   0.10323   0.10429   0.11167
  Beta virt. eigenvalues --    0.11604   0.11983   0.12684   0.12869   0.13011

 Mulliken charges and spin densities:
               1          2
     1  C   -0.082528  -0.434589
     2  C   -0.996316   0.922507
     3  C    0.428156  -0.959723
     4  C    0.590555  -1.048187
     5  N   -0.286317   0.008483
     6  S    0.578623  -0.136899
     7  O   -0.160260   0.005072
     8  O   -0.128816   0.018694
     9  N   -0.360046   0.047006
    10  C   -1.057569   0.013481
    11  C    1.087451   0.122053
    12  C   -0.226958   0.068482
    13  N   -0.187299  -0.022787
    14  N    0.165844   0.028093
    15  C   -0.302229  -0.027950
    16  C   -0.309417  -0.067204
    17  O   -0.341788   0.073670
    18  O   -0.297768   0.025907
    19  H    0.015638   0.157983
    20  H    0.400087  -0.162986
    21  H    0.104424   0.069601
    22  H   -0.046014   0.191634
    23  H   -0.121929   0.274219
    24  H    0.090016   0.078695
    25  H   -0.163797   0.308315
    26  H   -0.543887   0.693120
    27  H   -0.169903   0.325852
    28  H    0.145122   0.184919
    29  H    0.352003   0.052580
    30  H    0.173815  -0.003876
    31  H    0.148590   0.019598
    32  H    0.188472   0.003237
    33  H    0.168908   0.013162
    34  H    0.145138   0.157836
 Sum of Mulliken charges =  -1.00000   1.00000

 Dipole moment (field-independent basis, Debye):
    X=             -2.6830    Y=             -2.8814    Z=             -0.0115  Tot=              3.9372
 Quadrupole moment (field-independent basis, Debye-Ang):
   XX=           -187.4935   YY=           -156.2532   ZZ=           -139.2549
   XY=              4.1259   XZ=             -6.4779   YZ=              2.1444

 Summary of Natural Population Analysis:

                                       Natural Population
                Natural  -----------------------------------------------
    Atom  No    Charge         Core      Valence    Rydberg      Total
 -----------------------------------------------------------------------
      C    1   -0.29856      0.99960     2.29169    0.00727     3.29856
      C    2    0.05461      0.99959     1.93192    0.01388     2.94539
      C    3   -0.29513      0.99961     2.28866    0.00686     3.29513
      C    4   -0.28524      0.99961     2.27764    0.00799     3.28524
      N    5   -0.44181      0.99971     2.92847    0.01363     3.94181
      S    6    1.17581      4.99934     1.72177    0.10308     6.82419
      O    7   -0.46019      0.99990     3.45499    0.00530     4.46019
      O    8   -0.45791      0.99990     3.45259    0.00542     4.45791
      N    9   -0.42281      0.99966     2.91280    0.01035     3.92281
      C   10    0.23406      0.99947     1.75238    0.01408     2.76594
      C   11   -0.15123      0.99942     2.14042    0.01140     3.15123
      C   12    0.02400      0.99962     1.96322    0.01315     2.97600
      N   13   -0.16917      0.99973     2.65881    0.01063     3.66917
      N   14   -0.10185      0.99961     2.58942    0.01282     3.60185
      C   15   -0.17855      0.99965     2.17203    0.00687     3.17855
      C   16    0.41794      0.99963     1.55804    0.02439     2.58206
      O   17   -0.30002      0.99987     3.29494    0.00520     4.30002
      O   18   -0.36875      0.99988     3.36248    0.00639     4.36875
      H   19    0.10229      0.00000     0.39698    0.00073     0.39771
      H   20    0.10942      0.00000     0.38891    0.00167     0.39058
      H   21    0.11083      0.00000     0.38810    0.00107     0.38917
      H   22    0.10104      0.00000     0.39813    0.00084     0.39896
      H   23    0.10055      0.00000     0.39819    0.00125     0.39945
      H   24    0.11163      0.00000     0.38735    0.00102     0.38837
      H   25    0.10442      0.00000     0.39423    0.00135     0.39558
      H   26    0.10255      0.00000     0.39553    0.00191     0.39745
      H   27    0.10431      0.00000     0.39430    0.00139     0.39569
      H   28    0.20477      0.00000     0.29252    0.00271     0.29523
      H   29    0.21978      0.00000     0.27769    0.00253     0.28022
      H   30    0.10074      0.00000     0.39837    0.00090     0.39926
      H   31    0.10125      0.00000     0.39752    0.00122     0.39875
      H   32    0.10633      0.00000     0.39234    0.00134     0.39367
      H   33    0.10432      0.00000     0.39436    0.00132     0.39568
      H   34    0.24056      0.00000     0.25588    0.00355     0.25944
 =======================================================================
   * Total *    0.00000     21.99379    50.70270    0.30351    73.00000

 Normal termination of Gaussian 16 at Fri Dec 11 20:11:12 2020.
