 Gaussian 16, Revision A.03,

 -----------------------------------------------------------
 # opt freq B3LYP/6-31G(d) empiricaldispersion=gd3bj scf=xqc
 -----------------------------------------------------------

 ------------------------------
 CID_142146007_JID_913_neutraal
 ------------------------------
 Symbolic Z-matrix:
 Charge =  0 Multiplicity = 1

 SCF Done:  E(RB3LYP) =  -480.977939281     A.U. after   13 cycles
 SCF Done:  E(RB3LYP) =  -480.981442499     A.U. after   11 cycles
 SCF Done:  E(RB3LYP) =  -480.980115024     A.U. after   11 cycles
 SCF Done:  E(RB3LYP) =  -480.983132809     A.U. after   10 cycles
 SCF Done:  E(RB3LYP) =  -480.983932148     A.U. after   10 cycles
 SCF Done:  E(RB3LYP) =  -480.984137242     A.U. after   10 cycles
 SCF Done:  E(RB3LYP) =  -480.984173826     A.U. after   10 cycles
 SCF Done:  E(RB3LYP) =  -480.984192824     A.U. after    9 cycles
 SCF Done:  E(RB3LYP) =  -480.984195215     A.U. after    8 cycles
 SCF Done:  E(RB3LYP) =  -480.984195396     A.U. after    7 cycles
 Optimization completed.
    -- Stationary point found.
 Normal termination of Gaussian 16 at Tue Dec  8 13:31:57 2020.

 --------------------------------------------------------------------
 #N Geom=AllCheck Guess=TCheck SCRF=Check GenChk RB3LYP/6-31G(d) Freq
 --------------------------------------------------------------------

 Structure from the checkpoint file:  "JID_913.chk"
 ------------------------------
 CID_142146007_JID_913_neutraal
 ------------------------------
 Charge =  0 Multiplicity = 1

 SCF Done:  E(RB3LYP) =  -480.984195396     A.U. after    1 cycles

  Exact polarizability:  93.228   0.295  80.904  -1.667   1.037  80.002
 Approx polarizability: 118.553  -0.868 115.872  -2.398   1.962 114.733

                      1                      2                      3
                      A                      A                      A
 Frequencies --     83.6520               129.2861               158.3058
 Red. masses --      2.7423                 3.7388                 3.9801
 Frc consts  --      0.0113                 0.0368                 0.0588
 IR Inten    --      0.1321                 0.8896                 2.1911

                      4                      5                      6
                      A                      A                      A
 Frequencies --    228.8406               259.3227               265.3153
 Red. masses --      2.1432                 1.4439                 2.0947
 Frc consts  --      0.0661                 0.0572                 0.0869
 IR Inten    --      1.7378                 0.4039                 0.2743

                      7                      8                      9
                      A                      A                      A
 Frequencies --    289.3340               325.1136               340.7280
 Red. masses --      2.0348                 1.1126                 3.0868
 Frc consts  --      0.1004                 0.0693                 0.2111
 IR Inten    --      2.2752                 2.5221                 2.6563

                     10                     11                     12
                      A                      A                      A
 Frequencies --    364.2690               392.1807               447.1359
 Red. masses --      2.1555                 1.2498                 2.0800
 Frc consts  --      0.1685                 0.1133                 0.2450
 IR Inten    --      9.6407               107.4182                 5.6111

                     13                     14                     15
                      A                      A                      A
 Frequencies --    451.6940               516.6795               528.3428
 Red. masses --      2.6523                 3.0550                 2.9218
 Frc consts  --      0.3188                 0.4805                 0.4805
 IR Inten    --      5.9689                 5.1417                34.2986

                     16                     17                     18
                      A                      A                      A
 Frequencies --    656.4487               711.5148               777.3500
 Red. masses --      4.6340                 3.7176                 1.9230
 Frc consts  --      1.1765                 1.1089                 0.6846
 IR Inten    --      3.5793                 1.7537                 7.5922

                     19                     20                     21
                      A                      A                      A
 Frequencies --    824.4255               865.6257               901.0353
 Red. masses --      3.7663                 2.9766                 3.0265
 Frc consts  --      1.5082                 1.3141                 1.4477
 IR Inten    --     15.6293                 6.8374                11.9091

                     22                     23                     24
                      A                      A                      A
 Frequencies --    942.0976               994.8830              1030.4649
 Red. masses --      2.4829                 2.4700                 2.4642
 Frc consts  --      1.2984                 1.4404                 1.5417
 IR Inten    --     49.0974                 5.5536                17.0054

                     25                     26                     27
                      A                      A                      A
 Frequencies --   1042.6135              1077.7537              1087.5354
 Red. masses --      2.1594                 2.1255                 1.7876
 Frc consts  --      1.3830                 1.4546                 1.2457
 IR Inten    --     56.4033                22.1133                12.1716

                     28                     29                     30
                      A                      A                      A
 Frequencies --   1099.5466              1133.7910              1138.4236
 Red. masses --      1.9646                 2.2043                 1.5335
 Frc consts  --      1.3994                 1.6695                 1.1710
 IR Inten    --     60.3089                35.6384                17.0563

                     31                     32                     33
                      A                      A                      A
 Frequencies --   1147.8112              1202.4579              1236.5636
 Red. masses --      2.2638                 1.4688                 1.4464
 Frc consts  --      1.7572                 1.2513                 1.3031
 IR Inten    --     56.9854                 5.4396                39.5179

                     34                     35                     36
                      A                      A                      A
 Frequencies --   1240.0443              1257.0595              1287.9209
 Red. masses --      2.3266                 1.2252                 1.2786
 Frc consts  --      2.1079                 1.1407                 1.2496
 IR Inten    --     12.5725                87.5887                15.4297

                     37                     38                     39
                      A                      A                      A
 Frequencies --   1303.4628              1343.0175              1355.6735
 Red. masses --      1.5187                 1.8756                 1.3141
 Frc consts  --      1.5203                 1.9932                 1.4230
 IR Inten    --      9.6552                29.4921                 7.4821

                     40                     41                     42
                      A                      A                      A
 Frequencies --   1387.8172              1402.2762              1412.2646
 Red. masses --      1.3299                 1.3318                 1.3156
 Frc consts  --      1.5092                 1.5430                 1.5460
 IR Inten    --      0.1973                10.7316                 4.4032

                     43                     44                     45
                      A                      A                      A
 Frequencies --   1436.1570              1446.8971              1467.7375
 Red. masses --      1.2907                 1.2912                 1.3828
 Frc consts  --      1.5684                 1.5926                 1.7551
 IR Inten    --      4.0214                25.7116                10.3761

                     46                     47                     48
                      A                      A                      A
 Frequencies --   1478.5500              1493.5278              1504.0985
 Red. masses --      1.1890                 1.1022                 1.1114
 Frc consts  --      1.5314                 1.4486                 1.4814
 IR Inten    --      4.1402                 6.2612                 4.1735

                     49                     50                     51
                      A                      A                      A
 Frequencies --   1507.4862              1516.0353              1533.6654
 Red. masses --      1.1129                 1.1030                 1.0803
 Frc consts  --      1.4900                 1.4936                 1.4971
 IR Inten    --     12.9969                 1.9541                14.1850

                     52                     53                     54
                      A                      A                      A
 Frequencies --   1536.5430              1543.1033              1558.4265
 Red. masses --      1.0554                 1.0614                 1.0531
 Frc consts  --      1.4681                 1.4891                 1.5069
 IR Inten    --      6.5514                 1.7643                 5.9703

                     55                     56                     57
                      A                      A                      A
 Frequencies --   2926.4550              2935.7923              3037.0749
 Red. masses --      1.0620                 1.0637                 1.0828
 Frc consts  --      5.3588                 5.4015                 5.8847
 IR Inten    --     34.8048               135.8461                46.3014

                     58                     59                     60
                      A                      A                      A
 Frequencies --   3040.9634              3052.3527              3067.1685
 Red. masses --      1.0746                 1.0727                 1.0688
 Frc consts  --      5.8550                 5.8881                 5.9244
 IR Inten    --     15.6813                41.7238                42.9111

                     61                     62                     63
                      A                      A                      A
 Frequencies --   3068.1788              3070.3870              3073.0657
 Red. masses --      1.0660                 1.0726                 1.0719
 Frc consts  --      5.9122                 5.9578                 5.9639
 IR Inten    --     37.6458                58.5546                44.1217

                     64                     65                     66
                      A                      A                      A
 Frequencies --   3090.2445              3113.7232              3118.8207
 Red. masses --      1.0961                 1.1036                 1.1075
 Frc consts  --      6.1673                 6.3041                 6.3472
 IR Inten    --     44.5901                35.7651                40.7114

                     67                     68                     69
                      A                      A                      A
 Frequencies --   3126.0662              3174.4546              3726.8959
 Red. masses --      1.0986                 1.0955                 1.0654
 Frc consts  --      6.3251                 6.5044                 8.7185
 IR Inten    --     14.3094                 0.6275                19.4487

 - Thermochemistry -
 -------------------
 Temperature   298.150 Kelvin.  Pressure   1.00000 Atm.
 Atom     1 has atomic number  6 and mass  12.00000

 Molecular mass:   145.11028 amu.
 Principal axes and moments of inertia in atomic units:
                           1         2         3
     Eigenvalues --   843.831861774.982061981.09576
           X            0.99992   0.00831  -0.00925
           Y           -0.00813   0.99979   0.01888
           Z            0.00940  -0.01880   0.99978
 This molecule is an asymmetric top.
 Rotational symmetry number  1.
 Warning -- assumption of classical behavior for rotation
           may cause significant error
 Rotational temperatures (Kelvin)      0.10264     0.04880     0.04372
 Rotational constants (GHZ):           2.13875     1.01677     0.91098
 Zero-point vibrational energy     593849.9 (Joules/Mol)
                                  141.93353 (Kcal/Mol)
 Warning -- explicit consideration of  15 degrees of freedom as
           vibrations may cause significant error
 Vibrational temperatures:    120.36   186.01   227.77   329.25   373.11
          (Kelvin)            381.73   416.29   467.77   490.23   524.10
                              564.26   643.33   649.89   743.39   760.17
                              944.48  1023.71  1118.43  1186.16  1245.44
                             1296.39  1355.47  1431.41  1482.61  1500.09
                             1550.65  1564.72  1582.00  1631.27  1637.94
                             1651.44  1730.07  1779.14  1784.15  1808.63
                             1853.03  1875.39  1932.30  1950.51  1996.76
                             2017.56  2031.93  2066.31  2081.76  2111.75
                             2127.30  2148.85  2164.06  2168.94  2181.24
                             2206.60  2210.74  2220.18  2242.23  4210.52
                             4223.95  4369.67  4375.27  4391.65  4412.97
                             4414.42  4417.60  4421.46  4446.17  4479.95
                             4487.29  4497.71  4567.33  5362.17

 Zero-point correction=                           0.226185 (Hartree/Particle)
 Thermal correction to Energy=                    0.236334
 Thermal correction to Enthalpy=                  0.237279
 Thermal correction to Gibbs Free Energy=         0.191560
 Sum of electronic and zero-point Energies=           -480.758010
 Sum of electronic and thermal Energies=              -480.747861
 Sum of electronic and thermal Enthalpies=            -480.746917
 Sum of electronic and thermal Free Energies=         -480.792635

                     E (Thermal)             CV                S
                      KCal/Mol        Cal/Mol-Kelvin    Cal/Mol-Kelvin
 Total                  148.302             39.786             96.222
 Electronic               0.000              0.000              0.000
 Translational            0.889              2.981             40.828
 Rotational               0.889              2.981             29.474
 Vibrational            146.525             33.824             25.920
 Vibration     1          0.601              1.960              3.803
 Vibration     2          0.612              1.924              2.957
 Vibration     3          0.621              1.893              2.570
 Vibration     4          0.652              1.797              1.888
 Vibration     5          0.668              1.747              1.666
 Vibration     6          0.671              1.737              1.627
 Vibration     7          0.686              1.694              1.478
 Vibration     8          0.709              1.625              1.284
 Vibration     9          0.720              1.594              1.209
 Vibration    10          0.738              1.546              1.104
 Vibration    11          0.760              1.487              0.992
 Vibration    12          0.806              1.367              0.804
 Vibration    13          0.810              1.357              0.791
 Vibration    14          0.872              1.213              0.618
 Vibration    15          0.883              1.187              0.591

 Optimization completed.
    -- Stationary point found.
 Normal termination of Gaussian 16 at Tue Dec  8 13:39:39 2020.

 ----------------------------------------------------------------------
 # B3LYP/6-311++G(d,p) empiricaldispersion=gd3bj scf=xqc pop=npa geom=c
 heck
 ----------------------------------------------------------------------

 --------------------------------------
 CID_142146007_JID_913_Energie_neutraal
 --------------------------------------
 Structure from the checkpoint file:  "JID_913.chk"
 Charge =  0 Multiplicity = 1

 SCF Done:  E(RB3LYP) =  -481.132075305     A.U. after   13 cycles
 Normal termination of Gaussian 16 at Tue Dec  8 13:45:24 2020.

 ----------------------------------------------------------------------
 # B3LYP/6-311++G(d,p) empiricaldispersion=gd3bj scf=xqc pop=npa geom=c
 heck
 ----------------------------------------------------------------------

 ------------------------------------
 CID_142146007_JID_913_Energie_kation
 ------------------------------------
 Structure from the checkpoint file:  "JID_913.chk"
 Charge =  1 Multiplicity = 2

 SCF Done:  E(UB3LYP) =  -480.843461729     A.U. after   19 cycles
 Normal termination of Gaussian 16 at Tue Dec  8 13:52:42 2020.
 Gaussian 16:  ES64L-G16RevA.03 25-Dec-2016

 ----------------------------------------------------------------------
 # B3LYP/6-311++G(d,p) empiricaldispersion=gd3bj scf=xqc pop=npa geom=c
 heck
 ----------------------------------------------------------------------

 -----------------------------------
 CID_142146007_JID_913_Energie_anion
 -----------------------------------
 Structure from the checkpoint file:  "JID_913.chk"
 Charge = -1 Multiplicity = 2

                         Standard orientation:
 ---------------------------------------------------------------------
 Center     Atomic      Atomic             Coordinates (Angstroms)
 Number     Number       Type             X           Y           Z
 ---------------------------------------------------------------------
      1          6           0        1.364662   -1.148063   -1.037582
      2          7           0        1.684915   -0.479973    0.216027
      3          6           0        2.997361    0.140128    0.146834
      4          6           0        0.667176    0.424332    0.771443
      5          6           0        0.179610    1.574602   -0.148367
      6          6           0       -1.025896    1.192638   -1.001182
      7          8           0       -2.109762    0.736379   -0.182448
      8          6           0       -1.808617   -0.440703    0.536381
      9          6           0       -0.543110   -0.319564    1.390305
     10          8           0       -1.688588   -1.557913   -0.327908
     11          1           0        2.108631   -1.933288   -1.217536
     12          1           0        1.386361   -0.471775   -1.914656
     13          1           0        0.378638   -1.609419   -0.977803
     14          1           0        3.077920    0.946854   -0.608898
     15          1           0        3.267236    0.561486    1.121520
     16          1           0        3.741518   -0.621648   -0.111586
     17          1           0        1.180806    0.897396    1.615877
     18          1           0       -0.111916    2.424723    0.481309
     19          1           0        0.997672    1.920682   -0.791799
     20          1           0       -0.769915    0.423566   -1.738237
     21          1           0       -1.417405    2.061517   -1.537645
     22          1           0       -2.679954   -0.577257    1.190159
     23          1           0       -0.228295   -1.314137    1.718289
     24          1           0       -0.844423    0.239573    2.283586
     25          1           0       -2.481593   -1.556404   -0.888913
 ---------------------------------------------------------------------

 SCF Done:  E(UB3LYP) =  -481.116085641     A.U. after   25 cycles

 The electronic state is 2-A.
 Alpha  occ. eigenvalues --  -19.01961 -19.01888 -14.19230 -10.15756 -10.10248
 Alpha  occ. eigenvalues --  -10.09103 -10.07600 -10.06672 -10.05671 -10.05502
 Alpha  occ. eigenvalues --   -0.96080  -0.89444  -0.81149  -0.67645  -0.65155
 Alpha  occ. eigenvalues --   -0.59394  -0.56012  -0.53396  -0.49396  -0.43880
 Alpha  occ. eigenvalues --   -0.41654  -0.40019  -0.36857  -0.35492  -0.35129
 Alpha  occ. eigenvalues --   -0.34400  -0.31076  -0.30540  -0.29790  -0.28249
 Alpha  occ. eigenvalues --   -0.27504  -0.26709  -0.26001  -0.24746  -0.22852
 Alpha  occ. eigenvalues --   -0.22602  -0.19697  -0.18729  -0.15922  -0.10216
 Alpha  occ. eigenvalues --    0.04791
 Alpha virt. eigenvalues --    0.07124   0.07826   0.08198   0.09615   0.09913
 Alpha virt. eigenvalues --    0.10561   0.11013   0.11505   0.12435   0.13506
 Alpha virt. eigenvalues --    0.13829   0.14369   0.15079   0.15701   0.16846

  Beta  occ. eigenvalues --  -19.01925 -19.01886 -14.19227 -10.15737 -10.10227
  Beta  occ. eigenvalues --  -10.09093 -10.07566 -10.06650 -10.05656 -10.05476
  Beta  occ. eigenvalues --   -0.96041  -0.89393  -0.81134  -0.67606  -0.65100
  Beta  occ. eigenvalues --   -0.59348  -0.55958  -0.53343  -0.49333  -0.43804
  Beta  occ. eigenvalues --   -0.41588  -0.39970  -0.36822  -0.35445  -0.35096
  Beta  occ. eigenvalues --   -0.34369  -0.31042  -0.30502  -0.29753  -0.28211
  Beta  occ. eigenvalues --   -0.27463  -0.26674  -0.25966  -0.24712  -0.22818
  Beta  occ. eigenvalues --   -0.22565  -0.19667  -0.18685  -0.15899  -0.10190
  Beta virt. eigenvalues --    0.07170   0.08184   0.08696   0.08985   0.10276
  Beta virt. eigenvalues --    0.10628   0.11070   0.11465   0.11781   0.13148
  Beta virt. eigenvalues --    0.13913   0.14108   0.14723   0.15445   0.15988

 Mulliken charges and spin densities:
               1          2
     1  C    0.366008  -0.823457
     2  N   -0.026919   0.143013
     3  C    0.701154  -0.949163
     4  C   -0.028626   0.265032
     5  C    0.226352  -0.811608
     6  C    0.298406  -0.519624
     7  O   -0.183384   0.078832
     8  C    1.130291  -1.448011
     9  C   -0.847140   0.177080
    10  O   -0.251895   0.011101
    11  H    0.093501   0.036551
    12  H   -0.259441   0.377790
    13  H    0.217530  -0.023042
    14  H   -0.125207   0.229636
    15  H   -0.376472   0.507522
    16  H   -0.115103   0.239719
    17  H   -0.409137   0.597219
    18  H   -0.158024   0.335059
    19  H   -0.125823   0.245524
    20  H    0.104930   0.033477
    21  H   -0.511964   0.720228
    22  H   -0.427810   0.633018
    23  H    0.186279   0.031297
    24  H   -0.315899   0.469335
    25  H   -0.161604   0.443475
 Sum of Mulliken charges =  -1.00000   1.00000

 Dipole moment (field-independent basis, Debye):
    X=              0.5845    Y=             -1.6209    Z=             -0.7525  Tot=              1.8802
 Quadrupole moment (field-independent basis, Debye-Ang):
   XX=           -115.9601   YY=           -100.8112   ZZ=            -97.8882
   XY=             -3.6591   XZ=             -1.2825   YZ=             -1.5858

 Summary of Natural Population Analysis:

                                       Natural Population
                Natural  -----------------------------------------------
    Atom  No    Charge         Core      Valence    Rydberg      Total
 -----------------------------------------------------------------------
      C    1   -0.18546      0.99963     2.17821    0.00762     3.18546
      N    2   -0.27966      0.99972     2.76698    0.01295     3.77966
      C    3   -0.17509      0.99964     2.16639    0.00906     3.17509
      C    4   -0.00203      0.99956     1.98590    0.01657     3.00203
      C    5   -0.21637      0.99960     2.20765    0.00912     3.21637
      C    6   -0.01591      0.99956     2.00358    0.01277     3.01591
      O    7   -0.30680      0.99989     3.29689    0.01003     4.30680
      C    8    0.21902      0.99959     1.76142    0.01997     2.78098
      C    9   -0.21535      0.99958     2.20478    0.01099     3.21535
      O   10   -0.37872      0.99989     3.37167    0.00716     4.37872
      H   11    0.08982      0.00000     0.40896    0.00121     0.41018
      H   12    0.07563      0.00000     0.42263    0.00174     0.42437
      H   13    0.11304      0.00000     0.38514    0.00182     0.38696
      H   14    0.07895      0.00000     0.41934    0.00171     0.42105
      H   15    0.09533      0.00000     0.40320    0.00147     0.40467
      H   16    0.09242      0.00000     0.40646    0.00112     0.40758
      H   17    0.10000      0.00000     0.39796    0.00203     0.40000
      H   18    0.10256      0.00000     0.39578    0.00166     0.39744
      H   19    0.10470      0.00000     0.39373    0.00157     0.39530
      H   20    0.08444      0.00000     0.41326    0.00230     0.41556
      H   21    0.09133      0.00000     0.40709    0.00158     0.40867
      H   22    0.07576      0.00000     0.42198    0.00226     0.42424
      H   23    0.11163      0.00000     0.38658    0.00179     0.38837
      H   24    0.10595      0.00000     0.39255    0.00150     0.39405
      H   25    0.23480      0.00000     0.25946    0.00574     0.26520
 =======================================================================
   * Total *   -0.00000      9.99666    29.85760    0.14574    40.00000

 Normal termination of Gaussian 16 at Tue Dec  8 14:04:19 2020.
