 Gaussian 16, Revision A.03,

 -----------------------------------------------------------
 # opt freq B3LYP/6-31G(d) empiricaldispersion=gd3bj scf=xqc
 -----------------------------------------------------------

 ------------------------------
 CID_54694339_JID_7996_neutraal
 ------------------------------
 Symbolic Z-matrix:
 Charge =  0 Multiplicity = 1

 SCF Done:  E(RB3LYP) =  -747.791114953     A.U. after   15 cycles
 SCF Done:  E(RB3LYP) =  -747.798048064     A.U. after   13 cycles
 SCF Done:  E(RB3LYP) =  -747.799379542     A.U. after   13 cycles
 SCF Done:  E(RB3LYP) =  -747.799072607     A.U. after   12 cycles
 SCF Done:  E(RB3LYP) =  -747.799913231     A.U. after   11 cycles
 SCF Done:  E(RB3LYP) =  -747.799931793     A.U. after   10 cycles
 SCF Done:  E(RB3LYP) =  -747.799938836     A.U. after   10 cycles
 SCF Done:  E(RB3LYP) =  -747.799944279     A.U. after    9 cycles
 SCF Done:  E(RB3LYP) =  -747.799945546     A.U. after    9 cycles
 SCF Done:  E(RB3LYP) =  -747.799945701     A.U. after    8 cycles
 Optimization completed.
    -- Stationary point found.
 Normal termination of Gaussian 16 at Fri Dec 11 13:25:39 2020.

 --------------------------------------------------------------------
 #N Geom=AllCheck Guess=TCheck SCRF=Check GenChk RB3LYP/6-31G(d) Freq
 --------------------------------------------------------------------

 Structure from the checkpoint file:  "JID_7996.chk"
 ------------------------------
 CID_54694339_JID_7996_neutraal
 ------------------------------
 Charge =  0 Multiplicity = 1

 SCF Done:  E(RB3LYP) =  -747.799945701     A.U. after    1 cycles

  Exact polarizability: 151.331   3.422 169.166 -37.256   3.047 118.535
 Approx polarizability: 231.048  -0.217 275.889 -88.320  12.534 213.377

                      1                      2                      3
                      A                      A                      A
 Frequencies --     20.3439                36.9697                55.1451
 Red. masses --      4.8174                 4.9230                 4.1078
 Frc consts  --      0.0012                 0.0040                 0.0074
 IR Inten    --      0.3226                 0.0665                 0.5389

                      4                      5                      6
                      A                      A                      A
 Frequencies --     78.1784               121.3022               169.4297
 Red. masses --      5.8736                 4.4997                 2.7760
 Frc consts  --      0.0212                 0.0390                 0.0470
 IR Inten    --      1.8338                 0.3738                 0.3327

                      7                      8                      9
                      A                      A                      A
 Frequencies --    173.1011               202.0598               232.4590
 Red. masses --      2.3041                 6.6439                 1.4527
 Frc consts  --      0.0407                 0.1598                 0.0463
 IR Inten    --      5.1345                 1.2652                 3.7851

                     10                     11                     12
                      A                      A                      A
 Frequencies --    288.6839               320.8887               349.0806
 Red. masses --      4.8951                 3.3220                 2.5357
 Frc consts  --      0.2404                 0.2015                 0.1821
 IR Inten    --      0.5873                 4.4883                 3.0998

                     13                     14                     15
                      A                      A                      A
 Frequencies --    369.1889               407.5763               415.6909
 Red. masses --      3.6297                 3.0977                 2.9608
 Frc consts  --      0.2915                 0.3032                 0.3014
 IR Inten    --      5.6376                 4.4232                 0.3655

                     16                     17                     18
                      A                      A                      A
 Frequencies --    428.5864               449.4411               478.4608
 Red. masses --      3.4939                 1.1438                 4.2669
 Frc consts  --      0.3781                 0.1361                 0.5755
 IR Inten    --      8.6117               111.5316                 7.5409

                     19                     20                     21
                      A                      A                      A
 Frequencies --    507.5026               528.2743               556.8407
 Red. masses --      4.1748                 5.2889                 3.4270
 Frc consts  --      0.6335                 0.8696                 0.6261
 IR Inten    --      4.7421                 1.6791                 1.1955

                     22                     23                     24
                      A                      A                      A
 Frequencies --    582.2568               606.7332               638.6144
 Red. masses --      2.7879                 5.2495                 6.2478
 Frc consts  --      0.5569                 1.1386                 1.5013
 IR Inten    --      3.9461                 0.6165                 0.0475

                     25                     26                     27
                      A                      A                      A
 Frequencies --    640.7965               676.0944               712.0605
 Red. masses --      4.4762                 3.7802                 1.7725
 Frc consts  --      1.0829                 1.0181                 0.5295
 IR Inten    --      3.2015                 0.1664                28.4542

                     28                     29                     30
                      A                      A                      A
 Frequencies --    719.1856               742.5741               767.4254
 Red. masses --      3.0329                 3.0837                 1.8991
 Frc consts  --      0.9242                 1.0018                 0.6590
 IR Inten    --      5.0948                 0.8100                22.3215

                     31                     32                     33
                      A                      A                      A
 Frequencies --    780.6171               792.1128               813.6398
 Red. masses --      3.0902                 1.4100                 1.8418
 Frc consts  --      1.1095                 0.5212                 0.7184
 IR Inten    --      3.0480                 8.5102                57.5099

                     34                     35                     36
                      A                      A                      A
 Frequencies --    855.3967               897.1918               932.9155
 Red. masses --      1.2527                 1.8393                 1.9076
 Frc consts  --      0.5401                 0.8723                 0.9782
 IR Inten    --      0.2387                 6.9221                 7.5498

                     37                     38                     39
                      A                      A                      A
 Frequencies --    960.3220               964.5642               975.8205
 Red. masses --      1.4101                 2.3951                 2.4705
 Frc consts  --      0.7662                 1.3129                 1.3861
 IR Inten    --      0.0542                 1.2093                 3.9164

                     40                     41                     42
                      A                      A                      A
 Frequencies --    990.2745              1013.7057              1023.7151
 Red. masses --      1.2505                 2.6964                 6.2033
 Frc consts  --      0.7225                 1.6325                 3.8303
 IR Inten    --      0.2969                 5.1511                 0.5525

                     43                     44                     45
                      A                      A                      A
 Frequencies --   1050.3772              1062.1791              1075.6525
 Red. masses --      1.7850                 2.1834                 1.5099
 Frc consts  --      1.1603                 1.4514                 1.0293
 IR Inten    --      6.9394                 1.5023                 5.1615

                     46                     47                     48
                      A                      A                      A
 Frequencies --   1089.1392              1126.7899              1177.7876
 Red. masses --      1.7885                 1.6113                 3.9972
 Frc consts  --      1.2500                 1.2053                 3.2669
 IR Inten    --      0.4036                 8.0012                88.1848

                     49                     50                     51
                      A                      A                      A
 Frequencies --   1193.5099              1197.8419              1216.9616
 Red. masses --      1.1026                 1.5312                 1.1566
 Frc consts  --      0.9254                 1.2945                 1.0092
 IR Inten    --      0.0191                15.6294                 2.5807

                     52                     53                     54
                      A                      A                      A
 Frequencies --   1221.5172              1239.7693              1241.2101
 Red. masses --      1.5920                 2.1430                 1.7466
 Frc consts  --      1.3996                 1.9407                 1.5853
 IR Inten    --     44.5036                 3.0187                37.8756

                     55                     56                     57
                      A                      A                      A
 Frequencies --   1252.1658              1284.9494              1323.5591
 Red. masses --      2.0265                 2.1079                 1.5800
 Frc consts  --      1.8721                 2.0506                 1.6308
 IR Inten    --     20.0199               185.6862                26.6596

                     58                     59                     60
                      A                      A                      A
 Frequencies --   1364.3258              1371.3280              1389.2056
 Red. masses --      3.9510                 1.3780                 1.3732
 Frc consts  --      4.3331                 1.5268                 1.5614
 IR Inten    --      1.3260                 1.5807                 1.8983

                     61                     62                     63
                      A                      A                      A
 Frequencies --   1401.7166              1446.4803              1468.5638
 Red. masses --      1.4673                 1.2316                 2.2771
 Frc consts  --      1.6986                 1.5182                 2.8935
 IR Inten    --     17.4189                 4.1965                20.2149

                     64                     65                     66
                      A                      A                      A
 Frequencies --   1497.2423              1505.0518              1506.9173
 Red. masses --      1.4884                 1.6623                 1.4471
 Frc consts  --      1.9659                 2.2185                 1.9361
 IR Inten    --      6.8023                 0.3659                23.0221

                     67                     68                     69
                      A                      A                      A
 Frequencies --   1514.6966              1522.2313              1543.9715
 Red. masses --      1.1326                 1.0827                 1.5865
 Frc consts  --      1.5311                 1.4782                 2.2283
 IR Inten    --     22.3029                11.0699                 8.0010

                     70                     71                     72
                      A                      A                      A
 Frequencies --   1551.1875              1629.0976              1649.9040
 Red. masses --      2.2345                 6.3280                 5.5501
 Frc consts  --      3.1679                 9.8949                 8.9016
 IR Inten    --      6.4248               140.4233                 0.3407

                     73                     74                     75
                      A                      A                      A
 Frequencies --   1671.2975              1683.6636              1767.1317
 Red. masses --      5.6587                 6.7680                 9.8072
 Frc consts  --      9.3126                11.3037                18.0441
 IR Inten    --      3.3373               157.5526               462.5918

                     76                     77                     78
                      A                      A                      A
 Frequencies --   3052.7052              3059.7577              3090.5252
 Red. masses --      1.0584                 1.0427                 1.1018
 Frc consts  --      5.8111                 5.7516                 6.2004
 IR Inten    --     21.5142                24.0761                20.9364

                     79                     80                     81
                      A                      A                      A
 Frequencies --   3104.4143              3118.8309              3155.3487
 Red. masses --      1.0668                 1.0965                 1.1006
 Frc consts  --      6.0576                 6.2839                 6.4565
 IR Inten    --     49.6563                15.4870                13.4999

                     82                     83                     84
                      A                      A                      A
 Frequencies --   3173.2877              3175.2589              3179.8121
 Red. masses --      1.0998                 1.0857                 1.0869
 Frc consts  --      6.5252                 6.4496                 6.4753
 IR Inten    --      2.4582                 7.2217                 3.0806

                     85                     86                     87
                      A                      A                      A
 Frequencies --   3188.8837              3198.5463              3209.6811
 Red. masses --      1.0903                 1.0941                 1.0980
 Frc consts  --      6.5326                 6.5950                 6.6648
 IR Inten    --     14.7866                40.9342                19.7254

                     88                     89                     90
                      A                      A                      A
 Frequencies --   3212.8554              3245.5450              3739.5876
 Red. masses --      1.0915                 1.0921                 1.0656
 Frc consts  --      6.6385                 6.7780                 8.7803
 IR Inten    --      4.7064                 1.3824                44.7248

 - Thermochemistry -
 -------------------
 Temperature   298.150 Kelvin.  Pressure   1.00000 Atm.
 Atom     1 has atomic number  6 and mass  12.00000

 Molecular mass:   229.11028 amu.
 Principal axes and moments of inertia in atomic units:
                           1         2         3
     Eigenvalues --  2576.706524511.384735410.34175
           X            0.99964   0.02295  -0.01392
           Y           -0.02317   0.99961  -0.01583
           Z            0.01355   0.01615   0.99978
 This molecule is an asymmetric top.
 Rotational symmetry number  1.
 Warning -- assumption of classical behavior for rotation
           may cause significant error
 Rotational temperatures (Kelvin)      0.03361     0.01920     0.01601
 Rotational constants (GHZ):           0.70041     0.40004     0.33357
 Zero-point vibrational energy     696332.4 (Joules/Mol)
                                  166.42743 (Kcal/Mol)
 Warning -- explicit consideration of  23 degrees of freedom as
           vibrations may cause significant error
 Vibrational temperatures:     29.27    53.19    79.34   112.48   174.53
          (Kelvin)            243.77   249.05   290.72   334.46   415.35
                              461.69   502.25   531.18   586.41   598.09
                              616.64   646.65   688.40   730.18   760.07
                              801.17   837.74   872.95   918.82   921.96
                              972.75  1024.50  1034.75  1068.40  1104.15
                             1123.13  1139.67  1170.65  1230.73  1290.86
                             1342.26  1381.69  1387.79  1403.99  1424.78
                             1458.50  1472.90  1511.26  1528.24  1547.62
                             1567.03  1621.20  1694.57  1717.19  1723.43
                             1750.94  1757.49  1783.75  1785.82  1801.59
                             1848.76  1904.31  1962.96  1973.04  1998.76
                             2016.76  2081.16  2112.94  2154.20  2165.43
                             2168.12  2179.31  2190.15  2221.43  2231.81
                             2343.91  2373.84  2404.62  2422.42  2542.51
                             4392.16  4402.31  4446.58  4466.56  4487.30
                             4539.84  4565.65  4568.49  4575.04  4588.09
                             4601.99  4618.02  4622.58  4669.62  5380.43

 Zero-point correction=                           0.265219 (Hartree/Particle)
 Thermal correction to Energy=                    0.280050
 Thermal correction to Enthalpy=                  0.280994
 Thermal correction to Gibbs Free Energy=         0.222146
 Sum of electronic and zero-point Energies=           -747.534727
 Sum of electronic and thermal Energies=              -747.519896
 Sum of electronic and thermal Enthalpies=            -747.518952
 Sum of electronic and thermal Free Energies=         -747.577799

                     E (Thermal)             CV                S
                      KCal/Mol        Cal/Mol-Kelvin    Cal/Mol-Kelvin
 Total                  175.734             58.540            123.855
 Electronic               0.000              0.000              0.000
 Translational            0.889              2.981             42.189
 Rotational               0.889              2.981             32.509
 Vibrational            173.956             52.579             49.157
 Vibration     1          0.593              1.986              6.600
 Vibration     2          0.594              1.982              5.415
 Vibration     3          0.596              1.976              4.624
 Vibration     4          0.599              1.964              3.936
 Vibration     5          0.609              1.931              3.080
 Vibration     6          0.625              1.880              2.442
 Vibration     7          0.627              1.876              2.402
 Vibration     8          0.639              1.837              2.114
 Vibration     9          0.653              1.791              1.860
 Vibration    10          0.685              1.695              1.482
 Vibration    11          0.706              1.634              1.306
 Vibration    12          0.726              1.577              1.170
 Vibration    13          0.741              1.536              1.083
 Vibration    14          0.772              1.454              0.935
 Vibration    15          0.779              1.436              0.907
 Vibration    16          0.790              1.408              0.863
 Vibration    17          0.808              1.362              0.797
 Vibration    18          0.835              1.298              0.714
 Vibration    19          0.863              1.233              0.640
 Vibration    20          0.883              1.187              0.591
 Vibration    21          0.912              1.125              0.530
 Vibration    22          0.939              1.070              0.481
 Vibration    23          0.965              1.018              0.438

 Optimization completed.
    -- Stationary point found.
 Normal termination of Gaussian 16 at Fri Dec 11 13:38:08 2020.

 ----------------------------------------------------------------------
 # B3LYP/6-311++G(d,p) empiricaldispersion=gd3bj scf=xqc pop=npa geom=c
 heck
 ----------------------------------------------------------------------

 --------------------------------------
 CID_54694339_JID_7996_Energie_neutraal
 --------------------------------------
 Structure from the checkpoint file:  "JID_7996.chk"
 Charge =  0 Multiplicity = 1

 SCF Done:  E(RB3LYP) =  -748.010158653     A.U. after   16 cycles
 Normal termination of Gaussian 16 at Fri Dec 11 13:43:12 2020.

 ----------------------------------------------------------------------
 # B3LYP/6-311++G(d,p) empiricaldispersion=gd3bj scf=xqc pop=npa geom=c
 heck
 ----------------------------------------------------------------------

 ------------------------------------
 CID_54694339_JID_7996_Energie_kation
 ------------------------------------
 Structure from the checkpoint file:  "JID_7996.chk"
 Charge =  1 Multiplicity = 2

 SCF Done:  E(UB3LYP) =  -747.730795649     A.U. after   25 cycles
 Normal termination of Gaussian 16 at Fri Dec 11 13:53:27 2020.
 Gaussian 16:  ES64L-G16RevA.03 25-Dec-2016

 ----------------------------------------------------------------------
 # B3LYP/6-311++G(d,p) empiricaldispersion=gd3bj scf=xqc pop=npa geom=c
 heck
 ----------------------------------------------------------------------

 -----------------------------------
 CID_54694339_JID_7996_Energie_anion
 -----------------------------------
 Structure from the checkpoint file:  "JID_7996.chk"
 Charge = -1 Multiplicity = 2

                         Standard orientation:
 ---------------------------------------------------------------------
 Center     Atomic      Atomic             Coordinates (Angstroms)
 Number     Number       Type             X           Y           Z
 ---------------------------------------------------------------------
      1          6           0        2.209691    2.239363   -1.087980
      2          6           0        1.909336    0.943063   -0.385629
      3          6           0        2.632224   -0.183009   -0.667779
      4          6           0        2.358811   -1.383723    0.041809
      5          6           0        1.404862   -1.413014    1.021691
      6          6           0        0.633048   -0.248293    1.355895
      7          8           0       -0.226455   -0.199363    2.234014
      8          7           0        0.924354    0.918890    0.572742
      9          6           0        0.016623    2.051665    0.780592
     10          6           0       -1.124160    2.099843   -0.261451
     11          6           0       -1.836352    0.778151   -0.421715
     12          6           0       -1.377988   -0.160937   -1.352170
     13          6           0       -1.986290   -1.411011   -1.463874
     14          6           0       -3.069125   -1.735341   -0.646974
     15          6           0       -3.536399   -0.804070    0.282035
     16          6           0       -2.921549    0.440952    0.393290
     17          8           0        3.105966   -2.461638   -0.314802
     18          1           0        3.013951    2.085607   -1.810210
     19          1           0        2.535082    3.008872   -0.377947
     20          1           0        1.342973    2.635620   -1.625556
     21          1           0        3.417267   -0.166595   -1.412289
     22          1           0        1.178291   -2.312545    1.584704
     23          1           0       -0.400717    1.908054    1.776332
     24          1           0        0.584196    2.985092    0.767347
     25          1           0       -1.825593    2.879436    0.059704
     26          1           0       -0.725794    2.416932   -1.231945
     27          1           0       -0.529760    0.084170   -1.986783
     28          1           0       -1.613877   -2.129516   -2.188974
     29          1           0       -3.546203   -2.707723   -0.732316
     30          1           0       -4.376437   -1.050569    0.925325
     31          1           0       -3.276441    1.155712    1.131451
     32          1           0        2.840111   -3.218600    0.231827
 ---------------------------------------------------------------------

 SCF Done:  E(UB3LYP) =  -748.001448558     A.U. after   33 cycles
 SCF Done:  E(UB3LYP) =  -748.001448557     a.u. after    1 cycles

 The electronic state is 2-A.
 Alpha  occ. eigenvalues --  -19.06298 -18.97080 -14.26102 -10.16287 -10.14652
 Alpha  occ. eigenvalues --  -10.13153 -10.10729 -10.08346 -10.08020 -10.07954
 Alpha  occ. eigenvalues --  -10.07941 -10.07922 -10.07888 -10.07658 -10.07459
 Alpha  occ. eigenvalues --  -10.06727 -10.06063  -0.97492  -0.92887  -0.85602
 Alpha  occ. eigenvalues --   -0.76397  -0.72374  -0.68367  -0.67916  -0.65095
 Alpha  occ. eigenvalues --   -0.62875  -0.60703  -0.56178  -0.52440  -0.51648
 Alpha  occ. eigenvalues --   -0.51151  -0.48625  -0.44551  -0.42577  -0.41228
 Alpha  occ. eigenvalues --   -0.40551  -0.37375  -0.36894  -0.36183  -0.34295
 Alpha  occ. eigenvalues --   -0.33817  -0.32703  -0.32360  -0.31910  -0.31744
 Alpha  occ. eigenvalues --   -0.31585  -0.30734  -0.30544  -0.28376  -0.28110
 Alpha  occ. eigenvalues --   -0.26732  -0.26612  -0.25976  -0.24559  -0.24097
 Alpha  occ. eigenvalues --   -0.21992  -0.16091  -0.15966  -0.15515  -0.14774
 Alpha  occ. eigenvalues --   -0.11190   0.04056
 Alpha virt. eigenvalues --    0.05719   0.06756   0.06992   0.07560   0.08086
 Alpha virt. eigenvalues --    0.08187   0.08743   0.08859   0.09469   0.10362
 Alpha virt. eigenvalues --    0.10815   0.11040   0.11324   0.12208   0.12432

  Beta  occ. eigenvalues --  -19.06245 -18.97079 -14.26077 -10.16286 -10.14608
  Beta  occ. eigenvalues --  -10.13084 -10.10718 -10.08327 -10.08016 -10.07935
  Beta  occ. eigenvalues --  -10.07930 -10.07876 -10.07873 -10.07654 -10.07445
  Beta  occ. eigenvalues --  -10.06727 -10.06044  -0.97381  -0.92868  -0.85548
  Beta  occ. eigenvalues --   -0.76368  -0.72307  -0.68312  -0.67830  -0.65074
  Beta  occ. eigenvalues --   -0.62823  -0.60632  -0.56105  -0.52375  -0.51585
  Beta  occ. eigenvalues --   -0.51122  -0.48577  -0.44499  -0.42526  -0.41168
  Beta  occ. eigenvalues --   -0.40485  -0.37296  -0.36835  -0.36139  -0.34243
  Beta  occ. eigenvalues --   -0.33749  -0.32687  -0.32287  -0.31868  -0.31676
  Beta  occ. eigenvalues --   -0.31479  -0.30684  -0.30507  -0.28330  -0.28053
  Beta  occ. eigenvalues --   -0.26679  -0.26564  -0.25939  -0.24537  -0.24063
  Beta  occ. eigenvalues --   -0.21854  -0.15965  -0.15908  -0.15460  -0.14708
  Beta  occ. eigenvalues --   -0.11093
  Beta virt. eigenvalues --    0.06440   0.06976   0.07274   0.07280   0.08060
  Beta virt. eigenvalues --    0.08207   0.08383   0.09041   0.09172   0.10064
  Beta virt. eigenvalues --    0.10545   0.11073   0.11187   0.11640   0.12452

 Mulliken charges and spin densities:
               1          2
     1  C    3.630032  -4.285756
     2  C   -3.855384   3.925812
     3  C    2.014982  -1.908780
     4  C   -0.663923  -0.160574
     5  C    1.070742  -0.616157
     6  C   -0.979005   0.631560
     7  O   -0.301098  -0.004678
     8  N    0.130289   0.085558
     9  C    0.005546  -0.152509
    10  C    1.284931  -2.003182
    11  C   -0.514128   1.427301
    12  C   -0.256763   0.141024
    13  C    0.004740  -0.295303
    14  C    0.077837  -0.387604
    15  C   -0.223093  -0.054692
    16  C   -0.418522   0.178699
    17  O   -0.229944   0.034204
    18  H   -0.403072   0.572838
    19  H   -0.144086   0.331459
    20  H   -0.352441   0.513330
    21  H   -0.041612   0.251426
    22  H   -0.069009   0.260025
    23  H    0.149179   0.069990
    24  H   -0.241989   0.384574
    25  H   -0.267140   0.435748
    26  H   -0.295497   0.461038
    27  H    0.000426   0.173386
    28  H   -0.042586   0.214310
    29  H    0.096761   0.036859
    30  H    0.090574   0.060351
    31  H    0.072722   0.082391
    32  H   -0.329471   0.597351
 Sum of Mulliken charges =  -1.00000   1.00000

 Dipole moment (field-independent basis, Debye):
    X=             -3.5658    Y=             -1.7610    Z=              0.9969  Tot=              4.1000
 Quadrupole moment (field-independent basis, Debye-Ang):
   XX=           -146.7249   YY=           -160.0265   ZZ=           -138.7058
   XY=              6.3060   XZ=              2.7363   YZ=             11.2411

 Summary of Natural Population Analysis:

                                       Natural Population
                Natural  -----------------------------------------------
    Atom  No    Charge         Core      Valence    Rydberg      Total
 -----------------------------------------------------------------------
      C    1   -0.30366      0.99963     2.29817    0.00585     3.30366
      C    2    0.14614      0.99952     1.84292    0.01143     2.85386
      C    3   -0.17072      0.99946     2.16143    0.00984     3.17072
      C    4    0.19332      0.99939     1.79376    0.01353     2.80668
      C    5   -0.19877      0.99947     2.18852    0.01078     3.19877
      C    6    0.31822      0.99961     1.65871    0.02346     2.68178
      O    7   -0.33544      0.99988     3.33049    0.00507     4.33544
      N    8   -0.23220      0.99961     2.72182    0.01077     3.73220
      C    9   -0.08765      0.99959     2.07701    0.01105     3.08765
      C   10   -0.20130      0.99959     2.19161    0.01011     3.20130
      C   11   -0.01229      0.99950     2.00190    0.01089     3.01229
      C   12   -0.09763      0.99950     2.08889    0.00923     3.09763
      C   13   -0.10085      0.99956     2.09095    0.01034     3.10085
      C   14   -0.10457      0.99956     2.09598    0.00902     3.10457
      C   15   -0.09995      0.99957     2.09114    0.00924     3.09995
      C   16   -0.09118      0.99950     2.08206    0.00962     3.09118
      O   17   -0.33340      0.99988     3.32658    0.00695     4.33340
      H   18    0.10909      0.00000     0.38973    0.00118     0.39091
      H   19    0.10835      0.00000     0.39056    0.00109     0.39165
      H   20    0.11271      0.00000     0.38353    0.00375     0.38729
      H   21    0.11017      0.00000     0.38891    0.00092     0.38983
      H   22    0.10717      0.00000     0.39161    0.00122     0.39283
      H   23    0.11789      0.00000     0.38067    0.00145     0.38211
      H   24    0.10213      0.00000     0.39650    0.00137     0.39787
      H   25    0.10535      0.00000     0.39336    0.00128     0.39465
      H   26    0.10340      0.00000     0.39450    0.00210     0.39660
      H   27    0.10303      0.00000     0.39523    0.00174     0.39697
      H   28    0.10015      0.00000     0.39905    0.00080     0.39985
      H   29    0.09742      0.00000     0.40183    0.00074     0.40258
      H   30    0.09724      0.00000     0.40199    0.00077     0.40276
      H   31    0.09919      0.00000     0.39987    0.00094     0.40081
      H   32    0.23864      0.00000     0.25187    0.00948     0.26136
 =======================================================================
   * Total *    0.00000     16.99281    43.80116    0.20603    61.00000

 Normal termination of Gaussian 16 at Fri Dec 11 14:07:21 2020.
