 Gaussian 16, Revision A.03,

 -----------------------------------------------------------
 # opt freq B3LYP/6-31G(d) empiricaldispersion=gd3bj scf=xqc
 -----------------------------------------------------------

 ------------------------------
 CID_80272197_JID_9477_neutraal
 ------------------------------
 Symbolic Z-matrix:
 Charge =  0 Multiplicity = 1

 SCF Done:  E(RB3LYP) =  -838.626037662     A.U. after   15 cycles
 SCF Done:  E(RB3LYP) =  -838.632994218     A.U. after   13 cycles
 SCF Done:  E(RB3LYP) =  -838.634307458     A.U. after   12 cycles
 SCF Done:  E(RB3LYP) =  -838.634803680     A.U. after   13 cycles
 SCF Done:  E(RB3LYP) =  -838.635247723     A.U. after   12 cycles
 SCF Done:  E(RB3LYP) =  -838.635397834     A.U. after   11 cycles
 SCF Done:  E(RB3LYP) =  -838.635454707     A.U. after   12 cycles
 SCF Done:  E(RB3LYP) =  -838.635510380     A.U. after   12 cycles
 SCF Done:  E(RB3LYP) =  -838.635534625     A.U. after   10 cycles
 SCF Done:  E(RB3LYP) =  -838.635542893     A.U. after    9 cycles
 SCF Done:  E(RB3LYP) =  -838.635625109     A.U. after    9 cycles
 SCF Done:  E(RB3LYP) =  -838.635625467     A.U. after    9 cycles
 SCF Done:  E(RB3LYP) =  -838.635625683     A.U. after    8 cycles
 SCF Done:  E(RB3LYP) =  -838.635625713     A.U. after    6 cycles
 SCF Done:  E(RB3LYP) =  -838.635625755     A.U. after    7 cycles
 Optimization completed.
    -- Stationary point found.
 Normal termination of Gaussian 16 at Mon Dec 14 17:03:06 2020.

 --------------------------------------------------------------------
 #N Geom=AllCheck Guess=TCheck SCRF=Check GenChk RB3LYP/6-31G(d) Freq
 --------------------------------------------------------------------

 Structure from the checkpoint file:  "JID_9477.chk"
 ------------------------------
 CID_80272197_JID_9477_neutraal
 ------------------------------
 Charge =  0 Multiplicity = 1

 SCF Done:  E(RB3LYP) =  -838.635625755     A.U. after    1 cycles

  Exact polarizability: 232.349   2.510 185.994   7.634   4.748 105.951
 Approx polarizability: 301.805  10.306 319.145  11.597  16.637 173.483

 ******    1 imaginary frequencies (negative Signs) ******

                      1                      2                      3
                      A                      A                      A
 Frequencies --    -29.2334                26.6172                30.2421
 Red. masses --      1.1048                 3.8909                 1.3165
 Frc consts  --      0.0006                 0.0016                 0.0007
 IR Inten    --      0.1596                 0.3563                 0.4105

                      4                      5                      6
                      A                      A                      A
 Frequencies --     33.0308                48.1178                76.2674
 Red. masses --      2.5072                 4.2442                 4.3034
 Frc consts  --      0.0016                 0.0058                 0.0147
 IR Inten    --      1.3343                 1.8441                 2.4531

                      7                      8                      9
                      A                      A                      A
 Frequencies --     93.8272               102.0341               157.1827
 Red. masses --      3.7222                 5.4813                 2.0055
 Frc consts  --      0.0193                 0.0336                 0.0292
 IR Inten    --      0.9689                 5.4610                 1.3058

                     10                     11                     12
                      A                      A                      A
 Frequencies --    175.3983               200.4473               216.5093
 Red. masses --      3.1681                 2.7496                 3.6469
 Frc consts  --      0.0574                 0.0651                 0.1007
 IR Inten    --      1.5772                 1.4527                 1.6049

                     13                     14                     15
                      A                      A                      A
 Frequencies --    225.7034               233.6691               282.0261
 Red. masses --      2.3349                 3.4149                 3.7510
 Frc consts  --      0.0701                 0.1099                 0.1758
 IR Inten    --      4.4229                 2.3811                 3.4729

                     16                     17                     18
                      A                      A                      A
 Frequencies --    301.0474               316.0471               353.1923
 Red. masses --      4.4383                 2.9510                 3.4322
 Frc consts  --      0.2370                 0.1737                 0.2523
 IR Inten    --      0.7979                 0.2925                 6.2832

                     19                     20                     21
                      A                      A                      A
 Frequencies --    386.6335               401.4033               432.2528
 Red. masses --      3.1342                 4.2450                 1.9663
 Frc consts  --      0.2760                 0.4030                 0.2165
 IR Inten    --      9.2411                 4.3069                 5.4484

                     22                     23                     24
                      A                      A                      A
 Frequencies --    456.6555               459.1037               473.7513
 Red. masses --      1.6497                 1.8177                 3.2573
 Frc consts  --      0.2027                 0.2257                 0.4307
 IR Inten    --     28.0598                48.3948                 1.8268

                     25                     26                     27
                      A                      A                      A
 Frequencies --    548.8070               577.9505               596.6407
 Red. masses --      5.1265                 3.8461                 4.4717
 Frc consts  --      0.9097                 0.7569                 0.9379
 IR Inten    --      6.4231                40.8520                10.6198

                     28                     29                     30
                      A                      A                      A
 Frequencies --    601.2405               622.5903               658.9302
 Red. masses --      3.7706                 3.9216                 6.1976
 Frc consts  --      0.8031                 0.8956                 1.5854
 IR Inten    --      4.0581                 9.1262                 2.9928

                     31                     32                     33
                      A                      A                      A
 Frequencies --    676.7285               697.1396               707.3676
 Red. masses --      1.6137                 3.5873                 3.8383
 Frc consts  --      0.4354                 1.0272                 1.1316
 IR Inten    --    189.2636                14.9038                13.7717

                     34                     35                     36
                      A                      A                      A
 Frequencies --    721.7658               762.5048               776.5903
 Red. masses --      5.1184                 5.1821                 3.0496
 Frc consts  --      1.5710                 1.7752                 1.0836
 IR Inten    --      8.5902                 3.4654                 8.9235

                     37                     38                     39
                      A                      A                      A
 Frequencies --    792.8276               821.6643               828.9010
 Red. masses --      2.6933                 1.6546                 1.4470
 Frc consts  --      0.9975                 0.6582                 0.5858
 IR Inten    --     90.7371                10.3444                 6.2977

                     40                     41                     42
                      A                      A                      A
 Frequencies --    862.3336               866.4567               917.7815
 Red. masses --      1.4959                 1.4110                 3.0601
 Frc consts  --      0.6554                 0.6241                 1.5187
 IR Inten    --     16.3027                15.5551                 1.6538

                     43                     44                     45
                      A                      A                      A
 Frequencies --    960.9475               972.9440               990.8220
 Red. masses --      1.3044                 2.1513                 2.6525
 Frc consts  --      0.7097                 1.1999                 1.5343
 IR Inten    --      5.4621                 8.6313                 0.1544

                     46                     47                     48
                      A                      A                      A
 Frequencies --   1008.8382              1037.8986              1052.5511
 Red. masses --      3.6391                 1.5754                 4.4023
 Frc consts  --      2.1821                 0.9999                 2.8736
 IR Inten    --     42.9893                11.9377                29.5827

                     49                     50                     51
                      A                      A                      A
 Frequencies --   1071.5843              1079.6245              1082.8702
 Red. masses --      1.5203                 1.5105                 2.2609
 Frc consts  --      1.0285                 1.0373                 1.5620
 IR Inten    --      6.5839                21.5098                85.5973

                     52                     53                     54
                      A                      A                      A
 Frequencies --   1127.5700              1161.8625              1162.4522
 Red. masses --      1.6185                 1.3112                 1.3412
 Frc consts  --      1.2124                 1.0429                 1.0678
 IR Inten    --     60.1413                 0.8137                 3.7330

                     55                     56                     57
                      A                      A                      A
 Frequencies --   1180.9881              1187.0720              1195.2795
 Red. masses --      1.6787                 1.7383                 1.3386
 Frc consts  --      1.3795                 1.4432                 1.1268
 IR Inten    --      8.5939                44.8932                 2.5525

                     58                     59                     60
                      A                      A                      A
 Frequencies --   1215.1566              1236.5222              1243.9008
 Red. masses --      1.9233                 2.6577                 1.6395
 Frc consts  --      1.6733                 2.3942                 1.4946
 IR Inten    --      8.5906                29.0992                11.6098

                     61                     62                     63
                      A                      A                      A
 Frequencies --   1311.9021              1324.7289              1338.4345
 Red. masses --      2.7197                 2.2464                 3.7754
 Frc consts  --      2.7579                 2.3227                 3.9848
 IR Inten    --     97.3872                89.6703                10.4374

                     64                     65                     66
                      A                      A                      A
 Frequencies --   1346.0339              1382.8237              1386.5053
 Red. masses --      1.5961                 2.8620                 2.3140
 Frc consts  --      1.7038                 3.2244                 2.6210
 IR Inten    --     12.7761                10.2251                13.0562

                     67                     68                     69
                      A                      A                      A
 Frequencies --   1417.7348              1435.7940              1440.8598
 Red. masses --      2.7006                 3.5965                 1.2643
 Frc consts  --      3.1982                 4.3684                 1.5464
 IR Inten    --      4.0893               183.8686                 1.1967

                     70                     71                     72
                      A                      A                      A
 Frequencies --   1454.4274              1473.6991              1475.9867
 Red. masses --      2.0605                 2.7678                 1.5535
 Frc consts  --      2.5680                 3.5417                 1.9941
 IR Inten    --     34.5615                 9.3537                15.6503

                     73                     74                     75
                      A                      A                      A
 Frequencies --   1494.9511              1496.1003              1504.4045
 Red. masses --      1.3356                 1.7732                 1.0430
 Frc consts  --      1.7586                 2.3385                 1.3908
 IR Inten    --      7.4019                14.8219                 5.7257

                     76                     77                     78
                      A                      A                      A
 Frequencies --   1505.7220              1514.2787              1525.0524
 Red. masses --      1.3031                 1.0502                 1.1351
 Frc consts  --      1.7406                 1.4188                 1.5554
 IR Inten    --     65.0151                 6.5603                13.4809

                     79                     80                     81
                      A                      A                      A
 Frequencies --   1526.5337              1547.7964              1551.0122
 Red. masses --      1.1001                 1.2475                 1.2486
 Frc consts  --      1.5105                 1.7609                 1.7697
 IR Inten    --     18.8379                20.0914                 3.7896

                     82                     83                     84
                      A                      A                      A
 Frequencies --   1557.9697              1608.0552              1611.3463
 Red. masses --      2.1945                 4.4549                 4.2455
 Frc consts  --      3.1383                 6.7872                 6.4946
 IR Inten    --     32.3740                22.1907                29.7471

                     85                     86                     87
                      A                      A                      A
 Frequencies --   1655.2765              1684.9987              1705.3272
 Red. masses --      2.9520                 3.8106                 2.3186
 Frc consts  --      4.7655                 6.3744                 3.9728
 IR Inten    --    222.5982               250.4732                56.0968

                     88                     89                     90
                      A                      A                      A
 Frequencies --   3037.7739              3044.7500              3067.8944
 Red. masses --      1.0403                 1.0382                 1.0683
 Frc consts  --      5.6559                 5.6705                 5.9242
 IR Inten    --     45.2156                32.3335                45.0749

                     91                     92                     93
                      A                      A                      A
 Frequencies --   3072.5267              3088.9909              3098.5565
 Red. masses --      1.0324                 1.1038                 1.0992
 Frc consts  --      5.7423                 6.2053                 6.2182
 IR Inten    --     45.5520                19.8737                19.9502

                     94                     95                     96
                      A                      A                      A
 Frequencies --   3128.5451              3139.7596              3147.2312
 Red. masses --      1.1016                 1.1061                 1.0964
 Frc consts  --      6.3527                 6.4247                 6.3986
 IR Inten    --     16.9044                15.4966                 3.6318

                     97                     98                     99
                      A                      A                      A
 Frequencies --   3167.2191              3167.8257              3186.9161
 Red. masses --      1.0896                 1.1046                 1.0883
 Frc consts  --      6.4397                 6.5309                 6.5122
 IR Inten    --     24.9367                10.1405                13.1737

                    100                    101                    102
                      A                      A                      A
 Frequencies --   3189.9144              3207.5339              3242.4658
 Red. masses --      1.0950                 1.0938                 1.0957
 Frc consts  --      6.5648                 6.6300                 6.7874
 IR Inten    --      4.6298                13.5206                 8.8207

                    103                    104                    105
                      A                      A                      A
 Frequencies --   3297.3427              3521.7132              3647.5244
 Red. masses --      1.0982                 1.0504                 1.0963
 Frc consts  --      7.0350                 7.6753                 8.5935
 IR Inten    --      1.4966                81.2093                42.8024

 - Thermochemistry -
 -------------------
 Temperature   298.150 Kelvin.  Pressure   1.00000 Atm.
 Atom     1 has atomic number  6 and mass  12.00000

 Molecular mass:   258.14806 amu.
 Principal axes and moments of inertia in atomic units:
                           1         2         3
     Eigenvalues --  2043.59568********************
           X            0.99998   0.00503   0.00429
           Y           -0.00504   0.99998   0.00301
           Z           -0.00428  -0.00303   0.99999
 This molecule is an asymmetric top.
 Rotational symmetry number  1.
 Warning -- assumption of classical behavior for rotation
           may cause significant error
 Rotational temperatures (Kelvin)      0.04238     0.00856     0.00777
 Rotational constants (GHZ):           0.88312     0.17835     0.16194
    1 imaginary frequencies ignored.
 Zero-point vibrational energy     814779.5 (Joules/Mol)
                                  194.73699 (Kcal/Mol)
 Warning -- explicit consideration of  27 degrees of freedom as
           vibrations may cause significant error
 Vibrational temperatures:     38.30    43.51    47.52    69.23   109.73
          (Kelvin)            135.00   146.80   226.15   252.36   288.40
                              311.51   324.74   336.20   405.77   433.14
                              454.72   508.17   556.28   577.53   621.92
                              657.03   660.55   681.62   789.61   831.54
                              858.43   865.05   895.77   948.05   973.66
                             1003.03  1017.74  1038.46  1097.07  1117.34
                             1140.70  1182.19  1192.60  1240.71  1246.64
                             1320.48  1382.59  1399.85  1425.57  1451.49
                             1493.30  1514.39  1541.77  1553.34  1558.01
                             1622.32  1671.66  1672.51  1699.18  1707.93
                             1719.74  1748.34  1779.08  1789.70  1887.53
                             1905.99  1925.71  1936.64  1989.57  1994.87
                             2039.80  2065.79  2073.08  2092.60  2120.32
                             2123.62  2150.90  2152.55  2164.50  2166.40
                             2178.71  2194.21  2196.34  2226.93  2231.56
                             2241.57  2313.63  2318.37  2381.57  2424.34
                             2453.59  4370.68  4380.72  4414.02  4420.68
                             4444.37  4458.13  4501.28  4517.41  4528.16
                             4556.92  4557.79  4585.26  4589.58  4614.93
                             4665.19  4744.14  5066.96  5247.97

 Zero-point correction=                           0.310333 (Hartree/Particle)
 Thermal correction to Energy=                    0.328137
 Thermal correction to Enthalpy=                  0.329081
 Thermal correction to Gibbs Free Energy=         0.262544
 Sum of electronic and zero-point Energies=           -838.325293
 Sum of electronic and thermal Energies=              -838.307489
 Sum of electronic and thermal Enthalpies=            -838.306545
 Sum of electronic and thermal Free Energies=         -838.373082

                     E (Thermal)             CV                S
                      KCal/Mol        Cal/Mol-Kelvin    Cal/Mol-Kelvin
 Total                  205.909             67.350            140.039
 Electronic               0.000              0.000              0.000
 Translational            0.889              2.981             42.545
 Rotational               0.889              2.981             33.799
 Vibrational            204.131             61.389             63.695
 Vibration     1          0.593              1.984              6.067
 Vibration     2          0.594              1.984              5.813
 Vibration     3          0.594              1.983              5.639
 Vibration     4          0.595              1.978              4.893
 Vibration     5          0.599              1.965              3.985
 Vibration     6          0.603              1.954              3.579
 Vibration     7          0.604              1.948              3.415
 Vibration     8          0.621              1.895              2.583
 Vibration     9          0.627              1.873              2.377
 Vibration    10          0.638              1.839              2.129
 Vibration    11          0.645              1.816              1.988
 Vibration    12          0.650              1.802              1.913
 Vibration    13          0.654              1.789              1.851
 Vibration    14          0.681              1.707              1.521
 Vibration    15          0.693              1.672              1.411
 Vibration    16          0.703              1.643              1.330
 Vibration    17          0.729              1.569              1.152
 Vibration    18          0.755              1.499              1.013
 Vibration    19          0.767              1.467              0.958
 Vibration    20          0.793              1.400              0.851
 Vibration    21          0.815              1.346              0.776
 Vibration    22          0.817              1.341              0.769
 Vibration    23          0.831              1.308              0.727
 Vibration    24          0.904              1.142              0.547
 Vibration    25          0.934              1.079              0.489
 Vibration    26          0.954              1.039              0.455
 Vibration    27          0.959              1.029              0.448

                           ! Non-Optimized Parameters !
 Normal termination of Gaussian 16 at Mon Dec 14 17:22:00 2020.

 ----------------------------------------------------------------------
 # B3LYP/6-311++G(d,p) empiricaldispersion=gd3bj scf=xqc pop=npa geom=c
 heck
 ----------------------------------------------------------------------

 --------------------------------------
 CID_80272197_JID_9477_Energie_neutraal
 --------------------------------------
 Structure from the checkpoint file:  "JID_9477.chk"
 Charge =  0 Multiplicity = 1

 SCF Done:  E(RB3LYP) =  -838.865749388     A.U. after   16 cycles
 Normal termination of Gaussian 16 at Mon Dec 14 17:31:01 2020.

 ----------------------------------------------------------------------
 # B3LYP/6-311++G(d,p) empiricaldispersion=gd3bj scf=xqc pop=npa geom=c
 heck
 ----------------------------------------------------------------------

 ------------------------------------
 CID_80272197_JID_9477_Energie_kation
 ------------------------------------
 Structure from the checkpoint file:  "JID_9477.chk"
 Charge =  1 Multiplicity = 2

 SCF Done:  E(UB3LYP) =  -838.590632059     A.U. after   27 cycles
 Normal termination of Gaussian 16 at Mon Dec 14 17:52:28 2020.
 Gaussian 16:  ES64L-G16RevA.03 25-Dec-2016

 ----------------------------------------------------------------------
 # B3LYP/6-311++G(d,p) empiricaldispersion=gd3bj scf=xqc pop=npa geom=c
 heck
 ----------------------------------------------------------------------

 -----------------------------------
 CID_80272197_JID_9477_Energie_anion
 -----------------------------------
 Structure from the checkpoint file:  "JID_9477.chk"
 Charge = -1 Multiplicity = 2

                         Standard orientation:
 ---------------------------------------------------------------------
 Center     Atomic      Atomic             Coordinates (Angstroms)
 Number     Number       Type             X           Y           Z
 ---------------------------------------------------------------------
      1          6           0       -5.836385    0.286779   -0.917288
      2          6           0       -4.407983    0.144457   -0.453325
      3          6           0       -3.614070    1.266418   -0.241857
      4          6           0       -2.277016    1.168567    0.188449
      5          6           0       -1.714476   -0.122357    0.362046
      6          6           0       -2.535371   -1.244850    0.172246
      7          6           0       -3.858945   -1.128220   -0.224236
      8          6           0       -0.310475   -0.261436    0.841660
      9          8           0        0.173269    0.545930    1.654370
     10          7           0        0.426089   -1.333907    0.406374
     11          6           0        0.244291   -1.995026   -0.880326
     12          6           0        1.749420   -1.526755    1.020461
     13          6           0        2.842810   -0.758580    0.338471
     14          6           0        3.015199    0.617984    0.316081
     15          7           0        4.112438    0.864542   -0.443543
     16          7           0        4.679097   -0.266034   -0.924614
     17          6           0        3.907557   -1.247798   -0.453328
     18          6           0        4.703190    2.147663   -0.764302
     19          7           0       -1.521958    2.310487    0.382199
     20          1           0       -6.515709   -0.310887   -0.298559
     21          1           0       -6.170487    1.328024   -0.880475
     22          1           0       -5.950675   -0.064136   -1.950853
     23          1           0       -4.036295    2.257376   -0.396899
     24          1           0       -2.120951   -2.229160    0.367316
     25          1           0       -4.471539   -2.016111   -0.352698
     26          1           0        1.155915   -1.870079   -1.477283
     27          1           0        0.055207   -3.068419   -0.752402
     28          1           0       -0.587611   -1.552138   -1.424405
     29          1           0        1.660603   -1.233891    2.067245
     30          1           0        1.970017   -2.599494    0.982159
     31          1           0        2.430530    1.401677    0.773157
     32          1           0        4.145236   -2.277771   -0.690337
     33          1           0        5.723683    2.200780   -0.374475
     34          1           0        4.728933    2.286562   -1.848578
     35          1           0        4.098663    2.935239   -0.310584
     36          1           0       -2.054667    3.159217    0.517386
     37          1           0       -0.763129    2.179081    1.043903
 ---------------------------------------------------------------------

 SCF Done:  E(UB3LYP) =  -838.855492229     A.U. after   33 cycles
 SCF Done:  E(UB3LYP) =  -838.855492418     a.u. after    2 cycles

 The electronic state is 2-A.
 Alpha  occ. eigenvalues --  -18.96398 -14.29274 -14.22864 -14.22709 -14.19835
 Alpha  occ. eigenvalues --  -10.14363 -10.11252 -10.10800 -10.10078 -10.10000
 Alpha  occ. eigenvalues --  -10.09991 -10.09170 -10.07064 -10.07024 -10.06116
 Alpha  occ. eigenvalues --  -10.05691 -10.05131 -10.04979 -10.04899  -0.95198
 Alpha  occ. eigenvalues --   -0.91766  -0.82369  -0.80565  -0.74511  -0.73084
 Alpha  occ. eigenvalues --   -0.69726  -0.66604  -0.63189  -0.61556  -0.60531
 Alpha  occ. eigenvalues --   -0.59488  -0.56918  -0.50020  -0.49841  -0.48375
 Alpha  occ. eigenvalues --   -0.47066  -0.44617  -0.42439  -0.41148  -0.39940
 Alpha  occ. eigenvalues --   -0.38167  -0.37677  -0.36809  -0.36232  -0.34804
 Alpha  occ. eigenvalues --   -0.34215  -0.33181  -0.32307  -0.32111  -0.31743
 Alpha  occ. eigenvalues --   -0.31189  -0.30087  -0.29725  -0.29712  -0.28499
 Alpha  occ. eigenvalues --   -0.28315  -0.27728  -0.26986  -0.25830  -0.24585
 Alpha  occ. eigenvalues --   -0.23232  -0.19879  -0.19784  -0.15912  -0.15634
 Alpha  occ. eigenvalues --   -0.14227  -0.13478  -0.13282  -0.09681   0.04627
 Alpha virt. eigenvalues --    0.05982   0.06630   0.07026   0.07985   0.08614
 Alpha virt. eigenvalues --    0.08889   0.09345   0.09636   0.09950   0.10132
 Alpha virt. eigenvalues --    0.10658   0.10992   0.11376   0.11603   0.12401

  Beta  occ. eigenvalues --  -18.96244 -14.29272 -14.22860 -14.22673 -14.19803
  Beta  occ. eigenvalues --  -10.14192 -10.11205 -10.10801 -10.10065 -10.09996
  Beta  occ. eigenvalues --  -10.09929 -10.09168 -10.07081 -10.07019 -10.05859
  Beta  occ. eigenvalues --  -10.05561 -10.05053 -10.05048 -10.04888  -0.95191
  Beta  occ. eigenvalues --   -0.91479  -0.82241  -0.80460  -0.74493  -0.72858
  Beta  occ. eigenvalues --   -0.69692  -0.66330  -0.63144  -0.61406  -0.60429
  Beta  occ. eigenvalues --   -0.59374  -0.56852  -0.49857  -0.49701  -0.48226
  Beta  occ. eigenvalues --   -0.46997  -0.44511  -0.42360  -0.41076  -0.39848
  Beta  occ. eigenvalues --   -0.38128  -0.37501  -0.36725  -0.36116  -0.34743
  Beta  occ. eigenvalues --   -0.34144  -0.33103  -0.32051  -0.32022  -0.31666
  Beta  occ. eigenvalues --   -0.31140  -0.30028  -0.29673  -0.29586  -0.28416
  Beta  occ. eigenvalues --   -0.28086  -0.27486  -0.26836  -0.25551  -0.24210
  Beta  occ. eigenvalues --   -0.23115  -0.19769  -0.19457  -0.15896  -0.15454
  Beta  occ. eigenvalues --   -0.13996  -0.13085  -0.12550  -0.09305
  Beta virt. eigenvalues --    0.06522   0.06939   0.07282   0.08100   0.08342
  Beta virt. eigenvalues --    0.08639   0.09049   0.09299   0.09877   0.10075
  Beta virt. eigenvalues --    0.10461   0.10809   0.11118   0.11539   0.11830

 Mulliken charges and spin densities:
               1          2
     1  C   -0.364436  -0.239215
     2  C    0.535107   0.105233
     3  C   -0.686918   0.037747
     4  C   -0.307814   0.076836
     5  C    0.518854   0.013236
     6  C   -0.420657   0.164229
     7  C   -0.487134  -0.017591
     8  C   -0.078886   0.054610
     9  O   -0.378165   0.050087
    10  N    0.265256   0.016907
    11  C   -0.371430  -0.058859
    12  C   -0.973006  -0.022688
    13  C    0.620151  -0.071976
    14  C   -0.341555   0.276148
    15  N    0.053975   0.127346
    16  N   -0.349627   0.163494
    17  C    0.094330  -0.406257
    18  C    1.275212  -1.562497
    19  N   -0.273758   0.005181
    20  H    0.135239  -0.005335
    21  H    0.109409   0.016515
    22  H    0.027146   0.131160
    23  H    0.035802   0.052671
    24  H    0.128855  -0.010789
    25  H    0.108151   0.025409
    26  H    0.162388   0.002679
    27  H    0.101343   0.041298
    28  H    0.148054   0.012999
    29  H    0.191626   0.010982
    30  H    0.123611   0.054237
    31  H    0.118565   0.130157
    32  H    0.067683   0.050877
    33  H   -0.365863   0.537128
    34  H   -0.236584   0.405662
    35  H   -0.571798   0.718077
    36  H    0.154273   0.074398
    37  H    0.232604   0.039905
 Sum of Mulliken charges =  -1.00000   1.00000

 Dipole moment (field-independent basis, Debye):
    X=             -5.1291    Y=             -5.1387    Z=              0.6493  Tot=              7.2894
 Quadrupole moment (field-independent basis, Debye-Ang):
   XX=           -212.5409   YY=           -142.9122   ZZ=           -139.4320
   XY=            -22.2548   XZ=              4.2372   YZ=              2.5319

 Summary of Natural Population Analysis:

                                       Natural Population
                Natural  -----------------------------------------------
    Atom  No    Charge         Core      Valence    Rydberg      Total
 -----------------------------------------------------------------------
      C    1   -0.29216      0.99964     2.28783    0.00469     3.29216
      C    2    0.03528      0.99953     1.95586    0.00934     2.96472
      C    3   -0.13341      0.99949     2.12655    0.00737     3.13341
      C    4    0.11928      0.99949     1.86886    0.01237     2.88072
      C    5   -0.08525      0.99939     2.07642    0.00943     3.08525
      C    6   -0.05640      0.99956     2.04905    0.00779     3.05640
      C    7   -0.14782      0.99952     2.13932    0.00898     3.14782
      C    8    0.36708      0.99958     1.61082    0.02252     2.63292
      O    9   -0.33779      0.99988     3.33280    0.00511     4.33779
      N   10   -0.25071      0.99965     2.74163    0.00943     3.75071
      C   11   -0.17747      0.99964     2.17162    0.00621     3.17747
      C   12   -0.09163      0.99958     2.08160    0.01045     3.09163
      C   13   -0.08716      0.99952     2.07781    0.00983     3.08716
      C   14    0.00466      0.99950     1.98366    0.01219     2.99534
      N   15   -0.10296      0.99967     2.59095    0.01234     3.60296
      N   16   -0.16117      0.99973     2.64876    0.01267     3.66117
      C   17   -0.01501      0.99958     2.00165    0.01379     3.01501
      C   18   -0.17075      0.99964     2.16275    0.00836     3.17075
      N   19   -0.39806      0.99970     2.88898    0.00939     3.89806
      H   20    0.09896      0.00000     0.40009    0.00095     0.40104
      H   21    0.09732      0.00000     0.40189    0.00079     0.40268
      H   22    0.10260      0.00000     0.39588    0.00152     0.39740
      H   23    0.08923      0.00000     0.40918    0.00160     0.41077
      H   24    0.09521      0.00000     0.40336    0.00143     0.40479
      H   25    0.09250      0.00000     0.40610    0.00140     0.40750
      H   26    0.09457      0.00000     0.40428    0.00115     0.40543
      H   27    0.08578      0.00000     0.41282    0.00139     0.41422
      H   28    0.11081      0.00000     0.38830    0.00089     0.38919
      H   29    0.11619      0.00000     0.38271    0.00110     0.38381
      H   30    0.09384      0.00000     0.40511    0.00106     0.40616
      H   31    0.11831      0.00000     0.38043    0.00126     0.38169
      H   32    0.09460      0.00000     0.40451    0.00089     0.40540
      H   33    0.10152      0.00000     0.39672    0.00176     0.39848
      H   34    0.10159      0.00000     0.39699    0.00142     0.39841
      H   35    0.10408      0.00000     0.39395    0.00197     0.39592
      H   36    0.17836      0.00000     0.32027    0.00137     0.32164
      H   37    0.20599      0.00000     0.29192    0.00209     0.29401
 =======================================================================
   * Total *    0.00000     18.99227    49.79144    0.21629    69.00000

 Normal termination of Gaussian 16 at Mon Dec 14 18:44:53 2020.
