 Gaussian 16, Revision A.03,

 -----------------------------------------------------------
 # opt freq B3LYP/6-31G(d) empiricaldispersion=gd3bj scf=xqc
 -----------------------------------------------------------

 -------------------------------
 CID_100410352_JID_9254_neutraal
 -------------------------------
 Symbolic Z-matrix:
 Charge =  0 Multiplicity = 1

 SCF Done:  E(RB3LYP) =  -864.722528448     A.U. after   15 cycles
 SCF Done:  E(RB3LYP) =  -864.727906238     A.U. after   12 cycles
 SCF Done:  E(RB3LYP) =  -864.728287014     A.U. after   12 cycles
 SCF Done:  E(RB3LYP) =  -864.729247662     A.U. after   12 cycles
 SCF Done:  E(RB3LYP) =  -864.729550677     A.U. after   12 cycles
 SCF Done:  E(RB3LYP) =  -864.729832033     A.U. after   12 cycles
 SCF Done:  E(RB3LYP) =  -864.729981514     A.U. after   11 cycles
 SCF Done:  E(RB3LYP) =  -864.730054741     A.U. after   11 cycles
 SCF Done:  E(RB3LYP) =  -864.730067310     A.U. after    9 cycles
 SCF Done:  E(RB3LYP) =  -864.730081984     A.U. after   10 cycles
 SCF Done:  E(RB3LYP) =  -864.731322485     A.U. after   10 cycles
 SCF Done:  E(RB3LYP) =  -864.731324689     A.U. after    9 cycles
 SCF Done:  E(RB3LYP) =  -864.731325142     A.U. after    9 cycles
 SCF Done:  E(RB3LYP) =  -864.731325178     A.U. after    7 cycles
 SCF Done:  E(RB3LYP) =  -864.731325184     A.U. after    6 cycles
 Optimization completed.
    -- Stationary point found.
 Normal termination of Gaussian 16 at Sat Dec 12 10:22:10 2020.

 --------------------------------------------------------------------
 #N Geom=AllCheck Guess=TCheck SCRF=Check GenChk RB3LYP/6-31G(d) Freq
 --------------------------------------------------------------------

 Structure from the checkpoint file:  "JID_9254.chk"
 -------------------------------
 CID_100410352_JID_9254_neutraal
 -------------------------------
 Charge =  0 Multiplicity = 1

 SCF Done:  E(RB3LYP) =  -864.731325184     A.U. after    1 cycles

  Exact polarizability: 215.707   3.082 177.321  19.117  -5.281 125.784
 Approx polarizability: 286.520  -2.919 278.645  39.561 -19.497 188.404

                      1                      2                      3
                      A                      A                      A
 Frequencies --     17.2165                37.8936                42.1933
 Red. masses --      3.2588                 2.9849                 3.0583
 Frc consts  --      0.0006                 0.0025                 0.0032
 IR Inten    --      0.6103                 0.7785                 1.0562

                      4                      5                      6
                      A                      A                      A
 Frequencies --     56.6654                64.3932                84.5463
 Red. masses --      2.7240                 3.2498                 4.3247
 Frc consts  --      0.0052                 0.0079                 0.0182
 IR Inten    --      0.1420                 0.4713                 0.4513

                      7                      8                      9
                      A                      A                      A
 Frequencies --     91.5990                97.0102               138.5424
 Red. masses --      3.9547                 3.4830                 3.5239
 Frc consts  --      0.0196                 0.0193                 0.0399
 IR Inten    --      5.1133                 0.4960                 3.2871

                     10                     11                     12
                      A                      A                      A
 Frequencies --    149.7294               171.0762               189.2087
 Red. masses --      2.0246                 2.2039                 2.1986
 Frc consts  --      0.0267                 0.0380                 0.0464
 IR Inten    --      3.7809                 2.0851                 0.5442

                     13                     14                     15
                      A                      A                      A
 Frequencies --    204.1262               236.6531               252.8655
 Red. masses --      2.2879                 3.0467                 1.2290
 Frc consts  --      0.0562                 0.1005                 0.0463
 IR Inten    --      2.5450                 0.3136                 1.3922

                     16                     17                     18
                      A                      A                      A
 Frequencies --    294.5593               315.3958               331.4875
 Red. masses --      3.7371                 6.5263                 3.3862
 Frc consts  --      0.1910                 0.3825                 0.2192
 IR Inten    --      2.8002                 4.3000                 3.5076

                     19                     20                     21
                      A                      A                      A
 Frequencies --    355.4110               362.1916               378.3092
 Red. masses --      3.9832                 3.2323                 4.0855
 Frc consts  --      0.2964                 0.2498                 0.3445
 IR Inten    --      2.3502                 1.8539                 0.3397

                     22                     23                     24
                      A                      A                      A
 Frequencies --    445.5266               459.6100               489.0047
 Red. masses --      2.6496                 3.2157                 3.6974
 Frc consts  --      0.3099                 0.4002                 0.5209
 IR Inten    --      2.9065                 1.3669                 5.5211

                     25                     26                     27
                      A                      A                      A
 Frequencies --    530.3901               555.5876               578.0576
 Red. masses --      4.5014                 2.5911                 2.8365
 Frc consts  --      0.7461                 0.4712                 0.5584
 IR Inten    --     11.5488                 8.8154                31.8592

                     28                     29                     30
                      A                      A                      A
 Frequencies --    599.1725               620.3056               636.2390
 Red. masses --      2.5828                 2.8064                 4.7395
 Frc consts  --      0.5463                 0.6362                 1.1304
 IR Inten    --      4.0030                25.7723                21.8832

                     31                     32                     33
                      A                      A                      A
 Frequencies --    678.7673               726.5829               729.8793
 Red. masses --      2.6275                 3.7699                 3.3649
 Frc consts  --      0.7132                 1.1726                 1.0562
 IR Inten    --      7.0848                12.4643                16.9148

                     34                     35                     36
                      A                      A                      A
 Frequencies --    774.8899               795.6157               803.4590
 Red. masses --      4.5407                 1.2747                 4.9845
 Frc consts  --      1.6064                 0.4754                 1.8958
 IR Inten    --     42.1543                 1.1655                 5.4313

                     37                     38                     39
                      A                      A                      A
 Frequencies --    839.0903               854.1717               886.6235
 Red. masses --      1.5957                 1.9061                 2.8360
 Frc consts  --      0.6619                 0.8194                 1.3135
 IR Inten    --     15.8070                 3.8732                 0.8830

                     40                     41                     42
                      A                      A                      A
 Frequencies --    907.5578               936.2227               944.1434
 Red. masses --      2.4130                 4.6208                 1.6782
 Frc consts  --      1.1710                 2.3863                 0.8814
 IR Inten    --      0.0831                 4.9089                 0.9604

                     43                     44                     45
                      A                      A                      A
 Frequencies --    959.0637               960.6402               964.5643
 Red. masses --      1.5113                 1.6579                 2.3223
 Frc consts  --      0.8190                 0.9015                 1.2730
 IR Inten    --      1.2410                 7.1647                37.8443

                     46                     47                     48
                      A                      A                      A
 Frequencies --    980.8679              1024.4576              1043.2901
 Red. masses --      1.5486                 1.3438                 1.8440
 Frc consts  --      0.8778                 0.8310                 1.1826
 IR Inten    --      2.0824                 0.3419                 3.0444

                     49                     50                     51
                      A                      A                      A
 Frequencies --   1049.6467              1074.5555              1101.3487
 Red. masses --      2.2234                 6.2583                 2.9287
 Frc consts  --      1.4433                 4.2576                 2.0930
 IR Inten    --      3.6293                43.3495                 0.9435

                     52                     53                     54
                      A                      A                      A
 Frequencies --   1120.9964              1135.6887              1156.2324
 Red. masses --      2.4658                 2.9330                 2.4417
 Frc consts  --      1.8257                 2.2289                 1.9232
 IR Inten    --     12.9923               120.9806                72.3948

                     55                     56                     57
                      A                      A                      A
 Frequencies --   1177.0517              1186.0750              1193.5746
 Red. masses --      1.6670                 1.2719                 1.2643
 Frc consts  --      1.3608                 1.0542                 1.0612
 IR Inten    --     41.0687                 1.3137                 0.6869

                     58                     59                     60
                      A                      A                      A
 Frequencies --   1212.4726              1212.9542              1222.5267
 Red. masses --      1.4381                 1.7831                 1.4616
 Frc consts  --      1.2456                 1.5457                 1.2870
 IR Inten    --      6.2961                13.6135                 6.6755

                     61                     62                     63
                      A                      A                      A
 Frequencies --   1224.4444              1234.0134              1248.3108
 Red. masses --      1.7489                 1.8810                 1.5227
 Frc consts  --      1.5448                 1.6876                 1.3980
 IR Inten    --     21.5976                28.2219                 8.4235

                     64                     65                     66
                      A                      A                      A
 Frequencies --   1286.8556              1301.4654              1308.8462
 Red. masses --      1.2389                 2.7959                 1.6501
 Frc consts  --      1.2088                 2.7902                 1.6655
 IR Inten    --      6.0069               122.3114               207.3839

                     67                     68                     69
                      A                      A                      A
 Frequencies --   1318.8120              1324.1130              1336.9763
 Red. masses --      1.2972                 1.2265                 1.2106
 Frc consts  --      1.3293                 1.2670                 1.2749
 IR Inten    --      1.5650                 4.6213                 5.1242

                     70                     71                     72
                      A                      A                      A
 Frequencies --   1348.8353              1358.9191              1361.6158
 Red. masses --      1.3872                 3.3970                 1.2747
 Frc consts  --      1.4870                 3.6960                 1.3924
 IR Inten    --      1.6338                 7.9540                 0.9315

                     73                     74                     75
                      A                      A                      A
 Frequencies --   1368.3467              1394.0883              1398.1746
 Red. masses --      1.3941                 1.8756                 2.3686
 Frc consts  --      1.5380                 2.1477                 2.7281
 IR Inten    --     10.2019               235.5060               238.5828

                     76                     77                     78
                      A                      A                      A
 Frequencies --   1413.8771              1463.3671              1496.2969
 Red. masses --      1.7799                 2.9919                 1.4963
 Frc consts  --      2.0963                 3.7749                 1.9738
 IR Inten    --     33.7492                 4.5628                56.8817

                     79                     80                     81
                      A                      A                      A
 Frequencies --   1499.9078              1500.3759              1515.8729
 Red. masses --      1.1578                 1.2800                 1.0522
 Frc consts  --      1.5346                 1.6976                 1.4245
 IR Inten    --      0.9172                 6.6231                 5.1786

                     82                     83                     84
                      A                      A                      A
 Frequencies --   1517.7814              1518.7622              1520.2907
 Red. masses --      1.1157                 1.0855                 1.0867
 Frc consts  --      1.5144                 1.4753                 1.4799
 IR Inten    --      4.1826                 2.1569                 1.0758

                     85                     86                     87
                      A                      A                      A
 Frequencies --   1521.3658              1526.9253              1534.4664
 Red. masses --      1.0478                 1.0919                 1.0913
 Frc consts  --      1.4289                 1.4999                 1.5140
 IR Inten    --      5.5203                 2.3334                44.7496

                     88                     89                     90
                      A                      A                      A
 Frequencies --   1540.6323              1549.0443              1556.0183
 Red. masses --      1.0594                 1.1081                 2.4264
 Frc consts  --      1.4815                 1.5666                 3.4613
 IR Inten    --      3.4999                 4.3324                35.3659

                     91                     92                     93
                      A                      A                      A
 Frequencies --   1638.6130              1668.6438              1757.7046
 Red. masses --      7.4825                 5.9278                 8.0690
 Frc consts  --     11.8372                 9.7246                14.6880
 IR Inten    --      7.8260                93.8934               365.7013

                     94                     95                     96
                      A                      A                      A
 Frequencies --   3007.3051              3022.2062              3026.3225
 Red. masses --      1.0394                 1.0637                 1.0701
 Frc consts  --      5.5387                 5.7242                 5.7743
 IR Inten    --     49.1502                53.1375                22.7651

                     97                     98                     99
                      A                      A                      A
 Frequencies --   3032.4969              3049.1764              3059.9090
 Red. masses --      1.0341                 1.0669                 1.0634
 Frc consts  --      5.6031                 5.8446                 5.8665
 IR Inten    --     59.1859                30.6919                27.9157

                    100                    101                    102
                      A                      A                      A
 Frequencies --   3064.1181              3071.8446              3075.4994
 Red. masses --      1.1013                 1.0629                 1.0983
 Frc consts  --      6.0921                 5.9091                 6.1210
 IR Inten    --     46.2164                30.2964                22.4978

                    103                    104                    105
                      A                      A                      A
 Frequencies --   3093.9918              3095.7360              3102.2450
 Red. masses --      1.1069                 1.0973                 1.0900
 Frc consts  --      6.2433                 6.1961                 6.1803
 IR Inten    --     37.6294                14.8375                17.6996

                    106                    107                    108
                      A                      A                      A
 Frequencies --   3107.7333              3113.1341              3123.7365
 Red. masses --      1.1020                 1.0962                 1.1004
 Frc consts  --      6.2709                 6.2595                 6.3264
 IR Inten    --     18.0797                20.6576                66.8800

                    109                    110                    111
                      A                      A                      A
 Frequencies --   3142.2978              3162.5814              3218.4176
 Red. masses --      1.0991                 1.1006                 1.0875
 Frc consts  --      6.3942                 6.4860                 6.6371
 IR Inten    --     29.7765                24.0517                 3.2665

                    112                    113                    114
                      A                      A                      A
 Frequencies --   3232.7825              3252.8680              3563.3952
 Red. masses --      1.0935                 1.0884                 1.0748
 Frc consts  --      6.7330                 6.7853                 8.0407
 IR Inten    --     11.3684                 0.3238                15.8834

 - Thermochemistry -
 -------------------
 Temperature   298.150 Kelvin.  Pressure   1.00000 Atm.
 Atom     1 has atomic number  6 and mass  12.00000

 Molecular mass:   263.15214 amu.
 Principal axes and moments of inertia in atomic units:
                           1         2         3
     Eigenvalues --  3612.944377800.761409525.02846
           X            0.99989   0.01372  -0.00529
           Y           -0.01351   0.99918   0.03825
           Z            0.00581  -0.03818   0.99925
 This molecule is an asymmetric top.
 Rotational symmetry number  1.
 Warning -- assumption of classical behavior for rotation
           may cause significant error
 Rotational temperatures (Kelvin)      0.02397     0.01110     0.00909
 Rotational constants (GHZ):           0.49952     0.23135     0.18947
 Zero-point vibrational energy     906826.4 (Joules/Mol)
                                  216.73671 (Kcal/Mol)
 Warning -- explicit consideration of  29 degrees of freedom as
           vibrations may cause significant error
 Vibrational temperatures:     24.77    54.52    60.71    81.53    92.65
          (Kelvin)            121.64   131.79   139.58   199.33   215.43
                              246.14   272.23   293.69   340.49   363.82
                              423.81   453.78   476.94   511.36   521.11
                              544.30   641.01   661.28   703.57   763.11
                              799.37   831.70   862.08   892.48   915.41
                              976.59  1045.39  1050.13  1114.89  1144.71
                             1156.00  1207.26  1228.96  1275.65  1305.77
                             1347.02  1358.41  1379.88  1382.15  1387.79
                             1411.25  1473.97  1501.06  1510.21  1546.05
                             1584.60  1612.86  1634.00  1663.56  1693.51
                             1706.50  1717.29  1744.48  1745.17  1758.94
                             1761.70  1775.47  1796.04  1851.50  1872.52
                             1883.14  1897.48  1905.10  1923.61  1940.67
                             1955.18  1959.06  1968.75  2005.78  2011.66
                             2034.25  2105.46  2152.84  2158.03  2158.71
                             2181.00  2183.75  2185.16  2187.36  2188.91
                             2196.90  2207.75  2216.63  2228.73  2238.76
                             2357.60  2400.81  2528.94  4326.84  4348.28
                             4354.20  4363.09  4387.08  4402.53  4408.58
                             4419.70  4424.96  4451.56  4454.07  4463.44
                             4471.34  4479.11  4494.36  4521.07  4550.25
                             4630.59  4651.25  4680.15  5126.93

 Zero-point correction=                           0.345392 (Hartree/Particle)
 Thermal correction to Energy=                    0.364389
 Thermal correction to Enthalpy=                  0.365333
 Thermal correction to Gibbs Free Energy=         0.295850
 Sum of electronic and zero-point Energies=           -864.385933
 Sum of electronic and thermal Energies=              -864.366936
 Sum of electronic and thermal Enthalpies=            -864.365992
 Sum of electronic and thermal Free Energies=         -864.435476

                     E (Thermal)             CV                S
                      KCal/Mol        Cal/Mol-Kelvin    Cal/Mol-Kelvin
 Total                  228.658             70.586            146.241
 Electronic               0.000              0.000              0.000
 Translational            0.889              2.981             42.602
 Rotational               0.889              2.981             33.950
 Vibrational            226.880             64.624             69.688
 Vibration     1          0.593              1.986              6.932
 Vibration     2          0.594              1.982              5.366
 Vibration     3          0.595              1.980              5.153
 Vibration     4          0.596              1.975              4.570
 Vibration     5          0.597              1.971              4.318
 Vibration     6          0.601              1.960              3.782
 Vibration     7          0.602              1.955              3.626
 Vibration     8          0.603              1.951              3.514
 Vibration     9          0.614              1.915              2.824
 Vibration    10          0.618              1.903              2.676
 Vibration    11          0.626              1.878              2.424
 Vibration    12          0.633              1.855              2.236
 Vibration    13          0.640              1.834              2.096
 Vibration    14          0.656              1.785              1.828
 Vibration    15          0.664              1.758              1.711
 Vibration    16          0.689              1.684              1.448
 Vibration    17          0.703              1.644              1.334
 Vibration    18          0.714              1.613              1.253
 Vibration    19          0.731              1.564              1.142
 Vibration    20          0.736              1.550              1.113
 Vibration    21          0.749              1.516              1.046
 Vibration    22          0.805              1.371              0.809
 Vibration    23          0.818              1.340              0.767
 Vibration    24          0.845              1.274              0.686
 Vibration    25          0.885              1.183              0.586
 Vibration    26          0.911              1.127              0.533
 Vibration    27          0.935              1.079              0.489
 Vibration    28          0.957              1.034              0.451
 Vibration    29          0.980              0.989              0.416

 Optimization completed.
    -- Stationary point found.
 Normal termination of Gaussian 16 at Sat Dec 12 10:40:35 2020.

 ----------------------------------------------------------------------
 # B3LYP/6-311++G(d,p) empiricaldispersion=gd3bj scf=xqc pop=npa geom=c
 heck
 ----------------------------------------------------------------------

 ---------------------------------------
 CID_100410352_JID_9254_Energie_neutraal
 ---------------------------------------
 Structure from the checkpoint file:  "JID_9254.chk"
 Charge =  0 Multiplicity = 1

 SCF Done:  E(RB3LYP) =  -864.973373203     A.U. after   15 cycles
 Normal termination of Gaussian 16 at Sat Dec 12 10:49:33 2020.

 ----------------------------------------------------------------------
 # B3LYP/6-311++G(d,p) empiricaldispersion=gd3bj scf=xqc pop=npa geom=c
 heck
 ----------------------------------------------------------------------

 -------------------------------------
 CID_100410352_JID_9254_Energie_kation
 -------------------------------------
 Structure from the checkpoint file:  "JID_9254.chk"
 Charge =  1 Multiplicity = 2

 SCF Done:  E(UB3LYP) =  -864.680607024     A.U. after   26 cycles
 Normal termination of Gaussian 16 at Sat Dec 12 11:11:04 2020.
 Gaussian 16:  ES64L-G16RevA.03 25-Dec-2016

 ----------------------------------------------------------------------
 # B3LYP/6-311++G(d,p) empiricaldispersion=gd3bj scf=xqc pop=npa geom=c
 heck
 ----------------------------------------------------------------------

 ------------------------------------
 CID_100410352_JID_9254_Energie_anion
 ------------------------------------
 Structure from the checkpoint file:  "JID_9254.chk"
 Charge = -1 Multiplicity = 2

                         Standard orientation:
 ---------------------------------------------------------------------
 Center     Atomic      Atomic             Coordinates (Angstroms)
 Number     Number       Type             X           Y           Z
 ---------------------------------------------------------------------
      1          6           0       -1.196325    2.889238    1.922487
      2          8           0       -0.942466    2.820363    0.529678
      3          6           0       -1.913724    2.062870   -0.171102
      4          6           0       -1.696869    0.565671   -0.060898
      5          6           0       -2.707330   -0.329407   -0.457642
      6          6           0       -2.508134   -1.711473   -0.359851
      7          6           0       -1.296046   -2.202365    0.120795
      8          6           0       -0.267722   -1.331186    0.485951
      9          6           0       -0.493856    0.049320    0.400941
     10          6           0        0.995707   -1.915457    1.031846
     11          8           0        0.989528   -2.973852    1.657420
     12          7           0        2.165578   -1.210875    0.854803
     13          6           0        2.521180   -0.294232   -0.223387
     14          6           0        2.922621    1.132243    0.246059
     15          6           0        4.042311    1.603739   -0.721572
     16          6           0        4.161602    0.493339   -1.791472
     17          6           0        3.726814   -0.775085   -1.050714
     18          8           0       -3.850406    0.253224   -0.924974
     19          6           0       -4.925399   -0.590398   -1.308324
     20          1           0       -0.398874    3.494319    2.360624
     21          1           0       -1.193606    1.896308    2.392935
     22          1           0       -2.165890    3.369834    2.124145
     23          1           0       -2.927997    2.322975    0.165577
     24          1           0       -1.838770    2.373397   -1.220190
     25          1           0       -3.287457   -2.405786   -0.650595
     26          1           0       -1.135403   -3.270366    0.221720
     27          1           0        0.265031    0.749643    0.723339
     28          1           0        2.945101   -1.689886    1.293692
     29          1           0        1.658900   -0.225458   -0.890382
     30          1           0        2.060664    1.807113    0.243006
     31          1           0        3.283005    1.081812    1.278890
     32          1           0        4.990740    1.701554   -0.181537
     33          1           0        3.829005    2.580718   -1.165658
     34          1           0        5.166011    0.420993   -2.220423
     35          1           0        3.467660    0.688646   -2.619224
     36          1           0        4.526797   -1.108059   -0.372934
     37          1           0        3.475719   -1.615412   -1.705705
     38          1           0       -5.727256    0.075129   -1.631672
     39          1           0       -4.640333   -1.248746   -2.138674
     40          1           0       -5.274303   -1.201383   -0.466253
 ---------------------------------------------------------------------

 SCF Done:  E(UB3LYP) =  -864.963852841     A.U. after   33 cycles
 SCF Done:  E(UB3LYP) =  -864.963852841     a.u. after    1 cycles

 The electronic state is 2-A.
 Alpha  occ. eigenvalues --  -19.06604 -19.04374 -18.98204 -14.23416 -10.16830
 Alpha  occ. eigenvalues --  -10.14195 -10.13313 -10.13122 -10.12859 -10.12027
 Alpha  occ. eigenvalues --  -10.08705 -10.08351 -10.08219 -10.08137 -10.08081
 Alpha  occ. eigenvalues --  -10.08073 -10.07994 -10.07916 -10.07621  -0.98190
 Alpha  occ. eigenvalues --   -0.95522  -0.93357  -0.82692  -0.76729  -0.74133
 Alpha  occ. eigenvalues --   -0.68873  -0.66589  -0.63250  -0.62735  -0.62228
 Alpha  occ. eigenvalues --   -0.61028  -0.56378  -0.53285  -0.50928  -0.50131
 Alpha  occ. eigenvalues --   -0.48669  -0.47020  -0.44601  -0.42329  -0.41409
 Alpha  occ. eigenvalues --   -0.40545  -0.39785  -0.39239  -0.37987  -0.37510
 Alpha  occ. eigenvalues --   -0.36981  -0.35440  -0.34136  -0.33453  -0.33151
 Alpha  occ. eigenvalues --   -0.32959  -0.32064  -0.31273  -0.30678  -0.29546
 Alpha  occ. eigenvalues --   -0.28164  -0.28077  -0.27714  -0.26278  -0.25871
 Alpha  occ. eigenvalues --   -0.25467  -0.25065  -0.24471  -0.23594  -0.23544
 Alpha  occ. eigenvalues --   -0.22882  -0.18301  -0.16459  -0.16213  -0.15058
 Alpha  occ. eigenvalues --   -0.13290   0.03859
 Alpha virt. eigenvalues --    0.05151   0.05821   0.06461   0.06981   0.07572
 Alpha virt. eigenvalues --    0.07742   0.08068   0.08388   0.09091   0.09424
 Alpha virt. eigenvalues --    0.10112   0.10301   0.10415   0.10553   0.11082

  Beta  occ. eigenvalues --  -19.06577 -19.04373 -18.98145 -14.23407 -10.16775
  Beta  occ. eigenvalues --  -10.14108 -10.13307 -10.13071 -10.12842 -10.12021
  Beta  occ. eigenvalues --  -10.08723 -10.08340 -10.08202 -10.08136 -10.08047
  Beta  occ. eigenvalues --  -10.08038 -10.07977 -10.07880 -10.07611  -0.98122
  Beta  occ. eigenvalues --   -0.95519  -0.93246  -0.82646  -0.76657  -0.74105
  Beta  occ. eigenvalues --   -0.68814  -0.66494  -0.63201  -0.62702  -0.62179
  Beta  occ. eigenvalues --   -0.60953  -0.56329  -0.53149  -0.50873  -0.50087
  Beta  occ. eigenvalues --   -0.48618  -0.46966  -0.44552  -0.42270  -0.41366
  Beta  occ. eigenvalues --   -0.40506  -0.39759  -0.39208  -0.37890  -0.37459
  Beta  occ. eigenvalues --   -0.36953  -0.35394  -0.34075  -0.33416  -0.33110
  Beta  occ. eigenvalues --   -0.32845  -0.31997  -0.31186  -0.30608  -0.29511
  Beta  occ. eigenvalues --   -0.28108  -0.27952  -0.27664  -0.26187  -0.25785
  Beta  occ. eigenvalues --   -0.25435  -0.25027  -0.24430  -0.23562  -0.23507
  Beta  occ. eigenvalues --   -0.22717  -0.18291  -0.16374  -0.16050  -0.14934
  Beta  occ. eigenvalues --   -0.13020
  Beta virt. eigenvalues --    0.05745   0.06251   0.06561   0.06829   0.07146
  Beta virt. eigenvalues --    0.07752   0.08157   0.08215   0.08667   0.09386
  Beta virt. eigenvalues --    0.09920   0.10063   0.10439   0.10581   0.10706

 Mulliken charges and spin densities:
               1          2
     1  C   -0.008135  -0.306092
     2  O   -0.089685   0.005578
     3  C   -0.187104  -0.097342
     4  C    0.615907  -0.171276
     5  C   -0.900596   0.414066
     6  C    0.060251  -0.038178
     7  C    0.017512  -0.140053
     8  C    0.360847  -0.014292
     9  C   -0.291865  -0.025905
    10  C   -0.070881  -0.156879
    11  O   -0.351808   0.021865
    12  N    0.012693  -0.004843
    13  C   -0.327929   0.138586
    14  C   -0.273139   0.085062
    15  C    0.298907  -0.756038
    16  C   -0.168562  -0.122795
    17  C   -0.121739  -0.294632
    18  O   -0.211773   0.065325
    19  C    1.016531  -1.317803
    20  H    0.006915   0.139313
    21  H    0.074019   0.076144
    22  H   -0.036970   0.166420
    23  H    0.191337  -0.015862
    24  H    0.030141   0.193139
    25  H   -0.063234   0.240262
    26  H    0.118688   0.087615
    27  H    0.030710  -0.044604
    28  H    0.274595   0.016164
    29  H    0.183899  -0.001607
    30  H    0.349180  -0.270544
    31  H   -0.045580   0.243094
    32  H   -0.064023   0.197134
    33  H   -0.107924   0.270374
    34  H   -0.275483   0.447108
    35  H    0.082431   0.046318
    36  H   -0.027207   0.149901
    37  H    0.059464   0.118246
    38  H   -0.647701   0.830590
    39  H   -0.350088   0.509888
    40  H   -0.162600   0.316555
 Sum of Mulliken charges =  -1.00000   1.00000

 Dipole moment (field-independent basis, Debye):
    X=              2.8108    Y=              1.9026    Z=              1.3022  Tot=              3.6354
 Quadrupole moment (field-independent basis, Debye-Ang):
   XX=           -221.4561   YY=           -162.3042   ZZ=           -151.6490
   XY=             -6.0608   XZ=            -10.2471   YZ=              8.0432

 Summary of Natural Population Analysis:

                                       Natural Population
                Natural  -----------------------------------------------
    Atom  No    Charge         Core      Valence    Rydberg      Total
 -----------------------------------------------------------------------
      C    1   -0.10016      0.99962     2.09239    0.00816     3.10016
      O    2   -0.29785      0.99989     3.28882    0.00913     4.29785
      C    3   -0.01160      0.99954     2.00049    0.01157     3.01160
      C    4   -0.05783      0.99946     2.04836    0.01001     3.05783
      C    5    0.18315      0.99935     1.80480    0.01271     2.81685
      C    6   -0.14754      0.99953     2.13937    0.00864     3.14754
      C    7   -0.06335      0.99954     2.05485    0.00896     3.06335
      C    8   -0.07637      0.99946     2.06780    0.00911     3.07637
      C    9   -0.08468      0.99949     2.07747    0.00772     3.08468
      C   10    0.34617      0.99962     1.63237    0.02184     2.65383
      O   11   -0.32239      0.99988     3.31725    0.00526     4.32239
      N   12   -0.31833      0.99966     2.80918    0.00949     3.81833
      C   13   -0.01593      0.99957     2.00426    0.01210     3.01593
      C   14   -0.19849      0.99962     2.19021    0.00866     3.19849
      C   15   -0.19345      0.99965     2.18619    0.00761     3.19345
      C   16   -0.19280      0.99964     2.18511    0.00805     3.19280
      C   17   -0.19058      0.99962     2.18253    0.00843     3.19058
      O   18   -0.27307      0.99986     3.26291    0.01030     4.27307
      C   19   -0.10019      0.99960     2.09149    0.00911     3.10019
      H   20    0.08950      0.00000     0.40942    0.00108     0.41050
      H   21    0.08449      0.00000     0.41435    0.00116     0.41551
      H   22    0.07753      0.00000     0.42094    0.00153     0.42247
      H   23    0.08932      0.00000     0.40868    0.00200     0.41068
      H   24    0.09727      0.00000     0.40109    0.00164     0.40273
      H   25    0.10636      0.00000     0.39254    0.00111     0.39364
      H   26    0.10895      0.00000     0.39002    0.00103     0.39105
      H   27    0.10808      0.00000     0.38907    0.00285     0.39192
      H   28    0.18881      0.00000     0.30854    0.00265     0.31119
      H   29    0.10477      0.00000     0.39345    0.00178     0.39523
      H   30    0.10431      0.00000     0.39423    0.00145     0.39569
      H   31    0.10005      0.00000     0.39867    0.00128     0.39995
      H   32    0.09688      0.00000     0.40182    0.00129     0.40312
      H   33    0.09931      0.00000     0.39976    0.00094     0.40069
      H   34    0.10140      0.00000     0.39739    0.00121     0.39860
      H   35    0.09460      0.00000     0.40429    0.00112     0.40540
      H   36    0.09321      0.00000     0.40551    0.00128     0.40679
      H   37    0.10280      0.00000     0.39638    0.00082     0.39720
      H   38    0.09617      0.00000     0.40212    0.00171     0.40383
      H   39    0.08711      0.00000     0.41044    0.00245     0.41289
      H   40    0.08434      0.00000     0.41407    0.00158     0.41566
 =======================================================================
   * Total *   -0.00000     18.99257    51.78862    0.21881    71.00000

 Normal termination of Gaussian 16 at Sat Dec 12 11:37:50 2020.
