 Gaussian 16, Revision A.03,

 -----------------------------------------------------------
 # opt freq B3LYP/6-31G(d) empiricaldispersion=gd3bj scf=xqc
 -----------------------------------------------------------

 ------------------------------
 CID_70289101_JID_2132_neutraal
 ------------------------------
 Symbolic Z-matrix:
 Charge =  0 Multiplicity = 1

 SCF Done:  E(RB3LYP) =  -572.006845402     A.U. after   15 cycles
 SCF Done:  E(RB3LYP) =  -572.010632929     A.U. after   12 cycles
 SCF Done:  E(RB3LYP) =  -572.011154551     A.U. after   11 cycles
 SCF Done:  E(RB3LYP) =  -572.011611324     A.U. after   12 cycles
 SCF Done:  E(RB3LYP) =  -572.011995311     A.U. after   12 cycles
 SCF Done:  E(RB3LYP) =  -572.012290108     A.U. after   12 cycles
 SCF Done:  E(RB3LYP) =  -572.012633423     A.U. after   11 cycles
 SCF Done:  E(RB3LYP) =  -572.012669280     A.U. after   11 cycles
 SCF Done:  E(RB3LYP) =  -572.012682664     A.U. after   10 cycles
 SCF Done:  E(RB3LYP) =  -572.012691261     A.U. after   10 cycles
 SCF Done:  E(RB3LYP) =  -572.012696531     A.U. after    8 cycles
 SCF Done:  E(RB3LYP) =  -572.012697360     A.U. after    8 cycles
 SCF Done:  E(RB3LYP) =  -572.012697608     A.U. after    8 cycles
 SCF Done:  E(RB3LYP) =  -572.012697849     A.U. after    8 cycles
 SCF Done:  E(RB3LYP) =  -572.012697926     A.U. after    7 cycles
 Optimization completed.
    -- Stationary point found.
 Normal termination of Gaussian 16 at Wed Dec  9 16:51:52 2020.

 --------------------------------------------------------------------
 #N Geom=AllCheck Guess=TCheck SCRF=Check GenChk RB3LYP/6-31G(d) Freq
 --------------------------------------------------------------------

 Structure from the checkpoint file:  "JID_2132.chk"
 ------------------------------
 CID_70289101_JID_2132_neutraal
 ------------------------------
 Charge =  0 Multiplicity = 1

 SCF Done:  E(RB3LYP) =  -572.012697926     A.U. after    1 cycles

  Exact polarizability: 135.186  -1.731  99.665  -8.760   4.286  72.106
 Approx polarizability: 198.158  -6.710 149.590 -19.837   8.479 105.682

                      1                      2                      3
                      A                      A                      A
 Frequencies --     44.4021                60.4895                77.2119
 Red. masses --      4.8465                 6.1055                 2.7578
 Frc consts  --      0.0056                 0.0132                 0.0097
 IR Inten    --      1.0929                 0.7077                 1.9161

                      4                      5                      6
                      A                      A                      A
 Frequencies --    112.3023               134.1115               158.5150
 Red. masses --      1.1409                 2.9654                 2.3424
 Frc consts  --      0.0085                 0.0314                 0.0347
 IR Inten    --      0.0811                 0.6235                 0.2321

                      7                      8                      9
                      A                      A                      A
 Frequencies --    223.9595               242.9508               284.4683
 Red. masses --      1.1635                 2.8435                 1.1902
 Frc consts  --      0.0344                 0.0989                 0.0567
 IR Inten    --      0.5426                 5.0141                97.3132

                     10                     11                     12
                      A                      A                      A
 Frequencies --    287.8963               319.0435               360.2373
 Red. masses --      3.0696                 3.6462                 5.3888
 Frc consts  --      0.1499                 0.2187                 0.4120
 IR Inten    --     24.4292                11.3293                 9.0741

                     13                     14                     15
                      A                      A                      A
 Frequencies --    386.4581               485.3298               506.2154
 Red. masses --      5.3102                 3.1019                 3.2404
 Frc consts  --      0.4673                 0.4305                 0.4892
 IR Inten    --      6.5851                 4.7075                 4.4817

                     16                     17                     18
                      A                      A                      A
 Frequencies --    519.0482               552.1758               555.1504
 Red. masses --      3.2533                 2.1770                 3.9625
 Frc consts  --      0.5164                 0.3911                 0.7195
 IR Inten    --     13.7911                51.6416                 1.1688

                     19                     20                     21
                      A                      A                      A
 Frequencies --    586.2300               639.0547               660.9526
 Red. masses --      3.6523                 1.9974                 2.6671
 Frc consts  --      0.7395                 0.4806                 0.6865
 IR Inten    --      1.3411                76.4601                 5.5901

                     22                     23                     24
                      A                      A                      A
 Frequencies --    705.8934               726.3453               767.6495
 Red. masses --      2.0736                 1.8333                 1.6781
 Frc consts  --      0.6088                 0.5698                 0.5826
 IR Inten    --     10.0154                 3.0461                47.8978

                     25                     26                     27
                      A                      A                      A
 Frequencies --    800.5870               885.3261               939.7405
 Red. masses --      3.6190                 3.5415                 3.0520
 Frc consts  --      1.3666                 1.6355                 1.5880
 IR Inten    --      6.7811                 5.4553                18.1603

                     28                     29                     30
                      A                      A                      A
 Frequencies --   1018.3526              1036.3513              1051.4869
 Red. masses --      1.9393                 1.5657                 1.8385
 Frc consts  --      1.1849                 0.9908                 1.1976
 IR Inten    --      8.7194                 8.8720                 3.5966

                     31                     32                     33
                      A                      A                      A
 Frequencies --   1066.2367              1070.4075              1076.7571
 Red. masses --      1.7248                 1.7468                 1.5397
 Frc consts  --      1.1553                 1.1792                 1.0518
 IR Inten    --      4.9785                12.5685                 3.3480

                     34                     35                     36
                      A                      A                      A
 Frequencies --   1132.0565              1220.1210              1224.7158
 Red. masses --      3.0492                 1.6610                 1.5752
 Frc consts  --      2.3024                 1.4569                 1.3921
 IR Inten    --     20.5995                15.6389               103.9921

                     37                     38                     39
                      A                      A                      A
 Frequencies --   1248.5658              1285.5030              1300.7220
 Red. masses --      1.7685                 1.5897                 3.7463
 Frc consts  --      1.6244                 1.5478                 3.7344
 IR Inten    --     65.7081                27.0231                87.5132

                     40                     41                     42
                      A                      A                      A
 Frequencies --   1345.5868              1361.7330              1425.9909
 Red. masses --      2.0323                 1.5847                 1.7870
 Frc consts  --      2.1680                 1.7314                 2.1410
 IR Inten    --    184.7335                28.4047               114.4419

                     43                     44                     45
                      A                      A                      A
 Frequencies --   1426.8718              1447.5013              1458.9336
 Red. masses --      1.6699                 1.2998                 2.0292
 Frc consts  --      2.0031                 1.6046                 2.5447
 IR Inten    --     81.8491                10.0876                12.9686

                     46                     47                     48
                      A                      A                      A
 Frequencies --   1487.9754              1493.4887              1501.7206
 Red. masses --      1.4053                 1.1848                 1.0601
 Frc consts  --      1.8331                 1.5570                 1.4085
 IR Inten    --     39.6232                 4.6159                 5.4234

                     49                     50                     51
                      A                      A                      A
 Frequencies --   1507.1592              1516.1593              1551.0750
 Red. masses --      1.0474                 1.1859                 1.1388
 Frc consts  --      1.4017                 1.6062                 1.6142
 IR Inten    --     12.1182                10.9825                 0.5147

                     52                     53                     54
                      A                      A                      A
 Frequencies --   1678.6221              1756.6284              1816.4284
 Red. masses --      6.2872                 6.0961                 8.5225
 Frc consts  --     10.4379                11.0831                16.5674
 IR Inten    --     90.5291                96.8484               346.5533

                     55                     56                     57
                      A                      A                      A
 Frequencies --   2861.8801              3057.2809              3071.0780
 Red. masses --      1.0753                 1.0375                 1.0806
 Frc consts  --      5.1889                 5.7138                 6.0046
 IR Inten    --    143.0468                20.7793                25.7489

                     58                     59                     60
                      A                      A                      A
 Frequencies --   3072.8751              3108.6722              3133.5685
 Red. masses --      1.0415                 1.1000                 1.1000
 Frc consts  --      5.7945                 6.2629                 6.3638
 IR Inten    --      7.3115                13.3733                 7.4226

                     61                     62                     63
                      A                      A                      A
 Frequencies --   3150.4639              3181.5776              3200.9681
 Red. masses --      1.1014                 1.1033                 1.0911
 Frc consts  --      6.4411                 6.5801                 6.5869
 IR Inten    --     17.4251                12.8937                 9.9293

                     64                     65                     66
                      A                      A                      A
 Frequencies --   3228.1045              3468.4916              3758.7706
 Red. masses --      1.0915                 1.0754                 1.0662
 Frc consts  --      6.7012                 7.6223                 8.8751
 IR Inten    --      4.0780                14.9225                36.5883

 - Thermochemistry -
 -------------------
 Temperature   298.150 Kelvin.  Pressure   1.00000 Atm.
 Atom     1 has atomic number  6 and mass  12.00000

 Molecular mass:   168.08988 amu.
 Principal axes and moments of inertia in atomic units:
                           1         2         3
     Eigenvalues --   961.485663249.054883683.86912
           X            0.99995  -0.00415   0.00856
           Y            0.00412   0.99998   0.00369
           Z           -0.00858  -0.00365   0.99996
 This molecule is an asymmetric top.
 Rotational symmetry number  1.
 Warning -- assumption of classical behavior for rotation
           may cause significant error
 Rotational temperatures (Kelvin)      0.09008     0.02666     0.02351
 Rotational constants (GHZ):           1.87703     0.55547     0.48990
 Zero-point vibrational energy     519314.6 (Joules/Mol)
                                  124.11918 (Kcal/Mol)
 Warning -- explicit consideration of  19 degrees of freedom as
           vibrations may cause significant error
 Vibrational temperatures:     63.88    87.03   111.09   161.58   192.96
          (Kelvin)            228.07   322.23   349.55   409.29   414.22
                              459.03   518.30   556.03   698.28   728.33
                              746.79   794.46   798.74   843.45   919.46
                              950.96  1015.62  1045.05  1104.48  1151.87
                             1273.79  1352.08  1465.18  1491.08  1512.86
                             1534.08  1540.08  1549.21  1628.78  1755.48
                             1762.09  1796.41  1849.55  1871.45  1936.00
                             1959.23  2051.68  2052.95  2082.63  2099.08
                             2140.86  2148.80  2160.64  2168.47  2181.42
                             2231.65  2415.16  2527.40  2613.44  4117.61
                             4398.75  4418.60  4421.18  4472.69  4508.51
                             4532.81  4577.58  4605.48  4644.52  4990.39
                             5408.03

 Zero-point correction=                           0.197796 (Hartree/Particle)
 Thermal correction to Energy=                    0.210351
 Thermal correction to Enthalpy=                  0.211295
 Thermal correction to Gibbs Free Energy=         0.158670
 Sum of electronic and zero-point Energies=           -571.814901
 Sum of electronic and thermal Energies=              -571.802347
 Sum of electronic and thermal Enthalpies=            -571.801403
 Sum of electronic and thermal Free Energies=         -571.854028

                     E (Thermal)             CV                S
                      KCal/Mol        Cal/Mol-Kelvin    Cal/Mol-Kelvin
 Total                  131.997             46.325            110.759
 Electronic               0.000              0.000              0.000
 Translational            0.889              2.981             41.266
 Rotational               0.889              2.981             30.821
 Vibrational            130.220             40.364             38.672
 Vibration     1          0.595              1.980              5.052
 Vibration     2          0.597              1.973              4.441
 Vibration     3          0.599              1.964              3.961
 Vibration     4          0.607              1.939              3.229
 Vibration     5          0.613              1.919              2.886
 Vibration     6          0.621              1.893              2.567
 Vibration     7          0.649              1.805              1.927
 Vibration     8          0.659              1.774              1.781
 Vibration     9          0.683              1.702              1.507
 Vibration    10          0.685              1.696              1.486
 Vibration    11          0.705              1.637              1.315
 Vibration    12          0.735              1.554              1.121
 Vibration    13          0.755              1.499              1.014
 Vibration    14          0.841              1.283              0.696
 Vibration    15          0.861              1.236              0.643
 Vibration    16          0.874              1.208              0.612
 Vibration    17          0.908              1.135              0.540
 Vibration    18          0.911              1.128              0.534
 Vibration    19          0.943              1.061              0.474

                           ! Non-Optimized Parameters !
 Normal termination of Gaussian 16 at Wed Dec  9 16:57:16 2020.

 ----------------------------------------------------------------------
 # B3LYP/6-311++G(d,p) empiricaldispersion=gd3bj scf=xqc pop=npa geom=c
 heck
 ----------------------------------------------------------------------

 --------------------------------------
 CID_70289101_JID_2132_Energie_neutraal
 --------------------------------------
 Structure from the checkpoint file:  "JID_2132.chk"
 Charge =  0 Multiplicity = 1

 SCF Done:  E(RB3LYP) =  -572.189409892     A.U. after   16 cycles
 Normal termination of Gaussian 16 at Wed Dec  9 16:59:53 2020.

 ----------------------------------------------------------------------
 # B3LYP/6-311++G(d,p) empiricaldispersion=gd3bj scf=xqc pop=npa geom=c
 heck
 ----------------------------------------------------------------------

 ------------------------------------
 CID_70289101_JID_2132_Energie_kation
 ------------------------------------
 Structure from the checkpoint file:  "JID_2132.chk"
 Charge =  1 Multiplicity = 2

 SCF Done:  E(UB3LYP) =  -571.920482318     A.U. after   22 cycles
 Normal termination of Gaussian 16 at Wed Dec  9 17:04:17 2020.
 Gaussian 16:  ES64L-G16RevA.03 25-Dec-2016

 ----------------------------------------------------------------------
 # B3LYP/6-311++G(d,p) empiricaldispersion=gd3bj scf=xqc pop=npa geom=c
 heck
 ----------------------------------------------------------------------

 -----------------------------------
 CID_70289101_JID_2132_Energie_anion
 -----------------------------------
 Structure from the checkpoint file:  "JID_2132.chk"
 Charge = -1 Multiplicity = 2

                         Standard orientation:
 ---------------------------------------------------------------------
 Center     Atomic      Atomic             Coordinates (Angstroms)
 Number     Number       Type             X           Y           Z
 ---------------------------------------------------------------------
      1          6           0        0.161562    2.425205   -0.071263
      2          6           0       -0.549932    1.107906   -0.130442
      3          6           0       -1.886546    0.975239    0.042953
      4          6           0       -2.484151   -0.350736    0.081782
      5          6           0       -1.776347   -1.437339   -0.274079
      6          6           0       -0.395077   -1.258329   -0.839546
      7          7           0        0.230707   -0.041630   -0.293721
      8          7           0        1.553120    0.132783   -0.670542
      9          6           0        2.602456   -0.302139    0.125849
     10          8           0        3.725866   -0.387087   -0.339130
     11          6           0        2.251487   -0.599258    1.569238
     12          8           0       -3.779694   -0.478007    0.511095
     13          1           0        0.695137    2.641926   -1.003210
     14          1           0        0.911821    2.433774    0.727672
     15          1           0       -0.556513    3.226549    0.117277
     16          1           0       -2.498440    1.856560    0.206597
     17          1           0       -2.205118   -2.430942   -0.217637
     18          1           0       -0.392983   -1.203858   -1.950952
     19          1           0        0.252505   -2.099821   -0.570422
     20          1           0        1.757117    0.158816   -1.669928
     21          1           0        1.802686    0.274387    2.052517
     22          1           0        1.519427   -1.410172    1.637015
     23          1           0        3.167539   -0.881031    2.089263
     24          1           0       -4.050051    0.353197    0.928983
 ---------------------------------------------------------------------

 SCF Done:  E(UB3LYP) =  -572.179981294     A.U. after   33 cycles
 SCF Done:  E(UB3LYP) =  -572.179981294     a.u. after    1 cycles

 The electronic state is 2-A.
 Alpha  occ. eigenvalues --  -19.04184 -19.00403 -14.26988 -14.26962 -10.18740
 Alpha  occ. eigenvalues --  -10.12483 -10.11724 -10.11456 -10.08039 -10.06948
 Alpha  occ. eigenvalues --  -10.05376 -10.04885  -0.96212  -0.95109  -0.91648
 Alpha  occ. eigenvalues --   -0.77202  -0.68747  -0.67464  -0.64635  -0.60114
 Alpha  occ. eigenvalues --   -0.56493  -0.51374  -0.48839  -0.45552  -0.43964
 Alpha  occ. eigenvalues --   -0.40898  -0.39291  -0.36445  -0.35509  -0.34229
 Alpha  occ. eigenvalues --   -0.32890  -0.31869  -0.31583  -0.31068  -0.30582
 Alpha  occ. eigenvalues --   -0.30004  -0.28703  -0.28120  -0.27433  -0.24121
 Alpha  occ. eigenvalues --   -0.21812  -0.18206  -0.17273  -0.14965  -0.08636
 Alpha  occ. eigenvalues --    0.04378
 Alpha virt. eigenvalues --    0.06800   0.07707   0.07806   0.08105   0.09278
 Alpha virt. eigenvalues --    0.09744   0.10416   0.11042   0.11190   0.11685
 Alpha virt. eigenvalues --    0.12691   0.13067   0.14538   0.14952   0.15414

  Beta  occ. eigenvalues --  -19.04138 -19.00399 -14.26986 -14.26944 -10.18741
  Beta  occ. eigenvalues --  -10.12484 -10.11679 -10.11435 -10.08006 -10.06907
  Beta  occ. eigenvalues --  -10.05332 -10.04861  -0.96199  -0.95017  -0.91628
  Beta  occ. eigenvalues --   -0.77154  -0.68676  -0.67415  -0.64586  -0.60037
  Beta  occ. eigenvalues --   -0.56428  -0.51307  -0.48768  -0.45483  -0.43878
  Beta  occ. eigenvalues --   -0.40853  -0.39261  -0.36391  -0.35462  -0.34164
  Beta  occ. eigenvalues --   -0.32859  -0.31779  -0.31525  -0.31031  -0.30511
  Beta  occ. eigenvalues --   -0.29950  -0.28659  -0.28067  -0.27405  -0.24068
  Beta  occ. eigenvalues --   -0.21713  -0.18186  -0.17245  -0.14889  -0.08512
  Beta virt. eigenvalues --    0.06767   0.08094   0.08159   0.08402   0.08450
  Beta virt. eigenvalues --    0.09599   0.10049   0.10959   0.11259   0.11510
  Beta virt. eigenvalues --    0.12039   0.13013   0.13536   0.14623   0.15089

 Mulliken charges and spin densities:
               1          2
     1  C    3.206363  -3.765074
     2  C   -3.419930   3.222679
     3  C   -0.041112   0.250369
     4  C    0.969719  -1.602581
     5  C    0.990851  -0.813809
     6  C    0.194481  -0.688445
     7  N    0.369026   0.029188
     8  N   -0.505843   0.281090
     9  C   -0.258420   0.369788
    10  O   -0.328314   0.009404
    11  C    0.412215  -0.821250
    12  O   -0.263288   0.029360
    13  H   -0.126743   0.294412
    14  H   -0.185638   0.341649
    15  H   -0.490937   0.666348
    16  H   -1.046005   1.214329
    17  H    0.031345   0.150386
    18  H   -0.253456   0.363637
    19  H    0.129368   0.029273
    20  H   -0.017732   0.291840
    21  H   -0.086195   0.262007
    22  H    0.019497   0.137169
    23  H   -0.060900   0.237588
    24  H   -0.238351   0.510640
 Sum of Mulliken charges =  -1.00000   1.00000

 Dipole moment (field-independent basis, Debye):
    X=              2.8569    Y=             -4.2885    Z=             -1.0566  Tot=              5.2601
 Quadrupole moment (field-independent basis, Debye-Ang):
   XX=           -146.0051   YY=           -109.9929   ZZ=           -102.0122
   XY=              7.2920   XZ=              7.0958   YZ=             -4.2109

 Summary of Natural Population Analysis:

                                       Natural Population
                Natural  -----------------------------------------------
    Atom  No    Charge         Core      Valence    Rydberg      Total
 -----------------------------------------------------------------------
      C    1   -0.30056      0.99962     2.29479    0.00615     3.30056
      C    2    0.13431      0.99948     1.85306    0.01315     2.86569
      C    3   -0.17960      0.99944     2.16739    0.01276     3.17960
      C    4    0.16145      0.99935     1.82357    0.01563     2.83855
      C    5   -0.16356      0.99949     2.15363    0.01044     3.16356
      C    6   -0.08075      0.99961     2.07233    0.00881     3.08075
      N    7   -0.16676      0.99963     2.65213    0.01501     3.66676
      N    8   -0.23123      0.99966     2.71817    0.01340     3.73123
      C    9    0.34590      0.99970     1.63262    0.02178     2.65410
      O   10   -0.31670      0.99987     3.31048    0.00634     4.31670
      C   11   -0.33355      0.99962     2.32959    0.00435     3.33355
      O   12   -0.34279      0.99988     3.33588    0.00704     4.34279
      H   13    0.10708      0.00000     0.39137    0.00155     0.39292
      H   14    0.10963      0.00000     0.38819    0.00218     0.39037
      H   15    0.11034      0.00000     0.38796    0.00169     0.38966
      H   16    0.10919      0.00000     0.38739    0.00342     0.39081
      H   17    0.10148      0.00000     0.39767    0.00085     0.39852
      H   18    0.07891      0.00000     0.41893    0.00216     0.42109
      H   19    0.09458      0.00000     0.40349    0.00193     0.40542
      H   20    0.18599      0.00000     0.31051    0.00349     0.31401
      H   21    0.11573      0.00000     0.38263    0.00165     0.38427
      H   22    0.11379      0.00000     0.38506    0.00116     0.38621
      H   23    0.10866      0.00000     0.39031    0.00103     0.39134
      H   24    0.23847      0.00000     0.25413    0.00740     0.26153
 =======================================================================
   * Total *   -0.00000     11.99535    32.84126    0.16339    45.00000

 Normal termination of Gaussian 16 at Wed Dec  9 17:11:06 2020.
