 Gaussian 16, Revision A.03,

 -----------------------------------------------------------
 # opt freq B3LYP/6-31G(d) empiricaldispersion=gd3bj scf=xqc
 -----------------------------------------------------------

 -------------------------------
 CID_123625053_JID_2381_neutraal
 -------------------------------
 Symbolic Z-matrix:
 Charge =  0 Multiplicity = 1

 SCF Done:  E(RB3LYP) =  -830.670120659     A.U. after   13 cycles
 SCF Done:  E(RB3LYP) =  -830.672466649     A.U. after   10 cycles
 SCF Done:  E(RB3LYP) =  -830.672098286     A.U. after   11 cycles
 SCF Done:  E(RB3LYP) =  -830.673120123     A.U. after   11 cycles
 SCF Done:  E(RB3LYP) =  -830.673667059     A.U. after   10 cycles
 SCF Done:  E(RB3LYP) =  -830.673612146     A.U. after   10 cycles
 SCF Done:  E(RB3LYP) =  -830.673741952     A.U. after   10 cycles
 SCF Done:  E(RB3LYP) =  -830.673772784     A.U. after    9 cycles
 SCF Done:  E(RB3LYP) =  -830.673778294     A.U. after    8 cycles
 SCF Done:  E(RB3LYP) =  -830.673779254     A.U. after    7 cycles
 SCF Done:  E(RB3LYP) =  -830.673779587     A.U. after    6 cycles
 SCF Done:  E(RB3LYP) =  -830.673779682     A.U. after    6 cycles
 Optimization completed.
    -- Stationary point found.
 Normal termination of Gaussian 16 at Wed Dec  9 17:18:45 2020.

 --------------------------------------------------------------------
 #N Geom=AllCheck Guess=TCheck SCRF=Check GenChk RB3LYP/6-31G(d) Freq
 --------------------------------------------------------------------

 Structure from the checkpoint file:  "JID_2381.chk"
 -------------------------------
 CID_123625053_JID_2381_neutraal
 -------------------------------
 Charge =  0 Multiplicity = 1

 SCF Done:  E(RB3LYP) =  -830.673779682     A.U. after    1 cycles

  Exact polarizability: 146.735   2.763 120.655   3.478  -0.558 115.801
 Approx polarizability: 191.477   3.999 185.615   5.746  -0.780 176.340

                      1                      2                      3
                      A                      A                      A
 Frequencies --     68.2740               118.2176               134.4299
 Red. masses --      3.2104                 2.6296                 1.5377
 Frc consts  --      0.0088                 0.0217                 0.0164
 IR Inten    --      0.1650                 0.1616                 0.3749

                      4                      5                      6
                      A                      A                      A
 Frequencies --    162.2421               211.9319               260.0938
 Red. masses --      4.5499                 1.7085                 2.3442
 Frc consts  --      0.0706                 0.0452                 0.0934
 IR Inten    --      1.6326                 0.0305                 0.0781

                      7                      8                      9
                      A                      A                      A
 Frequencies --    273.5259               277.9614               284.7205
 Red. masses --      2.0885                 2.2204                 1.6434
 Frc consts  --      0.0921                 0.1011                 0.0785
 IR Inten    --      0.3396                 0.1396                 0.0447

                     10                     11                     12
                      A                      A                      A
 Frequencies --    313.5236               326.5664               343.2861
 Red. masses --      2.4121                 1.3091                 1.3573
 Frc consts  --      0.1397                 0.0823                 0.0942
 IR Inten    --      0.2068                 0.3710                 0.0588

                     13                     14                     15
                      A                      A                      A
 Frequencies --    350.3401               355.5341               386.8596
 Red. masses --      2.8216                 1.3832                 2.1693
 Frc consts  --      0.2040                 0.1030                 0.1913
 IR Inten    --      0.1509                 0.1342                 0.0745

                     16                     17                     18
                      A                      A                      A
 Frequencies --    389.1202               401.4932               433.7997
 Red. masses --      2.0280                 1.9415                 2.3577
 Frc consts  --      0.1809                 0.1844                 0.2614
 IR Inten    --      0.1474                 0.0362                 0.3392

                     19                     20                     21
                      A                      A                      A
 Frequencies --    470.5043               479.1399               504.1938
 Red. masses --      2.0643                 2.4222                 2.5394
 Frc consts  --      0.2693                 0.3276                 0.3803
 IR Inten    --      0.3475                 0.1746                 0.5433

                     22                     23                     24
                      A                      A                      A
 Frequencies --    562.0811               618.7980               673.6214
 Red. masses --      2.9334                 2.5973                 3.8514
 Frc consts  --      0.5460                 0.5860                 1.0297
 IR Inten    --      1.1221                 0.0530                 2.7207

                     25                     26                     27
                      A                      A                      A
 Frequencies --    752.3857               773.3262               792.0848
 Red. masses --      4.1942                 1.8382                 1.5276
 Frc consts  --      1.3989                 0.6477                 0.5647
 IR Inten    --      3.0447                 3.9339                 1.6556

                     28                     29                     30
                      A                      A                      A
 Frequencies --    825.4086               848.7215               879.0060
 Red. masses --      1.8215                 1.5371                 2.0991
 Frc consts  --      0.7312                 0.6524                 0.9556
 IR Inten    --      0.4593                 6.0426                 0.4868

                     31                     32                     33
                      A                      A                      A
 Frequencies --    912.7533               941.9673               956.8593
 Red. masses --      2.1723                 2.0710                 1.5837
 Frc consts  --      1.0663                 1.0827                 0.8543
 IR Inten    --      0.3685                 1.0625                 0.7525

                     34                     35                     36
                      A                      A                      A
 Frequencies --    968.5129               982.0937              1027.3560
 Red. masses --      1.7433                 1.6243                 1.5546
 Frc consts  --      0.9634                 0.9230                 0.9668
 IR Inten    --      7.4169                 1.7174                 0.3299

                     37                     38                     39
                      A                      A                      A
 Frequencies --   1037.8536              1044.3285              1059.9565
 Red. masses --      1.5222                 1.7928                 2.2372
 Frc consts  --      0.9660                 1.1520                 1.4809
 IR Inten    --      4.2033                 1.4872                 2.2983

                     40                     41                     42
                      A                      A                      A
 Frequencies --   1081.6116              1087.1845              1114.2022
 Red. masses --      1.9116                 1.6798                 1.6860
 Frc consts  --      1.3176                 1.1698                 1.2332
 IR Inten    --      1.3711                 3.0476                 2.9745

                     43                     44                     45
                      A                      A                      A
 Frequencies --   1136.2782              1150.5154              1191.4149
 Red. masses --      1.3854                 1.4384                 1.8635
 Frc consts  --      1.0539                 1.1218                 1.5585
 IR Inten    --      6.9224                 1.0865                 3.1205

                     46                     47                     48
                      A                      A                      A
 Frequencies --   1214.2026              1231.5724              1243.1979
 Red. masses --      2.2349                 1.9281                 1.7443
 Frc consts  --      1.9413                 1.7230                 1.5884
 IR Inten    --      2.0187                 5.7328                 1.9249

                     49                     50                     51
                      A                      A                      A
 Frequencies --   1267.6168              1289.9717              1328.7613
 Red. masses --      2.0848                 1.5157                 1.2530
 Frc consts  --      1.9737                 1.4861                 1.3034
 IR Inten    --      2.3327                 3.2682                17.3583

                     52                     53                     54
                      A                      A                      A
 Frequencies --   1336.7882              1348.3910              1358.3768
 Red. masses --      1.2801                 1.2762                 1.3628
 Frc consts  --      1.3477                 1.3671                 1.4816
 IR Inten    --      6.9954                 6.1866                 0.8325

                     55                     56                     57
                      A                      A                      A
 Frequencies --   1396.3542              1402.5192              1416.9374
 Red. masses --      1.4121                 1.3019                 1.3242
 Frc consts  --      1.6222                 1.5089                 1.5664
 IR Inten    --      1.2897                 2.2383                 1.1244

                     58                     59                     60
                      A                      A                      A
 Frequencies --   1430.9530              1443.7453              1446.7880
 Red. masses --      1.2344                 1.2225                 1.2119
 Frc consts  --      1.4892                 1.5014                 1.4946
 IR Inten    --      3.7506                 3.8144                 9.2900

                     61                     62                     63
                      A                      A                      A
 Frequencies --   1458.2477              1494.0905              1498.3817
 Red. masses --      1.2057                 1.0887                 1.0878
 Frc consts  --      1.5106                 1.4319                 1.4389
 IR Inten    --      6.3306                 3.6686                 4.1413

                     64                     65                     66
                      A                      A                      A
 Frequencies --   1509.9724              1511.8467              1516.8944
 Red. masses --      1.0587                 1.0670                 1.0570
 Frc consts  --      1.4222                 1.4370                 1.4329
 IR Inten    --      1.0335                 5.3568                 0.6334

                     67                     68                     69
                      A                      A                      A
 Frequencies --   1523.1407              1523.9740              1536.1880
 Red. masses --      1.0726                 1.0576                 1.0569
 Frc consts  --      1.4661                 1.4472                 1.4694
 IR Inten    --      7.4794                 0.0377                 7.3347

                     70                     71                     72
                      A                      A                      A
 Frequencies --   1540.9226              1543.5941              1545.7837
 Red. masses --      1.0651                 1.0568                 1.0524
 Frc consts  --      1.4900                 1.4836                 1.4816
 IR Inten    --     10.3129                 9.6732                 7.4046

                     73                     74                     75
                      A                      A                      A
 Frequencies --   1552.4115              1555.7375              3020.3489
 Red. masses --      1.0500                 1.0530                 1.0726
 Frc consts  --      1.4909                 1.5016                 5.7652
 IR Inten    --      7.7174                 0.6223                18.2399

                     76                     77                     78
                      A                      A                      A
 Frequencies --   3033.5614              3041.8072              3045.4613
 Red. masses --      1.0704                 1.0609                 1.0662
 Frc consts  --      5.8039                 5.7835                 5.8266
 IR Inten    --     28.2675                16.4721                60.7695

                     79                     80                     81
                      A                      A                      A
 Frequencies --   3051.3663              3053.8988              3056.3372
 Red. masses --      1.0449                 1.0571                 1.0445
 Frc consts  --      5.7322                 5.8084                 5.7485
 IR Inten    --     13.0696                13.6344                42.5381

                     82                     83                     84
                      A                      A                      A
 Frequencies --   3060.5794              3064.7768              3072.4689
 Red. masses --      1.0423                 1.0438                 1.0991
 Frc consts  --      5.7526                 5.7766                 6.1134
 IR Inten    --     13.6510                39.1080                35.9087

                     85                     86                     87
                      A                      A                      A
 Frequencies --   3102.1907              3107.8954              3112.5487
 Red. masses --      1.0904                 1.0947                 1.0994
 Frc consts  --      6.1825                 6.2300                 6.2754
 IR Inten    --     14.1154                28.6814                 4.5653

                     88                     89                     90
                      A                      A                      A
 Frequencies --   3115.9919              3118.0325              3118.8951
 Red. masses --      1.0983                 1.0992                 1.0982
 Frc consts  --      6.2829                 6.2961                 6.2942
 IR Inten    --     53.4765                16.6802                18.8290

                     91                     92                     93
                      A                      A                      A
 Frequencies --   3121.3247              3128.1600              3131.3331
 Red. masses --      1.0984                 1.1012                 1.0902
 Frc consts  --      6.3053                 6.3486                 6.2982
 IR Inten    --     83.7441                28.2377                32.7760

                     94                     95                     96
                      A                      A                      A
 Frequencies --   3143.5029              3154.4820              3178.9746
 Red. masses --      1.1013                 1.0979                 1.0962
 Frc consts  --      6.4119                 6.4370                 6.5268
 IR Inten    --     27.3973                28.4041                26.5382

 - Thermochemistry -
 -------------------
 Temperature   298.150 Kelvin.  Pressure   1.00000 Atm.
 Atom     1 has atomic number  6 and mass  12.00000

 Molecular mass:   186.14422 amu.
 Principal axes and moments of inertia in atomic units:
                           1         2         3
     Eigenvalues --  1369.197493209.092463316.96976
           X            0.99969   0.02467   0.00371
           Y           -0.02457   0.99937  -0.02561
           Z           -0.00434   0.02551   0.99967
 This molecule is an asymmetric top.
 Rotational symmetry number  1.
 Warning -- assumption of classical behavior for rotation
           may cause significant error
 Rotational temperatures (Kelvin)      0.06326     0.02699     0.02611
 Rotational constants (GHZ):           1.31810     0.56238     0.54409
 Zero-point vibrational energy     828206.9 (Joules/Mol)
                                  197.94620 (Kcal/Mol)
 Warning -- explicit consideration of  23 degrees of freedom as
           vibrations may cause significant error
 Vibrational temperatures:     98.23   170.09   193.41   233.43   304.92
          (Kelvin)            374.22   393.54   399.92   409.65   451.09
                              469.86   493.91   504.06   511.53   556.60
                              559.86   577.66   624.14   676.95   689.38
                              725.42   808.71   890.31   969.19  1082.52
                             1112.64  1139.63  1187.58  1221.12  1264.69
                             1313.25  1355.28  1376.71  1393.47  1413.01
                             1478.14  1493.24  1502.56  1525.04  1556.20
                             1564.22  1603.09  1634.85  1655.34  1714.18
                             1746.97  1771.96  1788.68  1823.82  1855.98
                             1911.79  1923.34  1940.03  1954.40  2009.04
                             2017.91  2038.66  2058.82  2077.23  2081.61
                             2098.09  2149.66  2155.84  2172.51  2175.21
                             2182.47  2191.46  2192.66  2210.23  2217.04
                             2220.89  2224.04  2233.57  2238.36  4345.61
                             4364.62  4376.48  4381.74  4390.24  4393.88
                             4397.39  4403.49  4409.53  4420.60  4463.36
                             4471.57  4478.26  4483.22  4486.15  4487.39
                             4490.89  4500.72  4505.29  4522.80  4538.60
                             4573.84

 Zero-point correction=                           0.315447 (Hartree/Particle)
 Thermal correction to Energy=                    0.328845
 Thermal correction to Enthalpy=                  0.329790
 Thermal correction to Gibbs Free Energy=         0.277558
 Sum of electronic and zero-point Energies=           -830.358332
 Sum of electronic and thermal Energies=              -830.344934
 Sum of electronic and thermal Enthalpies=            -830.343990
 Sum of electronic and thermal Free Energies=         -830.396222

                     E (Thermal)             CV                S
                      KCal/Mol        Cal/Mol-Kelvin    Cal/Mol-Kelvin
 Total                  206.354             54.885            109.930
 Electronic               0.000              0.000              0.000
 Translational            0.889              2.981             41.570
 Rotational               0.889              2.981             31.056
 Vibrational            204.576             48.924             37.304
 Vibration     1          0.598              1.969              4.203
 Vibration     2          0.608              1.934              3.129
 Vibration     3          0.613              1.919              2.882
 Vibration     4          0.622              1.889              2.523
 Vibration     5          0.643              1.823              2.027
 Vibration     6          0.668              1.746              1.661
 Vibration     7          0.676              1.722              1.574
 Vibration     8          0.679              1.714              1.546
 Vibration     9          0.683              1.702              1.505
 Vibration    10          0.701              1.648              1.344
 Vibration    11          0.710              1.622              1.277
 Vibration    12          0.722              1.589              1.197
 Vibration    13          0.727              1.575              1.165
 Vibration    14          0.731              1.564              1.142
 Vibration    15          0.755              1.498              1.012
 Vibration    16          0.757              1.493              1.004
 Vibration    17          0.767              1.467              0.957
 Vibration    18          0.795              1.397              0.846
 Vibration    19          0.828              1.315              0.736
 Vibration    20          0.836              1.296              0.712
 Vibration    21          0.859              1.241              0.648
 Vibration    22          0.918              1.113              0.520
 Vibration    23          0.979              0.992              0.418

 Optimization completed.
    -- Stationary point found.
 Normal termination of Gaussian 16 at Wed Dec  9 17:29:14 2020.

 ----------------------------------------------------------------------
 # B3LYP/6-311++G(d,p) empiricaldispersion=gd3bj scf=xqc pop=npa geom=c
 heck
 ----------------------------------------------------------------------

 ---------------------------------------
 CID_123625053_JID_2381_Energie_neutraal
 ---------------------------------------
 Structure from the checkpoint file:  "JID_2381.chk"
 Charge =  0 Multiplicity = 1

 SCF Done:  E(RB3LYP) =  -830.818712764     A.U. after   14 cycles
 Normal termination of Gaussian 16 at Wed Dec  9 17:34:34 2020.

 ----------------------------------------------------------------------
 # B3LYP/6-311++G(d,p) empiricaldispersion=gd3bj scf=xqc pop=npa geom=c
 heck
 ----------------------------------------------------------------------

 -------------------------------------
 CID_123625053_JID_2381_Energie_kation
 -------------------------------------
 Structure from the checkpoint file:  "JID_2381.chk"
 Charge =  1 Multiplicity = 2

 SCF Done:  E(UB3LYP) =  -830.526387490     A.U. after   18 cycles
 Normal termination of Gaussian 16 at Wed Dec  9 17:43:21 2020.
 Gaussian 16:  ES64L-G16RevA.03 25-Dec-2016

 ----------------------------------------------------------------------
 # B3LYP/6-311++G(d,p) empiricaldispersion=gd3bj scf=xqc pop=npa geom=c
 heck
 ----------------------------------------------------------------------

 ------------------------------------
 CID_123625053_JID_2381_Energie_anion
 ------------------------------------
 Structure from the checkpoint file:  "JID_2381.chk"
 Charge = -1 Multiplicity = 2

                         Standard orientation:
 ---------------------------------------------------------------------
 Center     Atomic      Atomic             Coordinates (Angstroms)
 Number     Number       Type             X           Y           Z
 ---------------------------------------------------------------------
      1          6           0       -3.601796   -0.361129   -0.412895
      2          6           0       -2.292360   -0.994927    0.079649
      3          6           0       -1.135141   -0.065073    0.588022
      4          6           0       -1.734929    1.194942    1.243613
      5          6           0       -0.451459   -0.863083    1.721491
      6          6           0       -0.140080    0.334409   -0.594271
      7          6           0        0.770558    1.560031   -0.285735
      8          6           0        1.970231    1.375680    0.651390
      9          6           0        2.966308    0.355134    0.103665
     10         16           0        2.223303   -1.306407   -0.085922
     11          6           0        0.746841   -0.844703   -1.080324
     12          6           0       -0.955846    0.754860   -1.842260
     13          1           0       -4.091432    0.212975    0.379973
     14          1           0       -4.297933   -1.151792   -0.716222
     15          1           0       -3.470306    0.304461   -1.268345
     16          1           0       -2.561671   -1.653897    0.914260
     17          1           0       -1.902536   -1.666969   -0.694735
     18          1           0       -2.517809    0.908117    1.954293
     19          1           0       -0.977220    1.746219    1.809033
     20          1           0       -2.184428    1.882743    0.520483
     21          1           0       -0.126812   -1.852670    1.391850
     22          1           0        0.421607   -0.360124    2.136394
     23          1           0       -1.174108   -1.003181    2.534864
     24          1           0        1.182900    1.891318   -1.249769
     25          1           0        0.152105    2.391170    0.064876
     26          1           0        1.659337    1.089667    1.659880
     27          1           0        2.481865    2.343937    0.744224
     28          1           0        3.817652    0.222828    0.778199
     29          1           0        3.357696    0.692102   -0.864870
     30          1           0        0.162192   -1.765887   -1.161432
     31          1           0        1.103013   -0.610327   -2.089806
     32          1           0       -1.541022   -0.072397   -2.251288
     33          1           0       -1.639236    1.579539   -1.617756
     34          1           0       -0.280664    1.097821   -2.633419
 ---------------------------------------------------------------------

 SCF Done:  E(UB3LYP) =  -830.802313134     A.U. after   29 cycles

 The electronic state is 2-A.
 Alpha  occ. eigenvalues --  -88.73145 -10.09553 -10.09426 -10.09051 -10.08592
 Alpha  occ. eigenvalues --  -10.06852 -10.06346 -10.06227 -10.05567 -10.05386
 Alpha  occ. eigenvalues --  -10.05321 -10.05121  -7.81802  -5.78189  -5.77848
 Alpha  occ. eigenvalues --   -5.77157  -0.75204  -0.70928  -0.66690  -0.65135
 Alpha  occ. eigenvalues --   -0.63247  -0.58547  -0.57648  -0.53181  -0.51965
 Alpha  occ. eigenvalues --   -0.49810  -0.46605  -0.41092  -0.38804  -0.36490
 Alpha  occ. eigenvalues --   -0.35386  -0.33901  -0.33640  -0.33190  -0.31523
 Alpha  occ. eigenvalues --   -0.30926  -0.30455  -0.29384  -0.28066  -0.27591
 Alpha  occ. eigenvalues --   -0.27270  -0.26602  -0.25606  -0.25100  -0.24623
 Alpha  occ. eigenvalues --   -0.23747  -0.22272  -0.21957  -0.20427  -0.19529
 Alpha  occ. eigenvalues --   -0.19017  -0.11819   0.04606
 Alpha virt. eigenvalues --    0.06405   0.07385   0.07838   0.08492   0.09009
 Alpha virt. eigenvalues --    0.09191   0.10161   0.10346   0.11102   0.11318
 Alpha virt. eigenvalues --    0.11771   0.12369   0.12533   0.13104   0.13514

  Beta  occ. eigenvalues --  -88.73143 -10.09535 -10.09410 -10.09050 -10.08590
  Beta  occ. eigenvalues --  -10.06830 -10.06331 -10.06205 -10.05540 -10.05354
  Beta  occ. eigenvalues --  -10.05292 -10.05114  -7.81801  -5.78187  -5.77844
  Beta  occ. eigenvalues --   -5.77155  -0.75184  -0.70901  -0.66659  -0.65103
  Beta  occ. eigenvalues --   -0.63212  -0.58503  -0.57599  -0.53129  -0.51913
  Beta  occ. eigenvalues --   -0.49755  -0.46555  -0.41046  -0.38771  -0.36456
  Beta  occ. eigenvalues --   -0.35349  -0.33871  -0.33611  -0.33144  -0.31494
  Beta  occ. eigenvalues --   -0.30896  -0.30433  -0.29345  -0.28036  -0.27555
  Beta  occ. eigenvalues --   -0.27242  -0.26575  -0.25569  -0.25068  -0.24592
  Beta  occ. eigenvalues --   -0.23718  -0.22236  -0.21930  -0.20396  -0.19499
  Beta  occ. eigenvalues --   -0.18991  -0.11804
  Beta virt. eigenvalues --    0.06816   0.07397   0.07896   0.08500   0.08911
  Beta virt. eigenvalues --    0.09567   0.09787   0.10446   0.10679   0.11560
  Beta virt. eigenvalues --    0.11732   0.12123   0.12684   0.12923   0.13404

 Mulliken charges and spin densities:
               1          2
     1  C    0.532901  -1.100952
     2  C   -0.710950   0.249931
     3  C   -0.521724   1.121475
     4  C    1.023907  -1.799490
     5  C    0.107205  -0.553715
     6  C   -0.014405   0.891370
     7  C    0.385244  -0.888610
     8  C   -0.264420   0.194727
     9  C    0.213951  -1.029053
    10  S    0.159950  -0.059108
    11  C   -0.734213  -0.211733
    12  C    0.955823  -1.445070
    13  H   -0.165359   0.305238
    14  H   -0.562814   0.709766
    15  H    0.003601   0.131723
    16  H    0.010103   0.131129
    17  H    0.166767  -0.010483
    18  H    0.046127   0.092227
    19  H   -0.133894   0.285236
    20  H   -0.168854   0.334305
    21  H   -0.019833   0.156649
    22  H    0.281980  -0.180737
    23  H    0.008071   0.149242
    24  H   -0.174047   0.327693
    25  H   -0.091493   0.271643
    26  H    0.047989   0.052259
    27  H   -0.806377   1.006524
    28  H   -0.170434   0.392775
    29  H    0.074205   0.104005
    30  H    0.027288   0.167552
    31  H    0.027405   0.211256
    32  H   -0.182097   0.337843
    33  H   -0.202042   0.372727
    34  H   -0.149558   0.281655
 Sum of Mulliken charges =  -1.00000   1.00000

 Dipole moment (field-independent basis, Debye):
    X=              1.5240    Y=             -3.3768    Z=              1.2242  Tot=              3.9018
 Quadrupole moment (field-independent basis, Debye-Ang):
   XX=           -157.2355   YY=           -136.1854   ZZ=           -122.9269
   XY=             -7.4603   XZ=             -2.9582   YZ=             -2.0261

 Summary of Natural Population Analysis:

                                       Natural Population
                Natural  -----------------------------------------------
    Atom  No    Charge         Core      Valence    Rydberg      Total
 -----------------------------------------------------------------------
      C    1   -0.28701      0.99965     2.28228    0.00508     3.28701
      C    2   -0.18996      0.99959     2.17983    0.01054     3.18996
      C    3   -0.03689      0.99954     2.02220    0.01515     3.03689
      C    4   -0.29089      0.99962     2.28331    0.00796     3.29089
      C    5   -0.28278      0.99962     2.27658    0.00657     3.28278
      C    6   -0.03739      0.99952     2.02114    0.01674     3.03739
      C    7   -0.19511      0.99958     2.18227    0.01327     3.19511
      C    8   -0.19414      0.99960     2.18455    0.00999     3.19414
      C    9   -0.24610      0.99959     2.23613    0.01038     3.24610
      S   10    0.08251      4.99963     2.90083    0.01703     7.91749
      C   11   -0.25027      0.99951     2.23889    0.01186     3.25027
      C   12   -0.28581      0.99962     2.27798    0.00820     3.28581
      H   13    0.09726      0.00000     0.40159    0.00115     0.40274
      H   14    0.09946      0.00000     0.39944    0.00110     0.40054
      H   15    0.09833      0.00000     0.40036    0.00131     0.40167
      H   16    0.09654      0.00000     0.40224    0.00122     0.40346
      H   17    0.09619      0.00000     0.40256    0.00125     0.40381
      H   18    0.10028      0.00000     0.39883    0.00089     0.39972
      H   19    0.10176      0.00000     0.39715    0.00109     0.39824
      H   20    0.10264      0.00000     0.39618    0.00118     0.39736
      H   21    0.10205      0.00000     0.39678    0.00116     0.39795
      H   22    0.10022      0.00000     0.39850    0.00128     0.39978
      H   23    0.09468      0.00000     0.40432    0.00100     0.40532
      H   24    0.09752      0.00000     0.40057    0.00192     0.40248
      H   25    0.10766      0.00000     0.39067    0.00167     0.39234
      H   26    0.09568      0.00000     0.40274    0.00159     0.40432
      H   27    0.10348      0.00000     0.39429    0.00224     0.39652
      H   28    0.10575      0.00000     0.39318    0.00107     0.39425
      H   29    0.09729      0.00000     0.40114    0.00156     0.40271
      H   30    0.10879      0.00000     0.39000    0.00121     0.39121
      H   31    0.10252      0.00000     0.39591    0.00157     0.39748
      H   32    0.10145      0.00000     0.39741    0.00114     0.39855
      H   33    0.10362      0.00000     0.39509    0.00130     0.39638
      H   34    0.10068      0.00000     0.39819    0.00113     0.39932
 =======================================================================
   * Total *   -0.00000     15.99507    35.84310    0.16183    52.00000

 Normal termination of Gaussian 16 at Wed Dec  9 17:57:49 2020.
