 Gaussian 16, Revision A.03,

 -----------------------------------------------------------
 # opt freq B3LYP/6-31G(d) empiricaldispersion=gd3bj scf=xqc
 -----------------------------------------------------------

 ------------------------------
 CID_89374630_JID_3571_neutraal
 ------------------------------
 Symbolic Z-matrix:
 Charge =  0 Multiplicity = 1

 SCF Done:  E(RB3LYP) =  -571.846712091     A.U. after   15 cycles
 SCF Done:  E(RB3LYP) =  -571.852177951     A.U. after   12 cycles
 SCF Done:  E(RB3LYP) =  -571.852662078     A.U. after   11 cycles
 SCF Done:  E(RB3LYP) =  -571.852746513     A.U. after   10 cycles
 SCF Done:  E(RB3LYP) =  -571.852786230     A.U. after   10 cycles
 SCF Done:  E(RB3LYP) =  -571.852829122     A.U. after   11 cycles
 SCF Done:  E(RB3LYP) =  -571.852861717     A.U. after   10 cycles
 SCF Done:  E(RB3LYP) =  -571.852885157     A.U. after   10 cycles
 SCF Done:  E(RB3LYP) =  -571.852889761     A.U. after    9 cycles
 SCF Done:  E(RB3LYP) =  -571.852890480     A.U. after    8 cycles
 SCF Done:  E(RB3LYP) =  -571.852890549     A.U. after    7 cycles
 Optimization completed.
    -- Stationary point found.
 Normal termination of Gaussian 16 at Wed Dec  9 23:39:21 2020.

 --------------------------------------------------------------------
 #N Geom=AllCheck Guess=TCheck SCRF=Check GenChk RB3LYP/6-31G(d) Freq
 --------------------------------------------------------------------

 Structure from the checkpoint file:  "JID_3571.chk"
 ------------------------------
 CID_89374630_JID_3571_neutraal
 ------------------------------
 Charge =  0 Multiplicity = 1

 SCF Done:  E(RB3LYP) =  -571.852890549     A.U. after    1 cycles

  Exact polarizability: 168.676  -5.775 139.476   0.001  -0.000  53.270
 Approx polarizability: 276.966 -12.091 235.315   0.001   0.000  81.676

                      1                      2                      3
                      A                      A                      A
 Frequencies --     83.4063                97.1159               119.8306
 Red. masses --      2.7016                 1.4320                 2.2480
 Frc consts  --      0.0111                 0.0080                 0.0190
 IR Inten    --      2.3469                 1.5791                 0.1008

                      4                      5                      6
                      A                      A                      A
 Frequencies --    168.7407               195.5529               199.0409
 Red. masses --      5.4386                 2.2090                 3.6431
 Frc consts  --      0.0912                 0.0498                 0.0850
 IR Inten    --      0.8885                 0.0022                 1.9471

                      7                      8                      9
                      A                      A                      A
 Frequencies --    259.0930               279.1715               308.8905
 Red. masses --      3.3434                 1.4166                 3.0209
 Frc consts  --      0.1322                 0.0650                 0.1698
 IR Inten    --      0.1203                 0.0124                 0.1586

                     10                     11                     12
                      A                      A                      A
 Frequencies --    373.2115               445.7623               454.0948
 Red. masses --      3.5377                 6.1383                 4.4671
 Frc consts  --      0.2903                 0.7186                 0.5427
 IR Inten    --      4.3039                 0.1933                 0.1284

                     13                     14                     15
                      A                      A                      A
 Frequencies --    478.5339               512.5708               550.1763
 Red. masses --      5.5341                 3.9421                 6.2356
 Frc consts  --      0.7467                 0.6102                 1.1121
 IR Inten    --      1.4457                 7.2842                 4.1837

                     16                     17                     18
                      A                      A                      A
 Frequencies --    609.7992               619.7986               666.9560
 Red. masses --      3.7944                 4.9885                 3.0499
 Frc consts  --      0.8313                 1.1291                 0.7993
 IR Inten    --      1.8839                 3.5700                 5.7969

                     19                     20                     21
                      A                      A                      A
 Frequencies --    693.3380               797.8330               819.7229
 Red. masses --      6.8655                 5.0545                 4.8777
 Frc consts  --      1.9445                 1.8956                 1.9311
 IR Inten    --     18.0381                 2.7044                 8.9083

                     22                     23                     24
                      A                      A                      A
 Frequencies --    850.2636               875.7289               898.5075
 Red. masses --      1.3311                 1.4487                 6.7102
 Frc consts  --      0.5670                 0.6546                 3.1918
 IR Inten    --     14.3444                10.3891                 6.3644

                     25                     26                     27
                      A                      A                      A
 Frequencies --    943.1142               988.7365               995.7801
 Red. masses --      1.5166                 5.2050                 1.4832
 Frc consts  --      0.7948                 2.9980                 0.8665
 IR Inten    --      6.5022                13.6876                 0.5204

                     28                     29                     30
                      A                      A                      A
 Frequencies --   1035.7980              1048.2608              1076.7479
 Red. masses --      1.9248                 2.8639                 1.5126
 Frc consts  --      1.2167                 1.8541                 1.0333
 IR Inten    --     13.1130                17.5007                 4.2139

                     31                     32                     33
                      A                      A                      A
 Frequencies --   1136.8234              1186.0210              1188.2032
 Red. masses --      4.3682                 1.2738                 3.7770
 Frc consts  --      3.3262                 1.0557                 3.1418
 IR Inten    --      8.9844                 0.8436                68.1635

                     34                     35                     36
                      A                      A                      A
 Frequencies --   1197.7262              1230.5460              1250.3720
 Red. masses --      1.7682                 1.6826                 2.3543
 Frc consts  --      1.4945                 1.5011                 2.1686
 IR Inten    --     17.2419                35.7640                 2.4348

                     37                     38                     39
                      A                      A                      A
 Frequencies --   1290.0635              1308.2024              1373.4069
 Red. masses --      1.7136                 3.4385                 2.9996
 Frc consts  --      1.6803                 3.4671                 3.3335
 IR Inten    --     27.0019                53.8770                38.4574

                     40                     41                     42
                      A                      A                      A
 Frequencies --   1420.3455              1434.7747              1444.5867
 Red. masses --      1.9438                 2.1243                 1.3680
 Frc consts  --      2.3105                 2.5766                 1.6819
 IR Inten    --     31.9486               144.9163                22.2194

                     43                     44                     45
                      A                      A                      A
 Frequencies --   1456.4934              1474.7821              1503.0235
 Red. masses --      3.7125                 2.5794                 1.3983
 Frc consts  --      4.6402                 3.3054                 1.8611
 IR Inten    --     35.1660                 5.7159                16.2388

                     46                     47                     48
                      A                      A                      A
 Frequencies --   1512.7221              1521.4488              1526.7453
 Red. masses --      1.0442                 1.0475                 1.3136
 Frc consts  --      1.4078                 1.4286                 1.8040
 IR Inten    --      6.3237                 6.8657                66.0652

                     49                     50                     51
                      A                      A                      A
 Frequencies --   1530.6438              1542.5936              1620.2258
 Red. masses --      1.2056                 2.0832                 6.0362
 Frc consts  --      1.6642                 2.9206                 9.3361
 IR Inten    --     45.3582                29.9236                48.2694

                     52                     53                     54
                      A                      A                      A
 Frequencies --   1637.9764              1680.8084              3026.8792
 Red. masses --      5.8661                 6.0650                 1.0350
 Frc consts  --      9.2728                10.0953                 5.5870
 IR Inten    --     62.2071                47.9389                51.6252

                     55                     56                     57
                      A                      A                      A
 Frequencies --   3044.1046              3086.5133              3095.2069
 Red. masses --      1.0379                 1.1066                 1.1008
 Frc consts  --      5.6668                 6.2113                 6.2133
 IR Inten    --     32.4061                40.1017                19.4893

                     58                     59                     60
                      A                      A                      A
 Frequencies --   3133.8282              3149.1938              3167.2026
 Red. masses --      1.1005                 1.0903                 1.0996
 Frc consts  --      6.3679                 6.3710                 6.4990
 IR Inten    --     15.2401                25.3572                20.8069

                     61                     62                     63
                      A                      A                      A
 Frequencies --   3186.6261              3191.1018              3216.6075
 Red. masses --      1.0905                 1.0910                 1.0890
 Frc consts  --      6.5242                 6.5455                 6.6389
 IR Inten    --     17.5212                31.2140                10.9250

 - Thermochemistry -
 -------------------
 Temperature   298.150 Kelvin.  Pressure   1.00000 Atm.
 Atom     1 has atomic number  6 and mass  12.00000

 Molecular mass:   174.07931 amu.
 Principal axes and moments of inertia in atomic units:
                           1         2         3
     Eigenvalues --  1624.966842371.258093973.49662
           X            0.99999  -0.00491  -0.00000
           Y            0.00491   0.99999  -0.00000
           Z            0.00000   0.00000   1.00000
 This molecule is an asymmetric top.
 Rotational symmetry number  1.
 Warning -- assumption of classical behavior for rotation
           may cause significant error
 Rotational temperatures (Kelvin)      0.05330     0.03653     0.02180
 Rotational constants (GHZ):           1.11063     0.76109     0.45419
 Zero-point vibrational energy     485751.9 (Joules/Mol)
                                  116.09749 (Kcal/Mol)
 Warning -- explicit consideration of  17 degrees of freedom as
           vibrations may cause significant error
 Vibrational temperatures:    120.00   139.73   172.41   242.78   281.36
          (Kelvin)            286.38   372.78   401.67   444.42   536.97
                              641.35   653.34   688.50   737.48   791.58
                              877.36   891.75   959.60   997.56  1147.90
                             1179.40  1223.34  1259.98  1292.75  1356.93
                             1422.57  1432.71  1490.28  1508.21  1549.20
                             1635.64  1706.42  1709.56  1723.26  1770.48
                             1799.01  1856.11  1882.21  1976.03  2043.56
                             2064.32  2078.44  2095.57  2121.88  2162.52
                             2176.47  2189.03  2196.65  2202.25  2219.45
                             2331.14  2356.68  2418.31  4355.00  4379.79
                             4440.80  4453.31  4508.88  4530.99  4556.90
                             4584.84  4591.28  4627.98

 Zero-point correction=                           0.185013 (Hartree/Particle)
 Thermal correction to Energy=                    0.195917
 Thermal correction to Enthalpy=                  0.196862
 Thermal correction to Gibbs Free Energy=         0.148311
 Sum of electronic and zero-point Energies=           -571.667877
 Sum of electronic and thermal Energies=              -571.656973
 Sum of electronic and thermal Enthalpies=            -571.656029
 Sum of electronic and thermal Free Energies=         -571.704579

                     E (Thermal)             CV                S
                      KCal/Mol        Cal/Mol-Kelvin    Cal/Mol-Kelvin
 Total                  122.940             41.858            102.182
 Electronic               0.000              0.000              0.000
 Translational            0.889              2.981             41.370
 Rotational               0.889              2.981             31.105
 Vibrational            121.163             35.897             29.707
 Vibration     1          0.600              1.961              3.809
 Vibration     2          0.603              1.951              3.511
 Vibration     3          0.609              1.933              3.103
 Vibration     4          0.625              1.881              2.449
 Vibration     5          0.636              1.846              2.175
 Vibration     6          0.637              1.841              2.142
 Vibration     7          0.668              1.747              1.668
 Vibration     8          0.679              1.712              1.539
 Vibration     9          0.698              1.657              1.368
 Vibration    10          0.745              1.527              1.067
 Vibration    11          0.805              1.370              0.809
 Vibration    12          0.813              1.352              0.783
 Vibration    13          0.835              1.298              0.714
 Vibration    14          0.868              1.222              0.627
 Vibration    15          0.905              1.139              0.544
 Vibration    16          0.969              1.011              0.433
 Vibration    17          0.980              0.990              0.417

 Optimization completed.
    -- Stationary point found.
 Normal termination of Gaussian 16 at Wed Dec  9 23:44:37 2020.

 ----------------------------------------------------------------------
 # B3LYP/6-311++G(d,p) empiricaldispersion=gd3bj scf=xqc pop=npa geom=c
 heck
 ----------------------------------------------------------------------

 --------------------------------------
 CID_89374630_JID_3571_Energie_neutraal
 --------------------------------------
 Structure from the checkpoint file:  "JID_3571.chk"
 Charge =  0 Multiplicity = 1

 SCF Done:  E(RB3LYP) =  -572.000445013     A.U. after   15 cycles
 Normal termination of Gaussian 16 at Wed Dec  9 23:46:49 2020.

 ----------------------------------------------------------------------
 # B3LYP/6-311++G(d,p) empiricaldispersion=gd3bj scf=xqc pop=npa geom=c
 heck
 ----------------------------------------------------------------------

 ------------------------------------
 CID_89374630_JID_3571_Energie_kation
 ------------------------------------
 Structure from the checkpoint file:  "JID_3571.chk"
 Charge =  1 Multiplicity = 2

 SCF Done:  E(UB3LYP) =  -571.705639842     A.U. after   21 cycles
 Normal termination of Gaussian 16 at Wed Dec  9 23:51:05 2020.
 Gaussian 16:  ES64L-G16RevA.03 25-Dec-2016

 ----------------------------------------------------------------------
 # B3LYP/6-311++G(d,p) empiricaldispersion=gd3bj scf=xqc pop=npa geom=c
 heck
 ----------------------------------------------------------------------

 -----------------------------------
 CID_89374630_JID_3571_Energie_anion
 -----------------------------------
 Structure from the checkpoint file:  "JID_3571.chk"
 Charge = -1 Multiplicity = 2

                         Standard orientation:
 ---------------------------------------------------------------------
 Center     Atomic      Atomic             Coordinates (Angstroms)
 Number     Number       Type             X           Y           Z
 ---------------------------------------------------------------------
      1          6           0        2.549937   -2.527040   -0.000032
      2          6           0        1.423026   -1.525465    0.000023
      3          6           0        0.105048   -1.921141    0.000005
      4          6           0       -0.925600   -0.948934    0.000011
      5          6           0       -2.307045   -1.265476   -0.000004
      6          7           0       -3.260364   -0.355398   -0.000011
      7          6           0       -2.841927    0.939405   -0.000025
      8          7           0       -1.602202    1.382189   -0.000010
      9          6           0       -0.622713    0.440716    0.000018
     10          6           0        0.757508    0.835538    0.000034
     11          6           0        1.738726   -0.137132    0.000034
     12          8           0        0.982756    2.168741    0.000054
     13          6           0        2.329137    2.614260   -0.000052
     14          1           0        2.171018   -3.552939    0.000079
     15          1           0        3.190397   -2.402575    0.881958
     16          1           0        3.190192   -2.402673   -0.882186
     17          1           0       -0.158444   -2.975643   -0.000016
     18          1           0       -2.617874   -2.311203    0.000016
     19          1           0       -3.631590    1.687653   -0.000032
     20          1           0        2.785306    0.146312    0.000064
     21          1           0        2.864517    2.270735    0.894790
     22          1           0        2.864420    2.270573   -0.894889
     23          1           0        2.281396    3.703900   -0.000143
 ---------------------------------------------------------------------

 SCF Done:  E(UB3LYP) =  -572.006722483     A.U. after   32 cycles

 The electronic state is 2-A.
 Alpha  occ. eigenvalues --  -19.01514 -14.12675 -14.12061 -10.10939 -10.07073
 Alpha  occ. eigenvalues --  -10.05457 -10.05060 -10.04368 -10.03641 -10.02214
 Alpha  occ. eigenvalues --  -10.01831 -10.01615 -10.01023  -0.93523  -0.80170
 Alpha  occ. eigenvalues --   -0.71344  -0.69739  -0.63282  -0.61591  -0.57987
 Alpha  occ. eigenvalues --   -0.54889  -0.49337  -0.47082  -0.44735  -0.38690
 Alpha  occ. eigenvalues --   -0.38316  -0.36036  -0.34961  -0.33174  -0.32055
 Alpha  occ. eigenvalues --   -0.30153  -0.29621  -0.28211  -0.26439  -0.25774
 Alpha  occ. eigenvalues --   -0.24449  -0.23241  -0.22238  -0.21938  -0.19657
 Alpha  occ. eigenvalues --   -0.17769  -0.14848  -0.12442  -0.10698  -0.07612
 Alpha  occ. eigenvalues --   -0.07096   0.05628
 Alpha virt. eigenvalues --    0.07738   0.08746   0.10704   0.10730   0.11465
 Alpha virt. eigenvalues --    0.11819   0.12889   0.13166   0.13573   0.13985
 Alpha virt. eigenvalues --    0.14891   0.15283   0.15855   0.17315   0.17600

  Beta  occ. eigenvalues --  -19.01456 -14.12462 -14.11613 -10.10942 -10.06848
  Beta  occ. eigenvalues --  -10.05441 -10.05059 -10.04341 -10.03653 -10.02318
  Beta  occ. eigenvalues --  -10.01474 -10.01312 -10.00800  -0.93375  -0.79591
  Beta  occ. eigenvalues --   -0.70776  -0.69260  -0.63055  -0.61335  -0.57804
  Beta  occ. eigenvalues --   -0.54597  -0.48567  -0.46944  -0.44458  -0.38456
  Beta  occ. eigenvalues --   -0.38074  -0.35859  -0.34792  -0.32954  -0.31950
  Beta  occ. eigenvalues --   -0.30073  -0.29430  -0.28094  -0.25665  -0.25355
  Beta  occ. eigenvalues --   -0.24332  -0.22998  -0.21784  -0.21208  -0.19518
  Beta  occ. eigenvalues --   -0.16963  -0.12750  -0.11984  -0.09729  -0.07224
  Beta  occ. eigenvalues --   -0.05578
  Beta virt. eigenvalues --    0.07727   0.08730   0.10686   0.10757   0.11456
  Beta virt. eigenvalues --    0.11800   0.11988   0.12970   0.13150   0.13670
  Beta virt. eigenvalues --    0.13983   0.14873   0.15840   0.15902   0.17569

 Mulliken charges and spin densities:
               1          2
     1  C   -0.392017   0.011060
     2  C    0.699367  -0.028142
     3  C   -2.124750   0.143149
     4  C    1.933260  -0.040315
     5  C   -0.536720   0.362126
     6  N   -0.154563   0.097691
     7  C    0.086110   0.022641
     8  N   -0.195155   0.217526
     9  C   -0.556806   0.010679
    10  C   -0.954770   0.127002
    11  C    0.350082   0.125475
    12  O   -0.117821   0.012361
    13  C   -0.243235   0.003151
    14  H    0.136087  -0.000290
    15  H    0.130026  -0.000577
    16  H    0.130044  -0.000580
    17  H    0.032670  -0.014115
    18  H    0.103780  -0.031900
    19  H    0.147973  -0.002941
    20  H    0.110734  -0.011835
    21  H    0.124951  -0.000983
    22  H    0.124954  -0.000979
    23  H    0.165798  -0.000204
 Sum of Mulliken charges =  -1.00000   1.00000

 Dipole moment (field-independent basis, Debye):
    X=              7.1923    Y=             -0.2566    Z=             -0.0001  Tot=              7.1969
 Quadrupole moment (field-independent basis, Debye-Ang):
   XX=           -108.2117   YY=            -91.1019   ZZ=            -84.5534
   XY=              3.3013   XZ=             -0.0004   YZ=             -0.0004

 Summary of Natural Population Analysis:

                                       Natural Population
                Natural  -----------------------------------------------
    Atom  No    Charge         Core      Valence    Rydberg      Total
 -----------------------------------------------------------------------
      C    1   -0.28701      0.99964     2.28278    0.00459     3.28701
      C    2   -0.02892      0.99954     2.02120    0.00818     3.02892
      C    3   -0.06941      0.99949     2.06117    0.00875     3.06941
      C    4   -0.07616      0.99951     2.06837    0.00828     3.07616
      C    5    0.14134      0.99958     1.84350    0.01558     2.85866
      N    6   -0.23898      0.99971     2.72603    0.01324     3.73898
      C    7    0.12595      0.99967     1.85297    0.02141     2.87405
      N    8   -0.19276      0.99968     2.68233    0.01074     3.69276
      C    9    0.08678      0.99937     1.90154    0.01230     2.91322
      C   10    0.19609      0.99937     1.79241    0.01212     2.80391
      C   11   -0.13062      0.99945     2.12271    0.00846     3.13062
      O   12   -0.25849      0.99985     3.24727    0.01137     4.25849
      C   13   -0.10080      0.99962     2.09270    0.00848     3.10080
      H   14    0.09576      0.00000     0.40336    0.00088     0.40424
      H   15    0.09366      0.00000     0.40504    0.00130     0.40634
      H   16    0.09366      0.00000     0.40504    0.00130     0.40634
      H   17    0.08580      0.00000     0.41232    0.00188     0.41420
      H   18    0.06775      0.00000     0.43039    0.00186     0.43225
      H   19    0.06712      0.00000     0.43142    0.00146     0.43288
      H   20    0.08801      0.00000     0.41074    0.00126     0.41199
      H   21    0.07787      0.00000     0.42018    0.00195     0.42213
      H   22    0.07787      0.00000     0.42018    0.00196     0.42213
      H   23    0.08554      0.00000     0.41351    0.00095     0.41446
 =======================================================================
   * Total *    0.00005     12.99449    32.84714    0.15832    45.99995

 Normal termination of Gaussian 16 at Wed Dec  9 23:57:31 2020.
