 Gaussian 16, Revision A.03,

 -----------------------------------------------------------
 # opt freq B3LYP/6-31G(d) empiricaldispersion=gd3bj scf=xqc
 -----------------------------------------------------------

 ------------------------------
 CID_64965204_JID_7239_neutraal
 ------------------------------
 Symbolic Z-matrix:
 Charge =  0 Multiplicity = 1

 SCF Done:  E(RB3LYP) =  -769.887881989     A.U. after   15 cycles
 SCF Done:  E(RB3LYP) =  -769.893599855     A.U. after   13 cycles
 SCF Done:  E(RB3LYP) =  -769.894065210     A.U. after   13 cycles
 SCF Done:  E(RB3LYP) =  -769.894502948     A.U. after   11 cycles
 SCF Done:  E(RB3LYP) =  -769.894764922     A.U. after   12 cycles
 SCF Done:  E(RB3LYP) =  -769.894908988     A.U. after   12 cycles
 SCF Done:  E(RB3LYP) =  -769.894986997     A.U. after   11 cycles
 SCF Done:  E(RB3LYP) =  -769.895033150     A.U. after   11 cycles
 SCF Done:  E(RB3LYP) =  -769.895064823     A.U. after   11 cycles
 SCF Done:  E(RB3LYP) =  -769.895076725     A.U. after   10 cycles
 SCF Done:  E(RB3LYP) =  -769.895125109     A.U. after    9 cycles
 SCF Done:  E(RB3LYP) =  -769.895125257     A.U. after    8 cycles
 SCF Done:  E(RB3LYP) =  -769.895125445     A.U. after    8 cycles
 SCF Done:  E(RB3LYP) =  -769.895125475     A.U. after    7 cycles
 SCF Done:  E(RB3LYP) =  -769.895125500     A.U. after    6 cycles
 Optimization completed.
    -- Stationary point found.
 Normal termination of Gaussian 16 at Mon Dec 14 16:51:58 2020.

 --------------------------------------------------------------------
 #N Geom=AllCheck Guess=TCheck SCRF=Check GenChk RB3LYP/6-31G(d) Freq
 --------------------------------------------------------------------

 Structure from the checkpoint file:  "JID_7239.chk"
 ------------------------------
 CID_64965204_JID_7239_neutraal
 ------------------------------
 Charge =  0 Multiplicity = 1

 SCF Done:  E(RB3LYP) =  -769.895125500     A.U. after    1 cycles

  Exact polarizability: 174.606   5.158 150.941   8.771   3.387 127.025
 Approx polarizability: 222.071  14.148 221.313  20.439  10.858 195.236

                      1                      2                      3
                      A                      A                      A
 Frequencies --     18.8422                27.5189                43.3295
 Red. masses --      4.8691                 4.1171                 4.3553
 Frc consts  --      0.0010                 0.0018                 0.0048
 IR Inten    --      0.1020                 2.8647                 0.2170

                      4                      5                      6
                      A                      A                      A
 Frequencies --     61.7492                66.3936                74.0358
 Red. masses --      2.9037                 3.3534                 4.7661
 Frc consts  --      0.0065                 0.0087                 0.0154
 IR Inten    --      1.3943                 0.4730                 3.8159

                      7                      8                      9
                      A                      A                      A
 Frequencies --    120.9876               159.1877               163.0530
 Red. masses --      4.4885                 2.7155                 3.1202
 Frc consts  --      0.0387                 0.0405                 0.0489
 IR Inten    --      0.8800                 0.9961                 0.9075

                     10                     11                     12
                      A                      A                      A
 Frequencies --    177.2561               224.9980               231.6273
 Red. masses --      2.2085                 1.8986                 1.3603
 Frc consts  --      0.0409                 0.0566                 0.0430
 IR Inten    --      0.9485                 3.1359                 1.2123

                     13                     14                     15
                      A                      A                      A
 Frequencies --    251.9416               258.5213               274.3515
 Red. masses --      1.3153                 1.2914                 2.9133
 Frc consts  --      0.0492                 0.0509                 0.1292
 IR Inten    --      0.1614                 0.6919                 4.5814

                     16                     17                     18
                      A                      A                      A
 Frequencies --    289.4732               313.3182               330.9337
 Red. masses --      1.9585                 1.9683                 3.2889
 Frc consts  --      0.0967                 0.1138                 0.2122
 IR Inten    --      1.5160                 0.2428                 1.6958

                     19                     20                     21
                      A                      A                      A
 Frequencies --    349.9634               376.7102               402.3919
 Red. masses --      2.9622                 2.3182                 2.5931
 Frc consts  --      0.2138                 0.1938                 0.2474
 IR Inten    --      1.6097                 0.1409                 2.0131

                     22                     23                     24
                      A                      A                      A
 Frequencies --    416.9651               431.8645               458.2790
 Red. masses --      2.7279                 2.2059                 3.5131
 Frc consts  --      0.2794                 0.2424                 0.4347
 IR Inten    --      4.8010                 1.5545                22.4353

                     25                     26                     27
                      A                      A                      A
 Frequencies --    483.5395               522.8667               531.9761
 Red. masses --      2.4541                 1.8896                 3.0164
 Frc consts  --      0.3381                 0.3044                 0.5030
 IR Inten    --      1.7101                32.9059                16.0347

                     28                     29                     30
                      A                      A                      A
 Frequencies --    545.7324               590.4685               613.3868
 Red. masses --      1.4983                 3.4796                 3.1916
 Frc consts  --      0.2629                 0.7148                 0.7075
 IR Inten    --     37.5898                 2.3792                10.6587

                     31                     32                     33
                      A                      A                      A
 Frequencies --    687.1187               724.4238               743.3425
 Red. masses --      3.2462                 2.3545                 2.4469
 Frc consts  --      0.9030                 0.7280                 0.7966
 IR Inten    --      9.5873                 1.4243                13.1079

                     34                     35                     36
                      A                      A                      A
 Frequencies --    765.3078               810.8359               818.3663
 Red. masses --      3.8045                 3.2057                 2.3837
 Frc consts  --      1.3129                 1.2418                 0.9406
 IR Inten    --      8.5567                 2.6708                 1.9090

                     37                     38                     39
                      A                      A                      A
 Frequencies --    876.7216               880.6667               933.3289
 Red. masses --      2.1771                 1.9398                 2.0689
 Frc consts  --      0.9859                 0.8864                 1.0618
 IR Inten    --      0.2411                 0.6782                 4.8084

                     40                     41                     42
                      A                      A                      A
 Frequencies --    942.6749               945.4425               964.9974
 Red. masses --      1.8227                 1.2336                 1.6168
 Frc consts  --      0.9543                 0.6497                 0.8871
 IR Inten    --      2.0950                 1.4397                 0.1006

                     43                     44                     45
                      A                      A                      A
 Frequencies --    971.5134               985.6954               987.1008
 Red. masses --      1.7934                 1.5927                 1.8512
 Frc consts  --      0.9973                 0.9117                 1.0627
 IR Inten    --      3.5068                 2.4561                 6.9751

                     46                     47                     48
                      A                      A                      A
 Frequencies --   1009.4631              1022.4196              1063.6795
 Red. masses --      2.0017                 2.2519                 1.6199
 Frc consts  --      1.2018                 1.3870                 1.0798
 IR Inten    --      5.3860                 5.2854                 4.6903

                     49                     50                     51
                      A                      A                      A
 Frequencies --   1082.3705              1094.6773              1100.0832
 Red. masses --      1.7955                 2.5338                 1.8146
 Frc consts  --      1.2393                 1.7889                 1.2938
 IR Inten    --      6.0299                 1.5911                 0.7957

                     52                     53                     54
                      A                      A                      A
 Frequencies --   1131.5082              1148.4926              1172.1965
 Red. masses --      2.1912                 2.4804                 2.2681
 Frc consts  --      1.6529                 1.9277                 1.8361
 IR Inten    --      3.4263                44.6618                 6.0417

                     55                     56                     57
                      A                      A                      A
 Frequencies --   1190.0494              1199.8371              1209.6133
 Red. masses --      2.1104                 1.3907                 1.7985
 Frc consts  --      1.7609                 1.1796                 1.5504
 IR Inten    --     12.4153                 4.6922                 6.9072

                     58                     59                     60
                      A                      A                      A
 Frequencies --   1224.2119              1253.4221              1264.4150
 Red. masses --      2.9700                 1.3707                 1.5154
 Frc consts  --      2.6225                 1.2688                 1.4275
 IR Inten    --     84.2692                18.0019                 6.5060

                     61                     62                     63
                      A                      A                      A
 Frequencies --   1293.1580              1302.0064              1321.8809
 Red. masses --      1.2859                 1.3698                 1.2737
 Frc consts  --      1.2669                 1.3682                 1.3113
 IR Inten    --     24.4351                17.0911                11.0653

                     64                     65                     66
                      A                      A                      A
 Frequencies --   1340.0629              1359.3895              1371.9290
 Red. masses --      1.5027                 1.2925                 1.4149
 Frc consts  --      1.5899                 1.4072                 1.5690
 IR Inten    --     11.3428                13.6837                40.9157

                     67                     68                     69
                      A                      A                      A
 Frequencies --   1383.6310              1385.3137              1394.0951
 Red. masses --      1.3607                 1.4495                 1.4491
 Frc consts  --      1.5348                 1.6389                 1.6594
 IR Inten    --     12.1223                37.6326                21.6019

                     70                     71                     72
                      A                      A                      A
 Frequencies --   1404.6026              1414.0910              1417.6461
 Red. masses --      1.3137                 1.5482                 1.4318
 Frc consts  --      1.5271                 1.8240                 1.6954
 IR Inten    --      2.3545                22.9761                15.8599

                     73                     74                     75
                      A                      A                      A
 Frequencies --   1424.6407              1430.4234              1433.6336
 Red. masses --      1.4420                 1.3195                 1.3157
 Frc consts  --      1.7243                 1.5907                 1.5933
 IR Inten    --     14.4632                 5.7316                 6.9366

                     76                     77                     78
                      A                      A                      A
 Frequencies --   1443.1672              1449.3230              1475.2840
 Red. masses --      1.3375                 1.2434                 1.7944
 Frc consts  --      1.6412                 1.5389                 2.3010
 IR Inten    --      5.1044                 6.2418                39.0981

                     79                     80                     81
                      A                      A                      A
 Frequencies --   1489.2924              1502.7373              1511.9272
 Red. masses --      1.5597                 1.2860                 1.0655
 Frc consts  --      2.0382                 1.7110                 1.4350
 IR Inten    --     68.4693                14.0386                 2.0069

                     82                     83                     84
                      A                      A                      A
 Frequencies --   1514.9772              1520.1213              1520.3977
 Red. masses --      1.0653                 1.0922                 1.1050
 Frc consts  --      1.4406                 1.4870                 1.5049
 IR Inten    --      0.2603                 2.4809                11.1120

                     85                     86                     87
                      A                      A                      A
 Frequencies --   1527.1883              1529.5874              1532.2516
 Red. masses --      1.0589                 1.0977                 1.0715
 Frc consts  --      1.4551                 1.5132                 1.4822
 IR Inten    --      7.2308                 4.1905                 7.1772

                     88                     89                     90
                      A                      A                      A
 Frequencies --   1535.5186              1539.4740              1545.6641
 Red. masses --      1.0587                 1.0541                 1.0584
 Frc consts  --      1.4707                 1.4718                 1.4898
 IR Inten    --      1.7422                 2.7530                 2.2705

                     91                     92                     93
                      A                      A                      A
 Frequencies --   1553.6251              1733.6981              1814.9230
 Red. masses --      1.1297                10.1251                 8.6360
 Frc consts  --      1.6065                17.9306                16.7602
 IR Inten    --     22.6165               278.4284               388.1691

                     94                     95                     96
                      A                      A                      A
 Frequencies --   3018.8303              3022.8509              3028.1821
 Red. masses --      1.0603                 1.0731                 1.0708
 Frc consts  --      5.6932                 5.7770                 5.7854
 IR Inten    --     22.5372                22.7331                 8.6390

                     97                     98                     99
                      A                      A                      A
 Frequencies --   3033.5358              3036.3207              3038.4920
 Red. masses --      1.0371                 1.0552                 1.0589
 Frc consts  --      5.6229                 5.7316                 5.7599
 IR Inten    --     35.4252                20.7015                39.5867

                    100                    101                    102
                      A                      A                      A
 Frequencies --   3044.5209              3048.1604              3054.2512
 Red. masses --      1.0702                 1.0761                 1.0419
 Frc consts  --      5.8444                 5.8908                 5.7265
 IR Inten    --      5.1906                33.4387                30.0416

                    103                    104                    105
                      A                      A                      A
 Frequencies --   3060.3068              3066.7968              3075.8136
 Red. masses --      1.0884                 1.0667                 1.0988
 Frc consts  --      6.0055                 5.9108                 6.1250
 IR Inten    --     11.5794                16.0312                45.7529

                    106                    107                    108
                      A                      A                      A
 Frequencies --   3090.6965              3096.8465              3105.0573
 Red. masses --      1.0983                 1.0999                 1.0993
 Frc consts  --      6.1813                 6.2151                 6.2444
 IR Inten    --     50.4983                11.8822                67.0705

                    109                    110                    111
                      A                      A                      A
 Frequencies --   3110.6673              3113.4517              3114.3595
 Red. masses --      1.1020                 1.1013                 1.0988
 Frc consts  --      6.2828                 6.2900                 6.2791
 IR Inten    --     30.7591                49.2036                23.1340

                    112                    113                    114
                      A                      A                      A
 Frequencies --   3127.8575              3133.0093              3144.0149
 Red. masses --      1.0922                 1.1013                 1.0959
 Frc consts  --      6.2955                 6.3692                 6.3826
 IR Inten    --     15.3451                22.8081                10.4041

                    115                    116                    117
                      A                      A                      A
 Frequencies --   3156.2779              3167.7724              3608.7632
 Red. masses --      1.0855                 1.0918                 1.0769
 Frc consts  --      6.3715                 6.4549                 8.2634
 IR Inten    --     12.3870                 3.4018                28.1622

 - Thermochemistry -
 -------------------
 Temperature   298.150 Kelvin.  Pressure   1.00000 Atm.
 Atom     1 has atomic number  6 and mass  12.00000

 Molecular mass:   240.18378 amu.
 Principal axes and moments of inertia in atomic units:
                           1         2         3
     Eigenvalues --  2180.356067724.909448492.36218
           X            0.99990   0.00948  -0.01025
           Y           -0.00967   0.99976  -0.01942
           Z            0.01007   0.01952   0.99976
 This molecule is an asymmetric top.
 Rotational symmetry number  1.
 Warning -- assumption of classical behavior for rotation
           may cause significant error
 Rotational temperatures (Kelvin)      0.03972     0.01121     0.01020
 Rotational constants (GHZ):           0.82773     0.23363     0.21251
 Zero-point vibrational energy     968545.3 (Joules/Mol)
                                  231.48789 (Kcal/Mol)
 Warning -- explicit consideration of  30 degrees of freedom as
           vibrations may cause significant error
 Vibrational temperatures:     27.11    39.59    62.34    88.84    95.53
          (Kelvin)            106.52   174.07   229.04   234.60   255.03
                              323.72   333.26   362.49   371.95   394.73
                              416.49   450.79   476.14   503.52   542.00
                              578.95   599.92   621.36   659.36   695.71
                              752.29   765.40   785.19   849.55   882.53
                              988.61  1042.28  1069.50  1101.11  1166.61
                             1177.45  1261.41  1267.08  1342.85  1356.30
                             1360.28  1388.42  1397.79  1418.20  1420.22
                             1452.39  1471.03  1530.40  1557.29  1575.00
                             1582.77  1627.99  1652.42  1686.53  1712.22
                             1726.30  1740.36  1761.37  1803.39  1819.21
                             1860.57  1873.30  1901.89  1928.05  1955.86
                             1973.90  1990.74  1993.16  2005.79  2020.91
                             2034.56  2039.68  2049.74  2058.06  2062.68
                             2076.40  2085.25  2122.60  2142.76  2162.10
                             2175.33  2179.71  2187.12  2187.51  2197.28
                             2200.74  2204.57  2209.27  2214.96  2223.87
                             2235.32  2494.40  2611.27  4343.42  4349.21
                             4356.88  4364.58  4368.59  4371.71  4380.39
                             4385.62  4394.39  4403.10  4412.44  4425.41
                             4446.82  4455.67  4467.48  4475.56  4479.56
                             4480.87  4500.29  4507.70  4523.54  4541.18
                             4557.72  5192.21

 Zero-point correction=                           0.368899 (Hartree/Particle)
 Thermal correction to Energy=                    0.387461
 Thermal correction to Enthalpy=                  0.388405
 Thermal correction to Gibbs Free Energy=         0.320726
 Sum of electronic and zero-point Energies=           -769.526226
 Sum of electronic and thermal Energies=              -769.507665
 Sum of electronic and thermal Enthalpies=            -769.506720
 Sum of electronic and thermal Free Energies=         -769.574400

                     E (Thermal)             CV                S
                      KCal/Mol        Cal/Mol-Kelvin    Cal/Mol-Kelvin
 Total                  243.135             69.848            142.443
 Electronic               0.000              0.000              0.000
 Translational            0.889              2.981             42.330
 Rotational               0.889              2.981             33.325
 Vibrational            241.358             63.886             66.788
 Vibration     1          0.593              1.986              6.753
 Vibration     2          0.593              1.984              6.001
 Vibration     3          0.595              1.980              5.101
 Vibration     4          0.597              1.973              4.400
 Vibration     5          0.598              1.970              4.258
 Vibration     6          0.599              1.966              4.043
 Vibration     7          0.609              1.932              3.085
 Vibration     8          0.621              1.892              2.559
 Vibration     9          0.623              1.888              2.514
 Vibration    10          0.628              1.870              2.357
 Vibration    11          0.650              1.803              1.919
 Vibration    12          0.653              1.793              1.866
 Vibration    13          0.664              1.760              1.717
 Vibration    14          0.667              1.748              1.672
 Vibration    15          0.677              1.721              1.569
 Vibration    16          0.686              1.693              1.477
 Vibration    17          0.701              1.648              1.345
 Vibration    18          0.713              1.614              1.256
 Vibration    19          0.727              1.575              1.166
 Vibration    20          0.747              1.520              1.052
 Vibration    21          0.768              1.465              0.954
 Vibration    22          0.780              1.433              0.902
 Vibration    23          0.793              1.401              0.853
 Vibration    24          0.816              1.343              0.771
 Vibration    25          0.840              1.287              0.701
 Vibration    26          0.878              1.199              0.603
 Vibration    27          0.887              1.179              0.583
 Vibration    28          0.901              1.149              0.553
 Vibration    29          0.948              1.052              0.466
 Vibration    30          0.973              1.004              0.427

                           ! Non-Optimized Parameters !
 Normal termination of Gaussian 16 at Mon Dec 14 17:12:12 2020.

 ----------------------------------------------------------------------
 # B3LYP/6-311++G(d,p) empiricaldispersion=gd3bj scf=xqc pop=npa geom=c
 heck
 ----------------------------------------------------------------------

 --------------------------------------
 CID_64965204_JID_7239_Energie_neutraal
 --------------------------------------
 Structure from the checkpoint file:  "JID_7239.chk"
 Charge =  0 Multiplicity = 1

 SCF Done:  E(RB3LYP) =  -770.118392027     A.U. after   15 cycles
 Normal termination of Gaussian 16 at Mon Dec 14 17:21:59 2020.

 ----------------------------------------------------------------------
 # B3LYP/6-311++G(d,p) empiricaldispersion=gd3bj scf=xqc pop=npa geom=c
 heck
 ----------------------------------------------------------------------

 ------------------------------------
 CID_64965204_JID_7239_Energie_kation
 ------------------------------------
 Structure from the checkpoint file:  "JID_7239.chk"
 Charge =  1 Multiplicity = 2

 SCF Done:  E(UB3LYP) =  -769.801037037     A.U. after   28 cycles
 Normal termination of Gaussian 16 at Mon Dec 14 17:47:48 2020.
 Gaussian 16:  ES64L-G16RevA.03 25-Dec-2016

 ----------------------------------------------------------------------
 # B3LYP/6-311++G(d,p) empiricaldispersion=gd3bj scf=xqc pop=npa geom=c
 heck
 ----------------------------------------------------------------------

 -----------------------------------
 CID_64965204_JID_7239_Energie_anion
 -----------------------------------
 Structure from the checkpoint file:  "JID_7239.chk"
 Charge = -1 Multiplicity = 2

                         Standard orientation:
 ---------------------------------------------------------------------
 Center     Atomic      Atomic             Coordinates (Angstroms)
 Number     Number       Type             X           Y           Z
 ---------------------------------------------------------------------
      1          6           0       -3.766909   -1.247555    1.602098
      2          6           0       -3.421380   -0.811126    0.172868
      3          6           0       -4.373942   -1.463909   -0.836202
      4          6           0       -3.455589    0.719956    0.011916
      5          6           0       -2.515569    1.512621    0.935075
      6          6           0       -1.042319    1.080109    0.882764
      7          6           0       -0.422417    1.107121   -0.524147
      8          6           0       -0.394998    2.504453   -1.148521
      9          7           0        0.918442    0.469267   -0.514945
     10          6           0        1.990459    1.234286    0.132579
     11          6           0        3.432977    0.851032   -0.219722
     12          6           0        3.897889   -0.370377    0.557622
     13          8           0        4.802113   -0.342348    1.378958
     14          7           0        3.150729   -1.489346    0.315633
     15          6           0        2.262522   -1.647726   -0.823520
     16          6           0        0.937949   -0.869634   -0.808382
     17          8           0       -0.068846   -1.481568   -1.165401
     18          1           0       -4.763762   -0.888109    1.890638
     19          1           0       -3.049535   -0.863636    2.335760
     20          1           0       -3.770341   -2.340389    1.685742
     21          1           0       -2.408064   -1.162248   -0.060489
     22          1           0       -5.411912   -1.154473   -0.654886
     23          1           0       -4.114764   -1.183498   -1.863855
     24          1           0       -4.333990   -2.557020   -0.767763
     25          1           0       -3.230751    0.963351   -1.035844
     26          1           0       -4.483898    1.070110    0.183818
     27          1           0       -2.595709    2.579274    0.687911
     28          1           0       -2.859178    1.423141    1.972858
     29          1           0       -0.459349    1.726470    1.552966
     30          1           0       -0.946212    0.058927    1.269034
     31          1           0       -1.013153    0.461221   -1.171469
     32          1           0        0.012834    3.266860   -0.475026
     33          1           0        0.189077    2.506519   -2.074827
     34          1           0       -1.415939    2.809190   -1.397074
     35          1           0        1.848329    2.274733   -0.164441
     36          1           0        1.873000    1.199915    1.224641
     37          1           0        4.092802    1.671226    0.069942
     38          1           0        3.533421    0.705664   -1.302366
     39          1           0        3.443653   -2.319067    0.815236
     40          1           0        1.960274   -2.692711   -0.873956
     41          1           0        2.780806   -1.419081   -1.766395
 ---------------------------------------------------------------------

 SCF Done:  E(UB3LYP) =  -770.110010532     A.U. after   33 cycles
 SCF Done:  E(UB3LYP) =  -770.110010532     a.u. after    1 cycles

 The electronic state is 2-A.
 Alpha  occ. eigenvalues --  -18.99982 -18.99243 -14.25026 -14.24883 -10.18220
 Alpha  occ. eigenvalues --  -10.17718 -10.12652 -10.12373 -10.11120 -10.09183
 Alpha  occ. eigenvalues --  -10.07987 -10.07620 -10.07451 -10.07404 -10.07140
 Alpha  occ. eigenvalues --  -10.07126 -10.06865  -0.95122  -0.94471  -0.84890
 Alpha  occ. eigenvalues --   -0.83455  -0.73178  -0.70404  -0.68538  -0.65317
 Alpha  occ. eigenvalues --   -0.62944  -0.59878  -0.59294  -0.58696  -0.54151
 Alpha  occ. eigenvalues --   -0.50299  -0.49055  -0.46069  -0.44427  -0.42896
 Alpha  occ. eigenvalues --   -0.41403  -0.40232  -0.38777  -0.37872  -0.37320
 Alpha  occ. eigenvalues --   -0.35310  -0.34685  -0.34471  -0.33630  -0.33343
 Alpha  occ. eigenvalues --   -0.32757  -0.32169  -0.30799  -0.30420  -0.30044
 Alpha  occ. eigenvalues --   -0.29823  -0.29364  -0.28381  -0.27367  -0.27192
 Alpha  occ. eigenvalues --   -0.26541  -0.25615  -0.25049  -0.24841  -0.23219
 Alpha  occ. eigenvalues --   -0.22422  -0.22076  -0.19017  -0.17048  -0.15445
 Alpha  occ. eigenvalues --   -0.14812   0.03915
 Alpha virt. eigenvalues --    0.05872   0.06277   0.07096   0.07646   0.07949
 Alpha virt. eigenvalues --    0.08552   0.08822   0.09395   0.09738   0.10318
 Alpha virt. eigenvalues --    0.10385   0.10697   0.10925   0.11248   0.11985

  Beta  occ. eigenvalues --  -18.99979 -18.99203 -14.25031 -14.24852 -10.18221
  Beta  occ. eigenvalues --  -10.17675 -10.12627 -10.12345 -10.11116 -10.09147
  Beta  occ. eigenvalues --  -10.07987 -10.07607 -10.07443 -10.07395 -10.07128
  Beta  occ. eigenvalues --  -10.07120 -10.06822  -0.95101  -0.94408  -0.84859
  Beta  occ. eigenvalues --   -0.83422  -0.73163  -0.70378  -0.68493  -0.65271
  Beta  occ. eigenvalues --   -0.62880  -0.59855  -0.59257  -0.58628  -0.54104
  Beta  occ. eigenvalues --   -0.50253  -0.48996  -0.46033  -0.44381  -0.42834
  Beta  occ. eigenvalues --   -0.41363  -0.40182  -0.38725  -0.37838  -0.37289
  Beta  occ. eigenvalues --   -0.35276  -0.34646  -0.34452  -0.33590  -0.33289
  Beta  occ. eigenvalues --   -0.32713  -0.32133  -0.30771  -0.30385  -0.30026
  Beta  occ. eigenvalues --   -0.29792  -0.29335  -0.28338  -0.27307  -0.27147
  Beta  occ. eigenvalues --   -0.26465  -0.25586  -0.25023  -0.24806  -0.23204
  Beta  occ. eigenvalues --   -0.22393  -0.22059  -0.18970  -0.17027  -0.15371
  Beta  occ. eigenvalues --   -0.14778
  Beta virt. eigenvalues --    0.05852   0.06658   0.07013   0.07392   0.08151
  Beta virt. eigenvalues --    0.08491   0.08762   0.09082   0.09659   0.09918
  Beta virt. eigenvalues --    0.10531   0.10561   0.10937   0.11130   0.11477

 Mulliken charges and spin densities:
               1          2
     1  C   -0.282479  -0.394481
     2  C   -0.103671   0.409880
     3  C   -0.471699  -0.165659
     4  C   -0.106333  -0.241238
     5  C   -0.230592  -0.208316
     6  C    0.637478  -0.420923
     7  C   -2.163835   1.317969
     8  C    1.564277  -2.200300
     9  N    0.338596   0.104046
    10  C   -0.306844   0.226345
    11  C    1.577818  -1.984063
    12  C   -0.375728   0.411507
    13  O   -0.358453   0.021149
    14  N   -0.415889   0.248799
    15  C    1.033779  -1.710330
    16  C   -0.633434   0.827725
    17  O   -0.300797   0.029062
    18  H    0.011298   0.130303
    19  H    0.020259   0.106180
    20  H    0.069134   0.060485
    21  H    0.354687  -0.139242
    22  H    0.072017   0.049835
    23  H    0.064426   0.070045
    24  H    0.094623   0.040584
    25  H    0.091389   0.054769
    26  H    0.041956   0.118105
    27  H   -0.167531   0.349124
    28  H    0.101198   0.066835
    29  H   -0.105054   0.266535
    30  H    0.206014   0.036275
    31  H    0.181590   0.082809
    32  H   -0.280598   0.444367
    33  H   -0.231391   0.404888
    34  H   -0.090256   0.237022
    35  H   -0.178272   0.344972
    36  H    0.071282   0.103867
    37  H   -0.100906   0.332200
    38  H   -0.198703   0.379720
    39  H   -0.074556   0.403164
    40  H   -0.032083   0.224280
    41  H   -0.322720   0.561703
 Sum of Mulliken charges =  -1.00000   1.00000

 Dipole moment (field-independent basis, Debye):
    X=             -5.1017    Y=             -1.7805    Z=              1.1213  Tot=              5.5186
 Quadrupole moment (field-independent basis, Debye-Ang):
   XX=           -192.7796   YY=           -156.5279   ZZ=           -146.3291
   XY=              2.4487   XZ=             -2.6756   YZ=              1.5370

 Summary of Natural Population Analysis:

                                       Natural Population
                Natural  -----------------------------------------------
    Atom  No    Charge         Core      Valence    Rydberg      Total
 -----------------------------------------------------------------------
      C    1   -0.28454      0.99965     2.28019    0.00470     3.28454
      C    2   -0.12871      0.99961     2.12149    0.00761     3.12871
      C    3   -0.27958      0.99965     2.27535    0.00458     3.27958
      C    4   -0.18914      0.99962     2.18000    0.00952     3.18914
      C    5   -0.19003      0.99963     2.18197    0.00844     3.19003
      C    6   -0.19544      0.99960     2.18736    0.00847     3.19544
      C    7   -0.01346      0.99956     2.00102    0.01287     3.01346
      C    8   -0.29435      0.99964     2.28855    0.00616     3.29435
      N    9   -0.25682      0.99963     2.74475    0.01244     3.75682
      C   10   -0.08101      0.99959     2.07020    0.01122     3.08101
      C   11   -0.23991      0.99958     2.23194    0.00839     3.23991
      C   12    0.34751      0.99966     1.63070    0.02214     2.65249
      O   13   -0.31947      0.99988     3.31361    0.00598     4.31947
      N   14   -0.32035      0.99967     2.81045    0.01023     3.82035
      C   15   -0.12881      0.99957     2.11746    0.01177     3.12881
      C   16    0.34919      0.99963     1.62924    0.02195     2.65081
      O   17   -0.32649      0.99988     3.32119    0.00542     4.32649
      H   18    0.09315      0.00000     0.40595    0.00089     0.40685
      H   19    0.09962      0.00000     0.39955    0.00082     0.40038
      H   20    0.09780      0.00000     0.40139    0.00081     0.40220
      H   21    0.10972      0.00000     0.38798    0.00230     0.39028
      H   22    0.09180      0.00000     0.40733    0.00088     0.40820
      H   23    0.10004      0.00000     0.39919    0.00076     0.39996
      H   24    0.09726      0.00000     0.40199    0.00075     0.40274
      H   25    0.09670      0.00000     0.40223    0.00107     0.40330
      H   26    0.09481      0.00000     0.40426    0.00092     0.40519
      H   27    0.09871      0.00000     0.40025    0.00104     0.40129
      H   28    0.09688      0.00000     0.40208    0.00104     0.40312
      H   29    0.09798      0.00000     0.40088    0.00114     0.40202
      H   30    0.10159      0.00000     0.39712    0.00130     0.39841
      H   31    0.11485      0.00000     0.38247    0.00268     0.38515
      H   32    0.09842      0.00000     0.40001    0.00157     0.40158
      H   33    0.10722      0.00000     0.39143    0.00134     0.39278
      H   34    0.10514      0.00000     0.39385    0.00100     0.39486
      H   35    0.10570      0.00000     0.39249    0.00181     0.39430
      H   36    0.09416      0.00000     0.40413    0.00171     0.40584
      H   37    0.11761      0.00000     0.38134    0.00105     0.38239
      H   38    0.11331      0.00000     0.38449    0.00220     0.38669
      H   39    0.19790      0.00000     0.29916    0.00294     0.30210
      H   40    0.11564      0.00000     0.38322    0.00114     0.38436
      H   41    0.10540      0.00000     0.39228    0.00232     0.39460
 =======================================================================
   * Total *    0.00000     16.99404    48.80055    0.20541    66.00000

 Normal termination of Gaussian 16 at Mon Dec 14 18:18:06 2020.
