 Gaussian 16, Revision A.03,

 -----------------------------------------------------------
 # opt freq B3LYP/6-31G(d) empiricaldispersion=gd3bj scf=xqc
 -----------------------------------------------------------

 ------------------------------
 CID_15258807_JID_1863_neutraal
 ------------------------------
 Symbolic Z-matrix:
 Charge =  0 Multiplicity = 1

 SCF Done:  E(RB3LYP) =  -548.763964531     A.U. after   15 cycles
 SCF Done:  E(RB3LYP) =  -548.767070557     A.U. after   12 cycles
 SCF Done:  E(RB3LYP) =  -548.767453390     A.U. after   11 cycles
 SCF Done:  E(RB3LYP) =  -548.767552355     A.U. after   11 cycles
 SCF Done:  E(RB3LYP) =  -548.767576055     A.U. after   11 cycles
 SCF Done:  E(RB3LYP) =  -548.767635258     A.U. after   10 cycles
 SCF Done:  E(RB3LYP) =  -548.767657283     A.U. after   10 cycles
 SCF Done:  E(RB3LYP) =  -548.767671431     A.U. after    9 cycles
 SCF Done:  E(RB3LYP) =  -548.767686670     A.U. after   10 cycles
 SCF Done:  E(RB3LYP) =  -548.767700723     A.U. after   10 cycles
 SCF Done:  E(RB3LYP) =  -548.768114491     A.U. after   12 cycles
 SCF Done:  E(RB3LYP) =  -548.768123629     A.U. after   11 cycles
 SCF Done:  E(RB3LYP) =  -548.768136907     A.U. after   10 cycles
 SCF Done:  E(RB3LYP) =  -548.768146608     A.U. after   10 cycles
 SCF Done:  E(RB3LYP) =  -548.768148573     A.U. after   10 cycles
 Optimization completed.
    -- Stationary point found.
 Normal termination of Gaussian 16 at Tue Dec  8 21:41:56 2020.

 --------------------------------------------------------------------
 #N Geom=AllCheck Guess=TCheck SCRF=Check GenChk RB3LYP/6-31G(d) Freq
 --------------------------------------------------------------------

 Structure from the checkpoint file:  "JID_1863.chk"
 ------------------------------
 CID_15258807_JID_1863_neutraal
 ------------------------------
 Charge =  0 Multiplicity = 1

 SCF Done:  E(RB3LYP) =  -548.768148573     A.U. after    1 cycles

  Exact polarizability: 117.568   3.906  91.107  -0.001  -0.000  50.702
 Approx polarizability: 160.053  11.804 154.242  -0.006  -0.007  75.633

                      1                      2                      3
                      A                      A                      A
 Frequencies --     41.4908                88.4066                90.3303
 Red. masses --      4.7598                 1.4321                 1.6593
 Frc consts  --      0.0048                 0.0066                 0.0080
 IR Inten    --      0.0000                 1.2143                 0.9630

                      4                      5                      6
                      A                      A                      A
 Frequencies --    114.8485               136.7543               145.2444
 Red. masses --      1.1012                 1.1653                 3.9748
 Frc consts  --      0.0086                 0.0128                 0.0494
 IR Inten    --      0.3071                 0.0072                 1.8966

                      7                      8                      9
                      A                      A                      A
 Frequencies --    164.8294               262.3685               276.2485
 Red. masses --      2.8797                 4.0458                 2.5617
 Frc consts  --      0.0461                 0.1641                 0.1152
 IR Inten    --      0.1996                 0.2067                 2.2347

                     10                     11                     12
                      A                      A                      A
 Frequencies --    296.4540               306.0134               378.5608
 Red. masses --      5.7989                 4.2106                 4.5714
 Frc consts  --      0.3003                 0.2323                 0.3860
 IR Inten    --      6.3102                 5.4059                 6.3650

                     13                     14                     15
                      A                      A                      A
 Frequencies --    385.4098               540.8836               655.1299
 Red. masses --      7.2541                 5.0505                 5.7334
 Frc consts  --      0.6349                 0.8706                 1.4498
 IR Inten    --      4.0824                 4.9814                 3.1931

                     16                     17                     18
                      A                      A                      A
 Frequencies --    673.4310               696.8198               754.4810
 Red. masses --      4.6041                12.8896                 4.7620
 Frc consts  --      1.2302                 3.6875                 1.5971
 IR Inten    --      1.6348                 3.1980                 3.4951

                     19                     20                     21
                      A                      A                      A
 Frequencies --    778.4507               827.4593               990.2336
 Red. masses --     10.9403                 4.9412                 3.2060
 Frc consts  --      3.9061                 1.9933                 1.8522
 IR Inten    --      7.9351                23.8535                 5.1753

                     22                     23                     24
                      A                      A                      A
 Frequencies --   1003.8306              1023.9580              1079.4680
 Red. masses --      3.1076                 3.0613                 1.4592
 Frc consts  --      1.8450                 1.8911                 1.0018
 IR Inten    --     15.4223                 2.0584                 1.1281

                     25                     26                     27
                      A                      A                      A
 Frequencies --   1131.6521              1159.5685              1186.1886
 Red. masses --      3.5696                 1.3131                 1.2721
 Frc consts  --      2.6934                 1.0403                 1.0546
 IR Inten    --    137.7495                 0.0928                 0.9237

                     28                     29                     30
                      A                      A                      A
 Frequencies --   1202.4614              1222.0774              1238.3508
 Red. masses --      3.4677                 1.6622                 6.4910
 Frc consts  --      2.9542                 1.4626                 5.8647
 IR Inten    --    165.7766                82.9066                78.0646

                     31                     32                     33
                      A                      A                      A
 Frequencies --   1262.5359              1353.9898              1425.0183
 Red. masses --      3.2682                10.5121                 5.5350
 Frc consts  --      3.0694                11.3545                 6.6223
 IR Inten    --     20.8434                68.2482                45.5162

                     34                     35                     36
                      A                      A                      A
 Frequencies --   1440.6179              1461.1066              1485.1471
 Red. masses --      1.2963                 1.5552                 1.4155
 Frc consts  --      1.5851                 1.9562                 1.8395
 IR Inten    --      6.5015                24.1837                29.0773

                     37                     38                     39
                      A                      A                      A
 Frequencies --   1495.0417              1510.6860              1511.3266
 Red. masses --      1.2501                 1.0439                 1.0464
 Frc consts  --      1.6463                 1.4036                 1.4082
 IR Inten    --     32.9264                 8.2328                 0.5608

                     40                     41                     42
                      A                      A                      A
 Frequencies --   1522.1206              1526.5181              1526.9181
 Red. masses --      1.2740                 1.0507                 1.0426
 Frc consts  --      1.7391                 1.4426                 1.4322
 IR Inten    --      5.0601                13.6547                17.6726

                     43                     44                     45
                      A                      A                      A
 Frequencies --   1539.5129              1603.2751              1830.1374
 Red. masses --      1.5236                 6.2124                12.0093
 Frc consts  --      2.1276                 9.4087                23.6993
 IR Inten    --     54.7210                 5.5135               296.7062

                     46                     47                     48
                      A                      A                      A
 Frequencies --   3047.8512              3069.4389              3076.2825
 Red. masses --      1.0425                 1.0344                 1.0292
 Frc consts  --      5.7059                 5.7421                 5.7384
 IR Inten    --     19.2036                32.9393                35.2346

                     49                     50                     51
                      A                      A                      A
 Frequencies --   3095.5458              3133.4229              3151.4057
 Red. masses --      1.1010                 1.1063                 1.1075
 Frc consts  --      6.2161                 6.3997                 6.4806
 IR Inten    --     13.2728                13.4171                20.1514

                     52                     53                     54
                      A                      A                      A
 Frequencies --   3180.1560              3187.3835              3196.9326
 Red. masses --      1.1074                 1.1020                 1.0950
 Frc consts  --      6.5986                 6.5961                 6.5937
 IR Inten    --     17.1952                 0.9848                 0.6765

 - Thermochemistry -
 -------------------
 Temperature   298.150 Kelvin.  Pressure   1.00000 Atm.
 Atom     1 has atomic number  6 and mass  12.00000

 Molecular mass:   155.06948 amu.
 Principal axes and moments of inertia in atomic units:
                           1         2         3
     Eigenvalues --   760.162192427.697033153.75746
           X            0.99998   0.00589   0.00001
           Y           -0.00589   0.99998   0.00002
           Z           -0.00001  -0.00002   1.00000
 This molecule is an asymmetric top.
 Rotational symmetry number  1.
 Warning -- assumption of classical behavior for rotation
           may cause significant error
 Rotational temperatures (Kelvin)      0.11394     0.03568     0.02746
 Rotational constants (GHZ):           2.37415     0.74340     0.57225
 Zero-point vibrational energy     415605.3 (Joules/Mol)
                                   99.33204 (Kcal/Mol)
 Warning -- explicit consideration of  14 degrees of freedom as
           vibrations may cause significant error
 Vibrational temperatures:     59.70   127.20   129.97   165.24   196.76
          (Kelvin)            208.97   237.15   377.49   397.46   426.53
                              440.28   544.66   554.52   778.21   942.59
                              968.92  1002.57  1085.53  1120.02  1190.53
                             1424.73  1444.29  1473.25  1553.11  1628.19
                             1668.36  1706.66  1730.07  1758.30  1781.71
                             1816.51  1948.09  2050.28  2072.73  2102.21
                             2136.80  2151.03  2173.54  2174.46  2189.99
                             2196.32  2196.89  2215.02  2306.76  2633.16
                             4385.18  4416.24  4426.08  4453.80  4508.30
                             4534.17  4575.54  4585.93  4599.67

 Zero-point correction=                           0.158296 (Hartree/Particle)
 Thermal correction to Energy=                    0.169683
 Thermal correction to Enthalpy=                  0.170627
 Thermal correction to Gibbs Free Energy=         0.120221
 Sum of electronic and zero-point Energies=           -548.609853
 Sum of electronic and thermal Energies=              -548.598466
 Sum of electronic and thermal Enthalpies=            -548.597521
 Sum of electronic and thermal Free Energies=         -548.647927

                     E (Thermal)             CV                S
                      KCal/Mol        Cal/Mol-Kelvin    Cal/Mol-Kelvin
 Total                  106.478             39.036            106.089
 Electronic               0.000              0.000              0.000
 Translational            0.889              2.981             41.026
 Rotational               0.889              2.981             30.144
 Vibrational            104.700             33.074             34.919
 Vibration     1          0.594              1.981              5.187
 Vibration     2          0.601              1.957              3.695
 Vibration     3          0.602              1.956              3.653
 Vibration     4          0.608              1.937              3.185
 Vibration     5          0.614              1.917              2.849
 Vibration     6          0.617              1.908              2.734
 Vibration     7          0.623              1.886              2.494
 Vibration     8          0.670              1.742              1.646
 Vibration     9          0.678              1.717              1.557
 Vibration    10          0.690              1.680              1.437
 Vibration    11          0.696              1.662              1.384
 Vibration    12          0.749              1.516              1.045
 Vibration    13          0.754              1.501              1.018
 Vibration    14          0.896              1.160              0.563

                           ! Non-Optimized Parameters !
 Normal termination of Gaussian 16 at Tue Dec  8 21:45:37 2020.

 ----------------------------------------------------------------------
 # B3LYP/6-311++G(d,p) empiricaldispersion=gd3bj scf=xqc pop=npa geom=c
 heck
 ----------------------------------------------------------------------

 --------------------------------------
 CID_15258807_JID_1863_Energie_neutraal
 --------------------------------------
 Structure from the checkpoint file:  "JID_1863.chk"
 Charge =  0 Multiplicity = 1

 SCF Done:  E(RB3LYP) =  -548.922133820     A.U. after   14 cycles
 Normal termination of Gaussian 16 at Tue Dec  8 21:47:41 2020.

 ----------------------------------------------------------------------
 # B3LYP/6-311++G(d,p) empiricaldispersion=gd3bj scf=xqc pop=npa geom=c
 heck
 ----------------------------------------------------------------------

 ------------------------------------
 CID_15258807_JID_1863_Energie_kation
 ------------------------------------
 Structure from the checkpoint file:  "JID_1863.chk"
 Charge =  1 Multiplicity = 2

 SCF Done:  E(UB3LYP) =  -548.576115804     A.U. after   32 cycles
 Normal termination of Gaussian 16 at Tue Dec  8 21:52:09 2020.
 Gaussian 16:  ES64L-G16RevA.03 25-Dec-2016

 ----------------------------------------------------------------------
 # B3LYP/6-311++G(d,p) empiricaldispersion=gd3bj scf=xqc pop=npa geom=c
 heck
 ----------------------------------------------------------------------

 -----------------------------------
 CID_15258807_JID_1863_Energie_anion
 -----------------------------------
 Structure from the checkpoint file:  "JID_1863.chk"
 Charge = -1 Multiplicity = 2

                         Standard orientation:
 ---------------------------------------------------------------------
 Center     Atomic      Atomic             Coordinates (Angstroms)
 Number     Number       Type             X           Y           Z
 ---------------------------------------------------------------------
      1          6           0        0.719286    2.029793    0.000540
      2          6           0        0.857935    0.545131    0.000051
      3          6           0       -0.045134   -0.514104   -0.000138
      4          7           0        0.656407   -1.691684   -0.000507
      5          7           0        1.923641   -1.433243   -0.000414
      6          7           0        2.063643   -0.073700    0.000038
      7          6           0        3.387480    0.516186    0.000047
      8          6           0       -1.518359   -0.530044    0.000169
      9          8           0       -2.207973   -1.524109    0.001170
     10          8           0       -2.030425    0.732120   -0.000792
     11          6           0       -3.464277    0.795727   -0.000367
     12          1           0        1.196277    2.470183    0.884885
     13          1           0       -0.334860    2.301429    0.001115
     14          1           0        1.195503    2.470691   -0.883959
     15          1           0        3.535045    1.131880    0.892495
     16          1           0        4.102552   -0.306518   -0.000111
     17          1           0        3.534975    1.132131   -0.892242
     18          1           0       -3.870370    0.305716   -0.889011
     19          1           0       -3.869833    0.306489    0.888946
     20          1           0       -3.709530    1.858154   -0.000766
 ---------------------------------------------------------------------

 SCF Done:  E(UB3LYP) =  -548.915348621     A.U. after   33 cycles
 SCF Done:  E(UB3LYP) =  -548.915348621     a.u. after    1 cycles

 The electronic state is 2-A.
 Alpha  occ. eigenvalues --  -19.07648 -19.01610 -14.30711 -14.27505 -14.24167
 Alpha  occ. eigenvalues --  -10.21163 -10.13794 -10.13442 -10.11605 -10.10938
 Alpha  occ. eigenvalues --  -10.07839  -1.01613  -1.00315  -0.92768  -0.82863
 Alpha  occ. eigenvalues --   -0.73453  -0.65635  -0.63659  -0.62307  -0.55169
 Alpha  occ. eigenvalues --   -0.49098  -0.48354  -0.43676  -0.40516  -0.39669
 Alpha  occ. eigenvalues --   -0.39087  -0.38040  -0.34183  -0.33737  -0.32948
 Alpha  occ. eigenvalues --   -0.31822  -0.31694  -0.30873  -0.30255  -0.26774
 Alpha  occ. eigenvalues --   -0.24444  -0.21855  -0.19519  -0.19225  -0.17783
 Alpha  occ. eigenvalues --   -0.16567   0.04080
 Alpha virt. eigenvalues --    0.06117   0.06255   0.08329   0.08408   0.09200
 Alpha virt. eigenvalues --    0.09716   0.10445   0.10875   0.12323   0.12760
 Alpha virt. eigenvalues --    0.12763   0.15423   0.15858   0.16246   0.16869

  Beta  occ. eigenvalues --  -19.07641 -19.01607 -14.30709 -14.27500 -14.24164
  Beta  occ. eigenvalues --  -10.21163 -10.13792 -10.13414 -10.11527 -10.10937
  Beta  occ. eigenvalues --  -10.07770  -1.01605  -1.00306  -0.92760  -0.82849
  Beta  occ. eigenvalues --   -0.73436  -0.65584  -0.63596  -0.62222  -0.55141
  Beta  occ. eigenvalues --   -0.49035  -0.48325  -0.43650  -0.40487  -0.39602
  Beta  occ. eigenvalues --   -0.39065  -0.38005  -0.34151  -0.33680  -0.32898
  Beta  occ. eigenvalues --   -0.31766  -0.31620  -0.30813  -0.30230  -0.26738
  Beta  occ. eigenvalues --   -0.24419  -0.21845  -0.19496  -0.19212  -0.17769
  Beta  occ. eigenvalues --   -0.16555
  Beta virt. eigenvalues --    0.06268   0.06559   0.07493   0.08458   0.09241
  Beta virt. eigenvalues --    0.10266   0.10313   0.11014   0.11387   0.12810
  Beta virt. eigenvalues --    0.13095   0.13662   0.15557   0.16244   0.16412

 Mulliken charges and spin densities:
               1          2
     1  C    2.057996  -2.592449
     2  C   -1.677954   1.614263
     3  C    1.983112  -1.803997
     4  N   -0.261304   0.005362
     5  N   -0.083651   0.151077
     6  N   -0.123128   0.274741
     7  C    1.339059  -1.640696
     8  C   -1.236859   1.041364
     9  O   -0.271778   0.007828
    10  O   -0.166785   0.029288
    11  C    0.412653  -0.662899
    12  H   -0.503963   0.678781
    13  H   -0.191893   0.398036
    14  H   -0.500795   0.675559
    15  H   -0.605236   0.797238
    16  H   -0.179052   0.347872
    17  H   -0.607931   0.800014
    18  H   -0.004642   0.179224
    19  H   -0.005188   0.179864
    20  H   -0.372661   0.519529
 Sum of Mulliken charges =  -1.00000   1.00000

 Dipole moment (field-independent basis, Debye):
    X=             -4.4721    Y=             -3.4022    Z=             -0.0057  Tot=              5.6191
 Quadrupole moment (field-independent basis, Debye-Ang):
   XX=           -124.0781   YY=           -120.7045   ZZ=            -89.6446
   XY=            -12.2169   XZ=              0.0172   YZ=             -0.0161

 Summary of Natural Population Analysis:

                                       Natural Population
                Natural  -----------------------------------------------
    Atom  No    Charge         Core      Valence    Rydberg      Total
 -----------------------------------------------------------------------
      C    1   -0.31003      0.99963     2.30450    0.00590     3.31003
      C    2    0.11206      0.99950     1.87678    0.01166     2.88794
      C    3   -0.02703      0.99944     2.01301    0.01458     3.02703
      N    4   -0.11385      0.99973     2.60032    0.01381     3.61385
      N    5   -0.04141      0.99978     2.52633    0.01530     3.54141
      N    6   -0.10633      0.99962     2.59337    0.01334     3.60633
      C    7   -0.17910      0.99963     2.17116    0.00831     3.17910
      C    8    0.39226      0.99963     1.58338    0.02473     2.60774
      O    9   -0.29602      0.99987     3.29111    0.00504     4.29602
      O   10   -0.28144      0.99987     3.27236    0.00921     4.28144
      C   11   -0.10416      0.99959     2.09566    0.00891     3.10416
      H   12    0.11542      0.00000     0.38126    0.00332     0.38458
      H   13    0.12274      0.00000     0.37519    0.00207     0.37726
      H   14    0.11536      0.00000     0.38137    0.00327     0.38464
      H   15    0.10784      0.00000     0.38855    0.00361     0.39216
      H   16    0.11024      0.00000     0.38792    0.00184     0.38976
      H   17    0.10787      0.00000     0.38849    0.00364     0.39213
      H   18    0.09071      0.00000     0.40834    0.00096     0.40929
      H   19    0.09073      0.00000     0.40831    0.00096     0.40927
      H   20    0.09415      0.00000     0.40458    0.00127     0.40585
 =======================================================================
   * Total *   -0.00000     10.99630    29.85199    0.15171    41.00000

 Normal termination of Gaussian 16 at Tue Dec  8 21:56:50 2020.
