 Gaussian 16, Revision A.03,

 -----------------------------------------------------------
 # opt freq B3LYP/6-31G(d) empiricaldispersion=gd3bj scf=xqc
 -----------------------------------------------------------

 -------------------------------
 CID_127003262_JID_2235_neutraal
 -------------------------------
 Symbolic Z-matrix:
 Charge =  0 Multiplicity = 1

 SCF Done:  E(RB3LYP) =  -550.992449659     A.U. after   15 cycles
 SCF Done:  E(RB3LYP) =  -550.995591536     A.U. after   12 cycles
 SCF Done:  E(RB3LYP) =  -550.995950827     A.U. after   12 cycles
 SCF Done:  E(RB3LYP) =  -550.996064868     A.U. after   12 cycles
 SCF Done:  E(RB3LYP) =  -550.996368855     A.U. after   11 cycles
 SCF Done:  E(RB3LYP) =  -550.996387356     A.U. after   10 cycles
 SCF Done:  E(RB3LYP) =  -550.996395057     A.U. after    9 cycles
 SCF Done:  E(RB3LYP) =  -550.996402809     A.U. after   10 cycles
 SCF Done:  E(RB3LYP) =  -550.996407322     A.U. after   10 cycles
 SCF Done:  E(RB3LYP) =  -550.996409006     A.U. after    8 cycles
 SCF Done:  E(RB3LYP) =  -550.996411149     A.U. after    9 cycles
 SCF Done:  E(RB3LYP) =  -550.996411476     A.U. after    8 cycles
 SCF Done:  E(RB3LYP) =  -550.996411622     A.U. after    7 cycles
 Optimization completed.
    -- Stationary point found.
 Normal termination of Gaussian 16 at Wed Dec  9 16:55:44 2020.

 --------------------------------------------------------------------
 #N Geom=AllCheck Guess=TCheck SCRF=Check GenChk RB3LYP/6-31G(d) Freq
 --------------------------------------------------------------------

 Structure from the checkpoint file:  "JID_2235.chk"
 -------------------------------
 CID_127003262_JID_2235_neutraal
 -------------------------------
 Charge =  0 Multiplicity = 1

 SCF Done:  E(RB3LYP) =  -550.996411622     A.U. after    1 cycles

  Exact polarizability: 117.568  -3.319  91.336  11.225   5.970  82.029
 Approx polarizability: 173.675  -2.712 150.257  29.508  22.527 134.317

                      1                      2                      3
                      A                      A                      A
 Frequencies --     40.6253                55.6753                89.1754
 Red. masses --      5.3633                 5.7438                 4.8260
 Frc consts  --      0.0052                 0.0105                 0.0226
 IR Inten    --      0.7799                 2.6589                 1.3565

                      4                      5                      6
                      A                      A                      A
 Frequencies --    128.8761               162.0476               196.0756
 Red. masses --      2.6651                 1.1481                 2.9295
 Frc consts  --      0.0261                 0.0178                 0.0664
 IR Inten    --      3.5883                 0.4746                 0.1528

                      7                      8                      9
                      A                      A                      A
 Frequencies --    219.9537               241.2376               274.5126
 Red. masses --      2.7516                 2.9690                 1.1577
 Frc consts  --      0.0784                 0.1018                 0.0514
 IR Inten    --      0.3116                 0.3749                 0.0339

                     10                     11                     12
                      A                      A                      A
 Frequencies --    314.8834               384.8430               413.9245
 Red. masses --      3.1709                 4.5474                 4.1243
 Frc consts  --      0.1852                 0.3968                 0.4163
 IR Inten    --      0.2366                 5.7336                 0.1794

                     13                     14                     15
                      A                      A                      A
 Frequencies --    423.7730               473.4859               588.3285
 Red. masses --      4.7239                 4.3461                 1.3604
 Frc consts  --      0.4998                 0.5741                 0.2774
 IR Inten    --      6.2153                 3.3229                79.2235

                     16                     17                     18
                      A                      A                      A
 Frequencies --    602.0110               646.0625               693.1975
 Red. masses --      3.9245                 8.7907                 3.4305
 Frc consts  --      0.8380                 2.1618                 0.9712
 IR Inten    --     15.4094                11.0455                10.9934

                     19                     20                     21
                      A                      A                      A
 Frequencies --    750.8591               755.6726               769.6617
 Red. masses --      2.7160                 3.7250                 3.4640
 Frc consts  --      0.9022                 1.2533                 1.2090
 IR Inten    --     12.5748                13.7563                16.9780

                     22                     23                     24
                      A                      A                      A
 Frequencies --    844.1313               927.2386               997.9284
 Red. masses --      3.6903                 1.7081                 1.4130
 Frc consts  --      1.5493                 0.8653                 0.8291
 IR Inten    --      0.9894                 1.5847                 1.8448

                     25                     26                     27
                      A                      A                      A
 Frequencies --   1000.8098              1008.2585              1046.6926
 Red. masses --      1.6482                 1.5530                 2.4485
 Frc consts  --      0.9727                 0.9302                 1.5805
 IR Inten    --     20.2102                 6.0227                35.6039

                     28                     29                     30
                      A                      A                      A
 Frequencies --   1079.1752              1097.9140              1121.9542
 Red. masses --      2.9949                 2.2669                 1.9146
 Frc consts  --      2.0550                 1.6100                 1.4200
 IR Inten    --      6.0920                 0.2677                 5.0903

                     31                     32                     33
                      A                      A                      A
 Frequencies --   1154.6705              1158.0781              1202.7088
 Red. masses --      1.3077                 3.4362                 2.2043
 Frc consts  --      1.0273                 2.7152                 1.8786
 IR Inten    --      7.6619                 1.5652                 4.7110

                     34                     35                     36
                      A                      A                      A
 Frequencies --   1228.4662              1245.7240              1271.4130
 Red. masses --      2.0469                 3.5057                 2.5001
 Frc consts  --      1.8200                 3.2053                 2.3811
 IR Inten    --     17.7191                 2.3858                10.3593

                     37                     38                     39
                      A                      A                      A
 Frequencies --   1312.0725              1360.2214              1382.1569
 Red. masses --      1.6119                 1.4513                 2.1712
 Frc consts  --      1.6349                 1.5821                 2.4438
 IR Inten    --     15.9703                 8.2730                97.7797

                     40                     41                     42
                      A                      A                      A
 Frequencies --   1399.7705              1442.7885              1466.6630
 Red. masses --      1.2206                 1.2367                 2.5906
 Frc consts  --      1.4090                 1.5167                 3.2833
 IR Inten    --      5.1214                10.6899                73.6251

                     43                     44                     45
                      A                      A                      A
 Frequencies --   1474.3838              1487.8011              1500.6401
 Red. masses --      2.0266                 1.5491                 1.2629
 Frc consts  --      2.5956                 2.0204                 1.6757
 IR Inten    --     16.1065                14.2358                13.2716

                     46                     47                     48
                      A                      A                      A
 Frequencies --   1522.3814              1529.0249              1535.2970
 Red. masses --      1.0572                 1.0548                 1.0674
 Frc consts  --      1.4436                 1.4530                 1.4824
 IR Inten    --     10.2652                 5.4847                24.2341

                     49                     50                     51
                      A                      A                      A
 Frequencies --   1549.0974              1609.9393              1641.7626
 Red. masses --      1.1041                 5.1032                 4.9074
 Frc consts  --      1.5611                 7.7932                 7.7933
 IR Inten    --     26.1153                46.8501                 9.5866

                     52                     53                     54
                      A                      A                      A
 Frequencies --   1782.7735              3049.6273              3063.3722
 Red. masses --      7.6519                 1.0453                 1.0365
 Frc consts  --     14.3289                 5.7277                 5.7308
 IR Inten    --    341.6937                38.8478                12.7672

                     55                     56                     57
                      A                      A                      A
 Frequencies --   3073.5522              3122.1279              3130.6801
 Red. masses --      1.0833                 1.0942                 1.1022
 Frc consts  --      6.0295                 6.2841                 6.3646
 IR Inten    --      2.4417                20.7617                31.2578

                     58                     59                     60
                      A                      A                      A
 Frequencies --   3141.4388              3163.0755              3166.4673
 Red. masses --      1.1025                 1.0911                 1.1001
 Frc consts  --      6.4105                 6.4320                 6.4990
 IR Inten    --     17.2515                11.2149                19.0305

                     61                     62                     63
                      A                      A                      A
 Frequencies --   3185.9768              3196.0935              3595.3172
 Red. masses --      1.0895                 1.0922                 1.0758
 Frc consts  --      6.5155                 6.5732                 8.1932
 IR Inten    --     21.3630                21.4929                23.9845

 - Thermochemistry -
 -------------------
 Temperature   298.150 Kelvin.  Pressure   1.00000 Atm.
 Atom     1 has atomic number  6 and mass  12.00000

 Molecular mass:   165.09021 amu.
 Principal axes and moments of inertia in atomic units:
                           1         2         3
     Eigenvalues --  1125.970462714.820152862.95746
           X            0.99980  -0.01659  -0.01089
           Y            0.01545   0.99510  -0.09762
           Z            0.01246   0.09743   0.99516
 This molecule is an asymmetric top.
 Rotational symmetry number  1.
 Warning -- assumption of classical behavior for rotation
           may cause significant error
 Rotational temperatures (Kelvin)      0.07692     0.03190     0.03025
 Rotational constants (GHZ):           1.60283     0.66477     0.63038
 Zero-point vibrational energy     499408.3 (Joules/Mol)
                                  119.36145 (Kcal/Mol)
 Warning -- explicit consideration of  16 degrees of freedom as
           vibrations may cause significant error
 Vibrational temperatures:     58.45    80.10   128.30   185.42   233.15
          (Kelvin)            282.11   316.46   347.09   394.96   453.05
                              553.70   595.55   609.71   681.24   846.47
                              866.16   929.54   997.36  1080.32  1087.24
                             1107.37  1214.52  1334.09  1435.80  1439.94
                             1450.66  1505.96  1552.69  1579.65  1614.24
                             1661.31  1666.22  1730.43  1767.49  1792.32
                             1829.28  1887.78  1957.06  1988.62  2013.96
                             2075.85  2110.20  2121.31  2140.61  2159.09
                             2190.37  2199.93  2208.95  2228.81  2316.34
                             2362.13  2565.01  4387.73  4407.51  4422.16
                             4492.05  4504.35  4519.83  4550.96  4555.84
                             4583.91  4598.47  5172.86

 Zero-point correction=                           0.190215 (Hartree/Particle)
 Thermal correction to Energy=                    0.201752
 Thermal correction to Enthalpy=                  0.202697
 Thermal correction to Gibbs Free Energy=         0.151972
 Sum of electronic and zero-point Energies=           -550.806197
 Sum of electronic and thermal Energies=              -550.794659
 Sum of electronic and thermal Enthalpies=            -550.793715
 Sum of electronic and thermal Free Energies=         -550.844440

                     E (Thermal)             CV                S
                      KCal/Mol        Cal/Mol-Kelvin    Cal/Mol-Kelvin
 Total                  126.602             42.004            106.760
 Electronic               0.000              0.000              0.000
 Translational            0.889              2.981             41.212
 Rotational               0.889              2.981             30.549
 Vibrational            124.824             36.043             34.998
 Vibration     1          0.594              1.981              5.228
 Vibration     2          0.596              1.975              4.605
 Vibration     3          0.602              1.957              3.678
 Vibration     4          0.611              1.924              2.963
 Vibration     5          0.622              1.889              2.526
 Vibration     6          0.636              1.845              2.170
 Vibration     7          0.647              1.811              1.959
 Vibration     8          0.658              1.777              1.794
 Vibration     9          0.677              1.720              1.568
 Vibration    10          0.702              1.645              1.337
 Vibration    11          0.754              1.503              1.020
 Vibration    12          0.778              1.440              0.913
 Vibration    13          0.786              1.419              0.879
 Vibration    14          0.830              1.309              0.728
 Vibration    15          0.946              1.057              0.470
 Vibration    16          0.960              1.028              0.446

                           ! Non-Optimized Parameters !
 Normal termination of Gaussian 16 at Wed Dec  9 17:01:22 2020.

 ----------------------------------------------------------------------
 # B3LYP/6-311++G(d,p) empiricaldispersion=gd3bj scf=xqc pop=npa geom=c
 heck
 ----------------------------------------------------------------------

 ---------------------------------------
 CID_127003262_JID_2235_Energie_neutraal
 ---------------------------------------
 Structure from the checkpoint file:  "JID_2235.chk"
 Charge =  0 Multiplicity = 1

 SCF Done:  E(RB3LYP) =  -551.152171013     A.U. after   15 cycles
 Normal termination of Gaussian 16 at Wed Dec  9 17:03:52 2020.

 ----------------------------------------------------------------------
 # B3LYP/6-311++G(d,p) empiricaldispersion=gd3bj scf=xqc pop=npa geom=c
 heck
 ----------------------------------------------------------------------

 -------------------------------------
 CID_127003262_JID_2235_Energie_kation
 -------------------------------------
 Structure from the checkpoint file:  "JID_2235.chk"
 Charge =  1 Multiplicity = 2

 SCF Done:  E(UB3LYP) =  -550.821974314     A.U. after   33 cycles
 SCF Done:  E(UB3LYP) =  -550.821974314     a.u. after    1 cycles
 Normal termination of Gaussian 16 at Wed Dec  9 17:12:13 2020.
 Gaussian 16:  ES64L-G16RevA.03 25-Dec-2016

 ----------------------------------------------------------------------
 # B3LYP/6-311++G(d,p) empiricaldispersion=gd3bj scf=xqc pop=npa geom=c
 heck
 ----------------------------------------------------------------------

 ------------------------------------
 CID_127003262_JID_2235_Energie_anion
 ------------------------------------
 Structure from the checkpoint file:  "JID_2235.chk"
 Charge = -1 Multiplicity = 2

                         Standard orientation:
 ---------------------------------------------------------------------
 Center     Atomic      Atomic             Coordinates (Angstroms)
 Number     Number       Type             X           Y           Z
 ---------------------------------------------------------------------
      1          6           0       -1.349349    2.088664   -0.080095
      2          6           0       -0.908905    0.754233   -0.702846
      3          6           0        0.526330    0.352087   -0.423157
      4          6           0        1.448203    1.134110    0.274045
      5          7           0        2.710737    0.747871    0.502711
      6          6           0        3.052459   -0.448374    0.019114
      7          7           0        2.270626   -1.290115   -0.668484
      8          6           0        1.019734   -0.875719   -0.883334
      9          6           0       -1.916758   -0.364224   -0.372457
     10          8           0       -2.707946   -0.751955   -1.223948
     11          7           0       -1.946052   -0.878622    0.895639
     12          6           0       -1.009936   -0.702932    1.994749
     13          1           0       -1.281871    2.088306    1.012160
     14          1           0       -2.389073    2.290080   -0.352500
     15          1           0       -0.736291    2.913769   -0.456915
     16          1           0       -1.016341    0.852242   -1.788337
     17          1           0        1.170272    2.107085    0.672911
     18          1           0        4.073667   -0.774855    0.202910
     19          1           0        0.372586   -1.551493   -1.442626
     20          1           0       -2.621262   -1.628428    0.980909
     21          1           0       -1.510726   -0.996130    2.921232
     22          1           0       -0.101576   -1.307631    1.880574
     23          1           0       -0.713657    0.341688    2.096086
 ---------------------------------------------------------------------

 SCF Done:  E(UB3LYP) =  -551.151548058     A.U. after   33 cycles
 SCF Done:  E(UB3LYP) =  -551.151548058     a.u. after    1 cycles

 The electronic state is 2-A.
 Alpha  occ. eigenvalues --  -18.97614 -14.22545 -14.16359 -14.16279 -10.16080
 Alpha  occ. eigenvalues --  -10.09531 -10.09237 -10.08090 -10.06765 -10.06484
 Alpha  occ. eigenvalues --  -10.05995 -10.05855  -0.92754  -0.83982  -0.80824
 Alpha  occ. eigenvalues --   -0.74246  -0.70360  -0.63038  -0.59829  -0.55591
 Alpha  occ. eigenvalues --   -0.51446  -0.50050  -0.46150  -0.39720  -0.38360
 Alpha  occ. eigenvalues --   -0.38015  -0.36168  -0.34251  -0.33799  -0.32108
 Alpha  occ. eigenvalues --   -0.29522  -0.28913  -0.28514  -0.27705  -0.26966
 Alpha  occ. eigenvalues --   -0.26931  -0.25465  -0.24998  -0.18110  -0.16534
 Alpha  occ. eigenvalues --   -0.15172  -0.14370  -0.13579  -0.11078   0.04857
 Alpha virt. eigenvalues --    0.06741   0.08148   0.09619   0.09953   0.10084
 Alpha virt. eigenvalues --    0.10975   0.11498   0.12213   0.12659   0.13047
 Alpha virt. eigenvalues --    0.13704   0.14355   0.15818   0.16207   0.16867

  Beta  occ. eigenvalues --  -18.97609 -14.22527 -14.16095 -14.15963 -10.16080
  Beta  occ. eigenvalues --  -10.09589 -10.09204 -10.08080 -10.06755 -10.06217
  Beta  occ. eigenvalues --  -10.05960 -10.05655  -0.92741  -0.83509  -0.80784
  Beta  occ. eigenvalues --   -0.73569  -0.70283  -0.62790  -0.59766  -0.55480
  Beta  occ. eigenvalues --   -0.50843  -0.49872  -0.46095  -0.39535  -0.38298
  Beta  occ. eigenvalues --   -0.37825  -0.36050  -0.34190  -0.33724  -0.32054
  Beta  occ. eigenvalues --   -0.29416  -0.28845  -0.27760  -0.27466  -0.26865
  Beta  occ. eigenvalues --   -0.26736  -0.25333  -0.24842  -0.16199  -0.16026
  Beta  occ. eigenvalues --   -0.14935  -0.14307  -0.12915  -0.10755
  Beta virt. eigenvalues --    0.07616   0.08604   0.09727   0.09936   0.10316
  Beta virt. eigenvalues --    0.10477   0.11030   0.11784   0.12372   0.12754
  Beta virt. eigenvalues --    0.13157   0.13742   0.14471   0.15723   0.16255

 Mulliken charges and spin densities:
               1          2
     1  C   -0.458897  -0.236671
     2  C    0.268690  -0.328357
     3  C    0.086795   0.156497
     4  C   -0.050710  -0.087848
     5  N   -0.167954   0.170833
     6  C   -0.025960  -0.059746
     7  N   -0.127720   0.121825
     8  C   -0.433942   0.265725
     9  C   -0.183786   0.080901
    10  O   -0.340757   0.017731
    11  N   -0.279477   0.040903
    12  C    0.493423  -0.902596
    13  H   -0.013334   0.154563
    14  H    0.065155   0.091539
    15  H    0.061399   0.080475
    16  H    0.281315  -0.039401
    17  H    0.147385  -0.009278
    18  H    0.156439   0.001647
    19  H    0.178053  -0.011124
    20  H   -0.062735   0.374830
    21  H   -0.989542   1.166611
    22  H    0.188208   0.002778
    23  H    0.207952  -0.051838
 Sum of Mulliken charges =  -1.00000   1.00000

 Dipole moment (field-independent basis, Debye):
    X=              0.4912    Y=              3.0441    Z=             -1.6241  Tot=              3.4851
 Quadrupole moment (field-independent basis, Debye-Ang):
   XX=           -121.9942   YY=            -93.5435   ZZ=           -102.5558
   XY=             -7.1914   XZ=              5.0367   YZ=              0.1172

 Summary of Natural Population Analysis:

                                       Natural Population
                Natural  -----------------------------------------------
    Atom  No    Charge         Core      Valence    Rydberg      Total
 -----------------------------------------------------------------------
      C    1   -0.28138      0.99965     2.27705    0.00468     3.28138
      C    2   -0.15328      0.99953     2.14270    0.01105     3.15328
      C    3   -0.07669      0.99948     2.06773    0.00947     3.07669
      C    4    0.07435      0.99953     1.91225    0.01387     2.92565
      N    5   -0.21637      0.99971     2.70445    0.01220     3.71637
      C    6    0.11752      0.99967     1.86355    0.01926     2.88248
      N    7   -0.21909      0.99971     2.70907    0.01030     3.71909
      C    8    0.09379      0.99954     1.89076    0.01591     2.90621
      C    9    0.35139      0.99963     1.62303    0.02595     2.64861
      O   10   -0.33095      0.99988     3.32519    0.00589     4.33095
      N   11   -0.31859      0.99967     2.80685    0.01207     3.81859
      C   12   -0.17909      0.99963     2.17095    0.00851     3.17909
      H   13    0.09824      0.00000     0.40072    0.00104     0.40176
      H   14    0.10214      0.00000     0.39700    0.00086     0.39786
      H   15    0.10080      0.00000     0.39814    0.00106     0.39920
      H   16    0.11280      0.00000     0.38546    0.00174     0.38720
      H   17    0.07977      0.00000     0.41769    0.00254     0.42023
      H   18    0.07334      0.00000     0.42534    0.00132     0.42666
      H   19    0.08314      0.00000     0.41498    0.00188     0.41686
      H   20    0.19304      0.00000     0.30323    0.00372     0.30696
      H   21    0.09940      0.00000     0.39831    0.00230     0.40060
      H   22    0.09849      0.00000     0.40004    0.00146     0.40151
      H   23    0.09723      0.00000     0.40126    0.00151     0.40277
 =======================================================================
   * Total *   -0.00000     11.99565    31.83575    0.16860    44.00000

 Normal termination of Gaussian 16 at Wed Dec  9 17:20:04 2020.
