 Gaussian 16, Revision A.03,

 -----------------------------------------------------------
 # opt freq B3LYP/6-31G(d) empiricaldispersion=gd3bj scf=xqc
 -----------------------------------------------------------

 -------------------------------
 CID_105696050_JID_4723_neutraal
 -------------------------------
 Symbolic Z-matrix:
 Charge =  0 Multiplicity = 1

 SCF Done:  E(RB3LYP) =  -618.416854397     A.U. after   14 cycles
 SCF Done:  E(RB3LYP) =  -618.420179921     A.U. after   12 cycles
 SCF Done:  E(RB3LYP) =  -618.420015564     A.U. after   12 cycles
 SCF Done:  E(RB3LYP) =  -618.420662604     A.U. after   11 cycles
 SCF Done:  E(RB3LYP) =  -618.421019582     A.U. after   11 cycles
 SCF Done:  E(RB3LYP) =  -618.421071387     A.U. after   10 cycles
 SCF Done:  E(RB3LYP) =  -618.421156717     A.U. after   10 cycles
 SCF Done:  E(RB3LYP) =  -618.421176227     A.U. after   10 cycles
 SCF Done:  E(RB3LYP) =  -618.421180002     A.U. after    9 cycles
 SCF Done:  E(RB3LYP) =  -618.421183775     A.U. after    8 cycles
 SCF Done:  E(RB3LYP) =  -618.421186724     A.U. after    9 cycles
 SCF Done:  E(RB3LYP) =  -618.421188367     A.U. after    9 cycles
 SCF Done:  E(RB3LYP) =  -618.421190264     A.U. after    9 cycles
 SCF Done:  E(RB3LYP) =  -618.421191578     A.U. after    9 cycles
 SCF Done:  E(RB3LYP) =  -618.421191853     A.U. after    7 cycles
 SCF Done:  E(RB3LYP) =  -618.421191879     A.U. after    7 cycles
 Optimization completed.
    -- Stationary point found.
 Normal termination of Gaussian 16 at Thu Dec 10 10:32:43 2020.

 --------------------------------------------------------------------
 #N Geom=AllCheck Guess=TCheck SCRF=Check GenChk RB3LYP/6-31G(d) Freq
 --------------------------------------------------------------------

 Structure from the checkpoint file:  "JID_4723.chk"
 -------------------------------
 CID_105696050_JID_4723_neutraal
 -------------------------------
 Charge =  0 Multiplicity = 1

 SCF Done:  E(RB3LYP) =  -618.421191879     A.U. after    1 cycles

  Exact polarizability: 150.020   0.356 128.209   2.607   3.674 121.716
 Approx polarizability: 186.979   7.543 183.120   3.431  12.319 177.731

                      1                      2                      3
                      A                      A                      A
 Frequencies --     24.6036                30.3152                47.8975
 Red. masses --      3.1300                 4.4503                 4.0835
 Frc consts  --      0.0011                 0.0024                 0.0055
 IR Inten    --      0.1894                 0.2765                 1.0130

                      4                      5                      6
                      A                      A                      A
 Frequencies --     62.0113                78.6247               114.6770
 Red. masses --      2.4891                 1.7370                 2.7535
 Frc consts  --      0.0056                 0.0063                 0.0213
 IR Inten    --      0.2948                 2.0580                 0.8466

                      7                      8                      9
                      A                      A                      A
 Frequencies --    132.2247               141.1258               166.6111
 Red. masses --      3.6301                 3.0680                 2.4998
 Frc consts  --      0.0374                 0.0360                 0.0409
 IR Inten    --      1.6308                 3.0722                 1.1616

                     10                     11                     12
                      A                      A                      A
 Frequencies --    219.9664               227.6420               254.5039
 Red. masses --      2.2866                 1.1861                 1.2167
 Frc consts  --      0.0652                 0.0362                 0.0464
 IR Inten    --      0.9902                 0.5455                 0.4046

                     13                     14                     15
                      A                      A                      A
 Frequencies --    260.9813               269.0862               272.4911
 Red. masses --      1.2368                 1.0423                 1.9146
 Frc consts  --      0.0496                 0.0445                 0.0838
 IR Inten    --      1.0181                 1.0248                 0.6098

                     16                     17                     18
                      A                      A                      A
 Frequencies --    295.0264               311.2997               324.3071
 Red. masses --      2.3595                 2.0321                 2.2525
 Frc consts  --      0.1210                 0.1160                 0.1396
 IR Inten    --      0.9373                 1.2159                 0.7206

                     19                     20                     21
                      A                      A                      A
 Frequencies --    345.8099               383.3713               402.1663
 Red. masses --      2.3386                 2.0779                 3.0145
 Frc consts  --      0.1648                 0.1799                 0.2873
 IR Inten    --      0.8610                 0.0417                 1.2056

                     22                     23                     24
                      A                      A                      A
 Frequencies --    410.1309               433.4202               459.5728
 Red. masses --      2.3686                 2.2595                 2.8174
 Frc consts  --      0.2347                 0.2501                 0.3506
 IR Inten    --      0.3168                 0.4100                 0.6059

                     25                     26                     27
                      A                      A                      A
 Frequencies --    504.1690               541.7472               587.2470
 Red. masses --      2.5498                 2.6052                 1.2737
 Frc consts  --      0.3819                 0.4505                 0.2588
 IR Inten    --      8.2796                22.5225                86.1689

                     28                     29                     30
                      A                      A                      A
 Frequencies --    614.8355               711.7081               725.7423
 Red. masses --      3.7289                 2.7990                 3.7650
 Frc consts  --      0.8305                 0.8353                 1.1684
 IR Inten    --     24.2576                 1.7135                 8.4767

                     31                     32                     33
                      A                      A                      A
 Frequencies --    802.6134               819.7410               863.9675
 Red. masses --      1.2515                 1.3210                 2.4286
 Frc consts  --      0.4750                 0.5230                 1.0681
 IR Inten    --     82.9403                19.0447                 2.6712

                     34                     35                     36
                      A                      A                      A
 Frequencies --    887.7797               926.8403               938.9748
 Red. masses --      3.4696                 1.7599                 1.4240
 Frc consts  --      1.6112                 0.8908                 0.7397
 IR Inten    --      1.9536                 2.4517                 1.4767

                     37                     38                     39
                      A                      A                      A
 Frequencies --    945.4223               961.1274               979.5368
 Red. masses --      1.5778                 1.5074                 1.4512
 Frc consts  --      0.8309                 0.8204                 0.8204
 IR Inten    --      0.1234                 0.3916                 0.5414

                     40                     41                     42
                      A                      A                      A
 Frequencies --   1001.4194              1002.1752              1035.5030
 Red. masses --      1.6170                 1.7367                 1.4406
 Frc consts  --      0.9554                 1.0277                 0.9101
 IR Inten    --      1.0975                 6.1591                 4.1336

                     43                     44                     45
                      A                      A                      A
 Frequencies --   1042.4263              1068.4934              1113.0934
 Red. masses --      2.4414                 1.7501                 2.2013
 Frc consts  --      1.5631                 1.1772                 1.6069
 IR Inten    --      2.3427                22.5190                 4.3425

                     46                     47                     48
                      A                      A                      A
 Frequencies --   1118.3508              1145.3285              1155.9828
 Red. masses --      1.5354                 1.4740                 2.6596
 Frc consts  --      1.1314                 1.1392                 2.0940
 IR Inten    --      8.0722                10.2049                25.1427

                     49                     50                     51
                      A                      A                      A
 Frequencies --   1159.6388              1194.9898              1197.2640
 Red. masses --      2.3147                 1.8914                 1.9128
 Frc consts  --      1.8340                 1.5913                 1.6155
 IR Inten    --     25.1549                24.9081                10.4160

                     52                     53                     54
                      A                      A                      A
 Frequencies --   1225.9629              1232.7312              1261.8029
 Red. masses --      2.7545                 1.8390                 1.4992
 Frc consts  --      2.4392                 1.6465                 1.4064
 IR Inten    --      3.6458                12.5240                19.3489

                     55                     56                     57
                      A                      A                      A
 Frequencies --   1276.6048              1304.0799              1326.2277
 Red. masses --      2.5563                 1.4478                 1.1981
 Frc consts  --      2.4545                 1.4507                 1.2416
 IR Inten    --      2.2187                28.8665                11.4787

                     58                     59                     60
                      A                      A                      A
 Frequencies --   1330.6658              1368.4020              1375.1547
 Red. masses --      1.3563                 1.4112                 1.2950
 Frc consts  --      1.4150                 1.5569                 1.4428
 IR Inten    --     13.5090                 2.0593                31.4497

                     61                     62                     63
                      A                      A                      A
 Frequencies --   1399.1620              1415.3200              1422.8250
 Red. masses --      1.5518                 1.3793                 1.9055
 Frc consts  --      1.7898                 1.6279                 2.2728
 IR Inten    --     38.4128                12.7916               125.3255

                     64                     65                     66
                      A                      A                      A
 Frequencies --   1427.0379              1434.7067              1447.7510
 Red. masses --      1.3029                 1.2328                 1.2330
 Frc consts  --      1.5632                 1.4951                 1.5227
 IR Inten    --     11.6654                14.0864                14.0456

                     67                     68                     69
                      A                      A                      A
 Frequencies --   1460.0966              1483.7254              1488.8700
 Red. masses --      1.2235                 1.1846                 1.5688
 Frc consts  --      1.5368                 1.5365                 2.0490
 IR Inten    --      1.2445                 0.4825                50.2587

                     70                     71                     72
                      A                      A                      A
 Frequencies --   1506.9684              1514.6594              1518.6749
 Red. masses --      1.2336                 1.0495                 1.0584
 Frc consts  --      1.6505                 1.4186                 1.4382
 IR Inten    --      9.2319                 1.0337                19.9519

                     73                     74                     75
                      A                      A                      A
 Frequencies --   1519.5711              1523.1665              1525.1456
 Red. masses --      1.0540                 1.1057                 1.0592
 Frc consts  --      1.4339                 1.5114                 1.4516
 IR Inten    --      2.2990                14.0679                 5.0672

                     76                     77                     78
                      A                      A                      A
 Frequencies --   1532.2421              1538.4740              1540.4467
 Red. masses --      1.0588                 1.0514                 1.0665
 Frc consts  --      1.4646                 1.4662                 1.4910
 IR Inten    --      7.7050                14.7135                 5.7916

                     79                     80                     81
                      A                      A                      A
 Frequencies --   1543.5268              1547.8447              1550.2100
 Red. masses --      1.0646                 1.0597                 1.0593
 Frc consts  --      1.4944                 1.4958                 1.4998
 IR Inten    --     15.6280                 4.5610                 2.5950

                     82                     83                     84
                      A                      A                      A
 Frequencies --   1552.9992              1558.3207              1786.8737
 Red. masses --      1.0566                 1.0757                 7.9685
 Frc consts  --      1.5014                 1.5390                14.9904
 IR Inten    --      4.2564                 1.6339               384.4025

                     85                     86                     87
                      A                      A                      A
 Frequencies --   2926.3996              2949.7104              2993.1384
 Red. masses --      1.0723                 1.0617                 1.0735
 Frc consts  --      5.4103                 5.4428                 5.6663
 IR Inten    --    100.7504               107.8680                45.1732

                     88                     89                     90
                      A                      A                      A
 Frequencies --   3008.1523              3047.8197              3052.2221
 Red. masses --      1.0833                 1.0356                 1.0360
 Frc consts  --      5.7755                 5.6679                 5.6867
 IR Inten    --     29.0029                11.4174                35.9519

                     91                     92                     93
                      A                      A                      A
 Frequencies --   3054.6335              3057.4888              3060.9076
 Red. masses --      1.0369                 1.0695                 1.0383
 Frc consts  --      5.7006                 5.8907                 5.7314
 IR Inten    --     28.9688                 8.9864                12.9710

                     94                     95                     96
                      A                      A                      A
 Frequencies --   3076.7110              3078.4395              3104.5247
 Red. masses --      1.0745                 1.0814                 1.0888
 Frc consts  --      5.9927                 6.0382                 6.1830
 IR Inten    --     23.4419                49.6694                14.2100

                     97                     98                     99
                      A                      A                      A
 Frequencies --   3110.6162              3113.8929              3117.4876
 Red. masses --      1.1027                 1.1006                 1.1014
 Frc consts  --      6.2864                 6.2877                 6.3067
 IR Inten    --      0.3817                 7.9371                37.1487

                    100                    101                    102
                      A                      A                      A
 Frequencies --   3117.5316              3121.0502              3123.6203
 Red. masses --      1.1010                 1.1015                 1.1027
 Frc consts  --      6.3046                 6.3215                 6.3391
 IR Inten    --     68.9187                17.1012                29.4352

                    103                    104                    105
                      A                      A                      A
 Frequencies --   3124.0159              3131.0519              3141.5113
 Red. masses --      1.0990                 1.1001                 1.0970
 Frc consts  --      6.3193                 6.3545                 6.3787
 IR Inten    --     72.6372                35.0765                16.4936

                    106                    107                    108
                      A                      A                      A
 Frequencies --   3142.3589              3478.5577              3612.2061
 Red. masses --      1.1021                 1.0738                 1.0750
 Frc consts  --      6.4120                 7.6554                 8.2644
 IR Inten    --     26.4671                 1.9136                15.7603

 - Thermochemistry -
 -------------------
 Temperature   298.150 Kelvin.  Pressure   1.00000 Atm.
 Atom     1 has atomic number  6 and mass  12.00000

 Molecular mass:   200.18886 amu.
 Principal axes and moments of inertia in atomic units:
                           1         2         3
     Eigenvalues --  2074.043655033.432675694.57684
           X            0.99983  -0.01854   0.00179
           Y            0.01858   0.99948  -0.02641
           Z           -0.00130   0.02644   0.99965
 This molecule is an asymmetric top.
 Rotational symmetry number  1.
 Warning -- assumption of classical behavior for rotation
           may cause significant error
 Rotational temperatures (Kelvin)      0.04176     0.01721     0.01521
 Rotational constants (GHZ):           0.87016     0.35855     0.31692
 Zero-point vibrational energy     917525.5 (Joules/Mol)
                                  219.29385 (Kcal/Mol)
 Warning -- explicit consideration of  28 degrees of freedom as
           vibrations may cause significant error
 Vibrational temperatures:     35.40    43.62    68.91    89.22   113.12
          (Kelvin)            164.99   190.24   203.05   239.72   316.48
                              327.53   366.17   375.49   387.16   392.05
                              424.48   447.89   466.61   497.54   551.59
                              578.63   590.09   623.60   661.22   725.39
                              779.45   844.92   884.61  1023.99  1044.18
                             1154.78  1179.42  1243.06  1277.32  1333.52
                             1350.98  1360.25  1382.85  1409.33  1440.82
                             1441.91  1489.86  1499.82  1537.32  1601.49
                             1609.06  1647.87  1663.20  1668.46  1719.32
                             1722.60  1763.89  1773.63  1815.45  1836.75
                             1876.28  1908.15  1914.53  1968.83  1978.54
                             2013.08  2036.33  2047.13  2053.19  2064.22
                             2082.99  2100.75  2134.75  2142.15  2168.19
                             2179.26  2185.03  2186.32  2191.50  2194.34
                             2204.55  2213.52  2216.36  2220.79  2227.00
                             2230.41  2234.42  2242.08  2570.91  4210.44
                             4243.98  4306.46  4328.06  4385.13  4391.47
                             4394.94  4399.04  4403.96  4426.70  4429.19
                             4466.72  4475.48  4480.20  4485.37  4485.43
                             4490.50  4494.19  4494.76  4504.89  4519.93
                             4521.15  5004.87  5197.16

 Zero-point correction=                           0.349467 (Hartree/Particle)
 Thermal correction to Energy=                    0.367084
 Thermal correction to Enthalpy=                  0.368028
 Thermal correction to Gibbs Free Energy=         0.303269
 Sum of electronic and zero-point Energies=           -618.071725
 Sum of electronic and thermal Energies=              -618.054108
 Sum of electronic and thermal Enthalpies=            -618.053164
 Sum of electronic and thermal Free Energies=         -618.117923

                     E (Thermal)             CV                S
                      KCal/Mol        Cal/Mol-Kelvin    Cal/Mol-Kelvin
 Total                  230.349             64.850            136.298
 Electronic               0.000              0.000              0.000
 Translational            0.889              2.981             41.787
 Rotational               0.889              2.981             32.453
 Vibrational            228.571             58.889             62.058
 Vibration     1          0.593              1.985              6.223
 Vibration     2          0.594              1.984              5.809
 Vibration     3          0.595              1.978              4.902
 Vibration     4          0.597              1.972              4.392
 Vibration     5          0.600              1.964              3.925
 Vibration     6          0.608              1.937              3.188
 Vibration     7          0.612              1.921              2.913
 Vibration     8          0.615              1.912              2.789
 Vibration     9          0.624              1.884              2.473
 Vibration    10          0.647              1.811              1.959
 Vibration    11          0.651              1.799              1.897
 Vibration    12          0.665              1.755              1.699
 Vibration    13          0.669              1.744              1.655
 Vibration    14          0.673              1.730              1.602
 Vibration    15          0.675              1.724              1.580
 Vibration    16          0.689              1.683              1.445
 Vibration    17          0.700              1.652              1.355
 Vibration    18          0.709              1.627              1.288
 Vibration    19          0.724              1.584              1.185
 Vibration    20          0.753              1.506              1.026
 Vibration    21          0.768              1.465              0.955
 Vibration    22          0.774              1.448              0.926
 Vibration    23          0.794              1.397              0.848
 Vibration    24          0.817              1.340              0.767
 Vibration    25          0.859              1.241              0.648
 Vibration    26          0.897              1.158              0.562
 Vibration    27          0.944              1.059              0.472
 Vibration    28          0.974              1.000              0.425

                           ! Non-Optimized Parameters !
 Normal termination of Gaussian 16 at Thu Dec 10 10:45:46 2020.

 ----------------------------------------------------------------------
 # B3LYP/6-311++G(d,p) empiricaldispersion=gd3bj scf=xqc pop=npa geom=c
 heck
 ----------------------------------------------------------------------

 ---------------------------------------
 CID_105696050_JID_4723_Energie_neutraal
 ---------------------------------------
 Structure from the checkpoint file:  "JID_4723.chk"
 Charge =  0 Multiplicity = 1

 SCF Done:  E(RB3LYP) =  -618.607636714     A.U. after   14 cycles
 Normal termination of Gaussian 16 at Thu Dec 10 10:52:20 2020.

 ----------------------------------------------------------------------
 # B3LYP/6-311++G(d,p) empiricaldispersion=gd3bj scf=xqc pop=npa geom=c
 heck
 ----------------------------------------------------------------------

 -------------------------------------
 CID_105696050_JID_4723_Energie_kation
 -------------------------------------
 Structure from the checkpoint file:  "JID_4723.chk"
 Charge =  1 Multiplicity = 2

 SCF Done:  E(UB3LYP) =  -618.298098069     A.U. after   32 cycles
 Normal termination of Gaussian 16 at Thu Dec 10 11:13:03 2020.
 Gaussian 16:  ES64L-G16RevA.03 25-Dec-2016

 ----------------------------------------------------------------------
 # B3LYP/6-311++G(d,p) empiricaldispersion=gd3bj scf=xqc pop=npa geom=c
 heck
 ----------------------------------------------------------------------

 ------------------------------------
 CID_105696050_JID_4723_Energie_anion
 ------------------------------------
 Structure from the checkpoint file:  "JID_4723.chk"
 Charge = -1 Multiplicity = 2

                         Standard orientation:
 ---------------------------------------------------------------------
 Center     Atomic      Atomic             Coordinates (Angstroms)
 Number     Number       Type             X           Y           Z
 ---------------------------------------------------------------------
      1          6           0       -1.089044   -1.979147    1.021200
      2          6           0       -2.244591   -0.988313    0.813567
      3          6           0       -2.322087   -0.056897    2.035913
      4          6           0       -2.212092   -0.281605   -0.585532
      5          6           0       -2.567592   -1.319325   -1.671277
      6          6           0       -3.271113    0.834646   -0.661722
      7          6           0       -0.823543    0.280281   -0.966030
      8          7           0       -0.337701    1.307035   -0.057053
      9          6           0        0.937184    1.795662    0.063789
     10          8           0        1.181277    2.743032    0.802394
     11          6           0        2.041113    1.078171   -0.700850
     12          6           0        2.650258   -0.050461    0.140753
     13          7           0        3.790745   -0.646824   -0.541702
     14          6           0        4.403532   -1.724082    0.225862
     15          1           0       -0.138628   -1.450156    1.153236
     16          1           0       -0.975920   -2.681806    0.189606
     17          1           0       -1.259301   -2.570109    1.927783
     18          1           0       -3.178738   -1.569707    0.807901
     19          1           0       -1.400880    0.517826    2.167899
     20          1           0       -3.162325    0.641396    1.979161
     21          1           0       -2.462787   -0.657792    2.941704
     22          1           0       -3.563598   -1.737824   -1.490310
     23          1           0       -2.575833   -0.857145   -2.665023
     24          1           0       -1.854883   -2.149655   -1.698369
     25          1           0       -3.065206    1.675723    0.007328
     26          1           0       -3.333391    1.232904   -1.680899
     27          1           0       -4.259398    0.444250   -0.392945
     28          1           0       -0.103317   -0.541979   -0.983300
     29          1           0       -0.887931    0.669969   -1.994472
     30          1           0       -1.021431    1.879453    0.420127
     31          1           0        1.681840    0.680921   -1.658021
     32          1           0        2.818662    1.815770   -0.909911
     33          1           0        3.001052    0.374336    1.088906
     34          1           0        1.869920   -0.793635    0.400252
     35          1           0        3.483001   -1.011367   -1.442204
     36          1           0        3.701733   -2.525833    0.525008
     37          1           0        5.212990   -2.174748   -0.357137
     38          1           0        4.840702   -1.310100    1.141773
 ---------------------------------------------------------------------

 SCF Done:  E(UB3LYP) =  -618.598233054     A.U. after   31 cycles

 The electronic state is 2-A.
 Alpha  occ. eigenvalues --  -18.99277 -14.24084 -14.20789 -10.17877 -10.11295
 Alpha  occ. eigenvalues --  -10.10624 -10.09786 -10.09657 -10.08332 -10.08243
 Alpha  occ. eigenvalues --  -10.07004 -10.06484 -10.06202 -10.06100  -0.94386
 Alpha  occ. eigenvalues --   -0.83152  -0.81590  -0.73826  -0.67772  -0.66880
 Alpha  occ. eigenvalues --   -0.61022  -0.59805  -0.58259  -0.57994  -0.53069
 Alpha  occ. eigenvalues --   -0.51583  -0.48402  -0.44891  -0.40854  -0.40510
 Alpha  occ. eigenvalues --   -0.38805  -0.38185  -0.36258  -0.36131  -0.34917
 Alpha  occ. eigenvalues --   -0.33985  -0.33502  -0.32715  -0.31858  -0.30884
 Alpha  occ. eigenvalues --   -0.30300  -0.30046  -0.28890  -0.28507  -0.27745
 Alpha  occ. eigenvalues --   -0.27556  -0.26562  -0.26306  -0.25902  -0.25452
 Alpha  occ. eigenvalues --   -0.23016  -0.22485  -0.22070  -0.16446  -0.15866
 Alpha  occ. eigenvalues --   -0.13985   0.04026
 Alpha virt. eigenvalues --    0.06023   0.06799   0.07553   0.08075   0.08509
 Alpha virt. eigenvalues --    0.08984   0.09614   0.09851   0.10279   0.10466
 Alpha virt. eigenvalues --    0.10934   0.11521   0.11943   0.12325   0.12764

  Beta  occ. eigenvalues --  -18.99276 -14.24079 -14.20764 -10.17875 -10.11270
  Beta  occ. eigenvalues --  -10.10615 -10.09785 -10.09632 -10.08319 -10.08230
  Beta  occ. eigenvalues --  -10.06973 -10.06470 -10.06162 -10.06071  -0.94382
  Beta  occ. eigenvalues --   -0.83141  -0.81555  -0.73803  -0.67747  -0.66847
  Beta  occ. eigenvalues --   -0.60972  -0.59756  -0.58209  -0.57933  -0.53008
  Beta  occ. eigenvalues --   -0.51523  -0.48376  -0.44845  -0.40816  -0.40475
  Beta  occ. eigenvalues --   -0.38771  -0.38142  -0.36208  -0.36102  -0.34874
  Beta  occ. eigenvalues --   -0.33950  -0.33471  -0.32691  -0.31838  -0.30860
  Beta  occ. eigenvalues --   -0.30268  -0.30022  -0.28858  -0.28480  -0.27708
  Beta  occ. eigenvalues --   -0.27524  -0.26522  -0.26285  -0.25870  -0.25422
  Beta  occ. eigenvalues --   -0.22972  -0.22451  -0.22044  -0.16439  -0.15854
  Beta  occ. eigenvalues --   -0.13950
  Beta virt. eigenvalues --    0.06288   0.06775   0.07426   0.08066   0.08555
  Beta virt. eigenvalues --    0.08984   0.09434   0.09728   0.10087   0.10662
  Beta virt. eigenvalues --    0.10714   0.11120   0.11793   0.12108   0.12692

 Mulliken charges and spin densities:
               1          2
     1  C    0.184165  -0.947829
     2  C   -0.010973   0.479904
     3  C   -0.523519  -0.301436
     4  C   -1.406847   1.902943
     5  C    1.168026  -1.685404
     6  C    0.678828  -1.157702
     7  C    0.395440  -1.205209
     8  N   -0.142921   0.085710
     9  C   -0.094773  -0.040099
    10  O   -0.327770   0.003192
    11  C    0.347910  -0.466625
    12  C   -0.704020   0.183744
    13  N   -0.083352   0.051443
    14  C    0.280087  -0.612474
    15  H    0.048581   0.112201
    16  H   -0.117278   0.268093
    17  H   -0.086391   0.222912
    18  H   -0.090341   0.292255
    19  H    0.088736   0.073576
    20  H    0.005849   0.131804
    21  H   -0.013394   0.154776
    22  H   -0.255984   0.418431
    23  H   -0.132196   0.273323
    24  H   -0.343481   0.484895
    25  H    0.004174   0.077281
    26  H   -0.044886   0.203361
    27  H   -0.366916   0.545040
    28  H    0.010317   0.149159
    29  H   -0.009062   0.210304
    30  H    0.347250  -0.007059
    31  H   -0.143546   0.335191
    32  H    0.233630  -0.014479
    33  H    0.110295   0.057561
    34  H    0.499653  -0.370025
    35  H   -0.120516   0.328797
    36  H   -0.236324   0.358895
    37  H   -0.158844   0.288121
    38  H    0.010394   0.115430
 Sum of Mulliken charges =  -1.00000   1.00000

 Dipole moment (field-independent basis, Debye):
    X=              0.5755    Y=              2.6150    Z=              2.3127  Tot=              3.5381
 Quadrupole moment (field-independent basis, Debye-Ang):
   XX=           -167.9172   YY=           -144.4494   ZZ=           -130.1385
   XY=             -3.5876   XZ=             -0.0347   YZ=             -8.3462

 Summary of Natural Population Analysis:

                                       Natural Population
                Natural  -----------------------------------------------
    Atom  No    Charge         Core      Valence    Rydberg      Total
 -----------------------------------------------------------------------
      C    1   -0.28776      0.99964     2.28077    0.00734     3.28776
      C    2   -0.10947      0.99957     2.09791    0.01199     3.10947
      C    3   -0.28801      0.99964     2.28215    0.00622     3.28801
      C    4   -0.04403      0.99956     2.02972    0.01475     3.04403
      C    5   -0.28341      0.99962     2.27620    0.00759     3.28341
      C    6   -0.28757      0.99962     2.28046    0.00750     3.28757
      C    7   -0.09060      0.99954     2.07884    0.01221     3.09060
      N    8   -0.31963      0.99966     2.81129    0.00868     3.81963
      C    9    0.34641      0.99967     1.63151    0.02241     2.65359
      O   10   -0.32842      0.99988     3.32324    0.00531     4.32842
      C   11   -0.23548      0.99959     2.22697    0.00892     3.23548
      C   12   -0.08282      0.99962     2.07322    0.00998     3.08282
      N   13   -0.33644      0.99974     2.82482    0.01187     3.83644
      C   14   -0.17862      0.99967     2.16994    0.00901     3.17862
      H   15    0.09574      0.00000     0.40267    0.00160     0.40426
      H   16    0.10340      0.00000     0.39532    0.00128     0.39660
      H   17    0.09994      0.00000     0.39918    0.00088     0.40006
      H   18    0.09637      0.00000     0.40171    0.00192     0.40363
      H   19    0.09978      0.00000     0.39918    0.00104     0.40022
      H   20    0.09927      0.00000     0.39993    0.00079     0.40073
      H   21    0.09934      0.00000     0.39994    0.00072     0.40066
      H   22    0.10264      0.00000     0.39588    0.00148     0.39736
      H   23    0.10085      0.00000     0.39784    0.00132     0.39915
      H   24    0.10466      0.00000     0.39363    0.00171     0.39534
      H   25    0.09488      0.00000     0.40402    0.00110     0.40512
      H   26    0.10252      0.00000     0.39656    0.00091     0.39748
      H   27    0.10532      0.00000     0.39356    0.00112     0.39468
      H   28    0.10532      0.00000     0.39251    0.00217     0.39468
      H   29    0.09361      0.00000     0.40496    0.00143     0.40639
      H   30    0.19407      0.00000     0.30335    0.00258     0.30593
      H   31    0.10320      0.00000     0.39540    0.00140     0.39680
      H   32    0.11350      0.00000     0.38525    0.00124     0.38650
      H   33    0.09325      0.00000     0.40547    0.00127     0.40675
      H   34    0.08063      0.00000     0.41728    0.00209     0.41937
      H   35    0.17281      0.00000     0.32314    0.00406     0.32719
      H   36    0.08175      0.00000     0.41659    0.00166     0.41825
      H   37    0.09468      0.00000     0.40445    0.00086     0.40532
      H   38    0.08834      0.00000     0.41056    0.00110     0.41166
 =======================================================================
   * Total *   -0.00000     13.99501    41.82543    0.17956    56.00000

 Normal termination of Gaussian 16 at Thu Dec 10 11:33:02 2020.
