 Gaussian 16, Revision A.03,

 -----------------------------------------------------------
 # opt freq B3LYP/6-31G(d) empiricaldispersion=gd3bj scf=xqc
 -----------------------------------------------------------

 ------------------------------
 CID_22543610_JID_9503_neutraal
 ------------------------------
 Symbolic Z-matrix:
 Charge =  0 Multiplicity = 1

 SCF Done:  E(RB3LYP) =  -835.017588683     A.U. after   15 cycles
 SCF Done:  E(RB3LYP) =  -835.024682394     A.U. after   12 cycles
 SCF Done:  E(RB3LYP) =  -835.025865578     A.U. after   12 cycles
 SCF Done:  E(RB3LYP) =  -835.026341468     A.U. after   11 cycles
 SCF Done:  E(RB3LYP) =  -835.026628164     A.U. after   12 cycles
 SCF Done:  E(RB3LYP) =  -835.026769812     A.U. after   11 cycles
 SCF Done:  E(RB3LYP) =  -835.026915475     A.U. after   12 cycles
 SCF Done:  E(RB3LYP) =  -835.026950550     A.U. after   11 cycles
 SCF Done:  E(RB3LYP) =  -835.026960583     A.U. after   11 cycles
 SCF Done:  E(RB3LYP) =  -835.026994088     A.U. after   12 cycles
 SCF Done:  E(RB3LYP) =  -835.027024119     A.U. after   10 cycles
 SCF Done:  E(RB3LYP) =  -835.027029326     A.U. after   10 cycles
 SCF Done:  E(RB3LYP) =  -835.027029733     A.U. after   11 cycles
 SCF Done:  E(RB3LYP) =  -835.027031341     A.U. after   10 cycles
 SCF Done:  E(RB3LYP) =  -835.027031445     A.U. after    8 cycles
 SCF Done:  E(RB3LYP) =  -835.027031594     A.U. after    8 cycles
 Optimization completed.
    -- Stationary point found.
 Normal termination of Gaussian 16 at Sat Dec 12 09:39:07 2020.

 --------------------------------------------------------------------
 #N Geom=AllCheck Guess=TCheck SCRF=Check GenChk RB3LYP/6-31G(d) Freq
 --------------------------------------------------------------------

 Structure from the checkpoint file:  "JID_9503.chk"
 ------------------------------
 CID_22543610_JID_9503_neutraal
 ------------------------------
 Charge =  0 Multiplicity = 1

 SCF Done:  E(RB3LYP) =  -835.027031594     A.U. after    1 cycles

  Exact polarizability: 274.176  18.902 124.129 -22.017   5.735 137.078
 Approx polarizability: 397.307  40.664 225.755 -44.705  17.332 250.533

                      1                      2                      3
                      A                      A                      A
 Frequencies --     23.7060                25.2874                51.1846
 Red. masses --      5.0149                 5.1871                 5.3159
 Frc consts  --      0.0017                 0.0020                 0.0082
 IR Inten    --      2.7552                 0.5071                 0.1888

                      4                      5                      6
                      A                      A                      A
 Frequencies --    111.1454               139.2968               184.1082
 Red. masses --      4.7175                 3.9927                 1.2148
 Frc consts  --      0.0343                 0.0456                 0.0243
 IR Inten    --      1.8835                 0.4278                 7.6467

                      7                      8                      9
                      A                      A                      A
 Frequencies --    188.3162               223.7880               245.9226
 Red. masses --      3.3891                 5.9818                 8.3726
 Frc consts  --      0.0708                 0.1765                 0.2983
 IR Inten    --      2.1850                 1.0359                 2.7136

                     10                     11                     12
                      A                      A                      A
 Frequencies --    284.8309               302.7315               326.3904
 Red. masses --      5.0936                 3.8020                 4.2972
 Frc consts  --      0.2435                 0.2053                 0.2697
 IR Inten    --      0.4216                 0.5271                 5.9742

                     13                     14                     15
                      A                      A                      A
 Frequencies --    335.2613               391.7433               412.8048
 Red. masses --      4.6812                 4.4787                 3.5030
 Frc consts  --      0.3100                 0.4050                 0.3517
 IR Inten    --      1.0158                 2.3375                 0.6927

                     16                     17                     18
                      A                      A                      A
 Frequencies --    485.3959               497.3293               524.7823
 Red. masses --      2.7979                 4.5017                 2.2146
 Frc consts  --      0.3884                 0.6560                 0.3593
 IR Inten    --      9.0269                 2.6693                 7.1825

                     19                     20                     21
                      A                      A                      A
 Frequencies --    525.8297               533.6875               548.4325
 Red. masses --      1.7491                 4.3744                 4.4668
 Frc consts  --      0.2849                 0.7341                 0.7916
 IR Inten    --     12.1598                 0.2158                 9.0974

                     22                     23                     24
                      A                      A                      A
 Frequencies --    549.7564               558.8351               594.1382
 Red. masses --      4.9130                 5.5910                 4.1071
 Frc consts  --      0.8749                 1.0287                 0.8542
 IR Inten    --      9.6681                 1.1622                29.1472

                     25                     26                     27
                      A                      A                      A
 Frequencies --    638.6955               639.7443               661.1226
 Red. masses --      2.3602                 6.6222                 2.4288
 Frc consts  --      0.5673                 1.5969                 0.6255
 IR Inten    --    120.7500                 1.9264                82.7392

                     28                     29                     30
                      A                      A                      A
 Frequencies --    694.6285               742.4004               764.2162
 Red. masses --      3.4250                 4.3282                 1.4406
 Frc consts  --      0.9737                 1.4055                 0.4957
 IR Inten    --     90.1762                23.8094                23.2339

                     31                     32                     33
                      A                      A                      A
 Frequencies --    766.4402               769.0261               788.3530
 Red. masses --      6.0989                 3.2753                 4.7749
 Frc consts  --      2.1109                 1.1413                 1.7485
 IR Inten    --     21.2035                 3.2865                 1.9863

                     34                     35                     36
                      A                      A                      A
 Frequencies --    800.3410               827.8033               842.3673
 Red. masses --      4.5863                 1.4365                 1.6420
 Frc consts  --      1.7309                 0.5800                 0.6865
 IR Inten    --     77.8269                29.8701               179.2306

                     37                     38                     39
                      A                      A                      A
 Frequencies --    870.6018               891.3572               894.0793
 Red. masses --      1.4831                 4.5049                 1.6175
 Frc consts  --      0.6623                 2.1088                 0.7618
 IR Inten    --     32.2792                26.1225                11.1682

                     40                     41                     42
                      A                      A                      A
 Frequencies --    928.5101               951.6054               961.6753
 Red. masses --      5.0369                 1.3023                 1.4331
 Frc consts  --      2.5585                 0.6948                 0.7809
 IR Inten    --     21.1168                 0.8648                 3.8054

                     43                     44                     45
                      A                      A                      A
 Frequencies --    964.9108               981.1511               989.7435
 Red. masses --      1.3215                 3.9389                 1.2710
 Frc consts  --      0.7249                 2.2341                 0.7335
 IR Inten    --      2.6560                18.3301                 0.0080

                     46                     47                     48
                      A                      A                      A
 Frequencies --   1027.1162              1053.6542              1096.9765
 Red. masses --      2.8432                 2.2822                 1.7458
 Frc consts  --      1.7673                 1.4928                 1.2378
 IR Inten    --     80.6571                 0.7783                 1.7111

                     49                     50                     51
                      A                      A                      A
 Frequencies --   1155.9218              1185.7942              1189.8058
 Red. masses --      1.6998                 1.2382                 1.1900
 Frc consts  --      1.3382                 1.0258                 0.9926
 IR Inten    --     20.9332                 2.2091                 9.0745

                     52                     53                     54
                      A                      A                      A
 Frequencies --   1196.8632              1222.6463              1257.1622
 Red. masses --      1.4853                 2.6409                 2.8036
 Frc consts  --      1.2536                 2.3259                 2.6107
 IR Inten    --     83.4593               163.2637                 9.8537

                     55                     56                     57
                      A                      A                      A
 Frequencies --   1272.2762              1287.9312              1298.1178
 Red. masses --      2.7235                 2.0496                 1.8510
 Frc consts  --      2.5974                 2.0031                 1.8378
 IR Inten    --    238.8264               204.3215                17.2385

                     58                     59                     60
                      A                      A                      A
 Frequencies --   1333.7210              1346.2665              1370.3995
 Red. masses --      3.5654                 3.5973                 2.4686
 Frc consts  --      3.7367                 3.8414                 2.7315
 IR Inten    --     56.0369                 8.3544                19.8020

                     61                     62                     63
                      A                      A                      A
 Frequencies --   1401.5016              1415.4986              1426.3399
 Red. masses --      2.0641                 4.7306                 4.9528
 Frc consts  --      2.3888                 5.5845                 5.9367
 IR Inten    --      9.7128                10.3139                14.9346

                     64                     65                     66
                      A                      A                      A
 Frequencies --   1482.5823              1491.8686              1510.6695
 Red. masses --      3.3172                 2.5972                 3.2675
 Frc consts  --      4.2959                 3.4057                 4.3934
 IR Inten    --    281.6258                 3.4211                94.4733

                     67                     68                     69
                      A                      A                      A
 Frequencies --   1519.9593              1565.9046              1615.2398
 Red. masses --      2.3304                 3.4190                 3.1324
 Frc consts  --      3.1721                 4.9395                 4.8151
 IR Inten    --     40.3325                52.6522               147.0491

                     70                     71                     72
                      A                      A                      A
 Frequencies --   1626.9555              1631.9629              1666.6196
 Red. masses --      6.4084                 6.4581                 5.2409
 Frc consts  --      9.9943                10.1339                 8.5769
 IR Inten    --     92.1174                15.6241                23.0113

                     73                     74                     75
                      A                      A                      A
 Frequencies --   1671.8477              1691.3553              1695.2665
 Red. masses --      1.4200                 2.1867                 2.1834
 Frc consts  --      2.3385                 3.6856                 3.6971
 IR Inten    --    231.8616                23.4364               147.9284

                     76                     77                     78
                      A                      A                      A
 Frequencies --   3180.4030              3184.8045              3188.9043
 Red. masses --      1.0860                 1.0883                 1.0889
 Frc consts  --      6.4720                 6.5037                 6.5243
 IR Inten    --      3.1041                 0.9116                 9.1096

                     79                     80                     81
                      A                      A                      A
 Frequencies --   3195.0444              3198.7306              3205.8876
 Red. masses --      1.0909                 1.0933                 1.0910
 Frc consts  --      6.5612                 6.5907                 6.6065
 IR Inten    --     34.2329                29.7226                 8.9540

                     82                     83                     84
                      A                      A                      A
 Frequencies --   3211.8891              3224.7420              3489.9017
 Red. masses --      1.0971                 1.0930                 1.0532
 Frc consts  --      6.6684                 6.6967                 7.5575
 IR Inten    --     30.1573                 4.1157                 7.9991

                     85                     86                     87
                      A                      A                      A
 Frequencies --   3540.0477              3602.4794              3655.7993
 Red. masses --      1.0471                 1.0903                 1.0994
 Frc consts  --      7.7316                 8.3371                 8.6567
 IR Inten    --     29.9216                34.1346                36.3785

 - Thermochemistry -
 -------------------
 Temperature   298.150 Kelvin.  Pressure   1.00000 Atm.
 Atom     1 has atomic number  6 and mass  12.00000

 Molecular mass:   252.10111 amu.
 Principal axes and moments of inertia in atomic units:
                           1         2         3
     Eigenvalues --  1661.222189756.713219976.87433
           X            1.00000  -0.00296  -0.00070
           Y            0.00295   0.99994  -0.01084
           Z            0.00073   0.01084   0.99994
 This molecule is an asymmetric top.
 Rotational symmetry number  1.
 Warning -- assumption of classical behavior for rotation
           may cause significant error
 Rotational temperatures (Kelvin)      0.05214     0.00888     0.00868
 Rotational constants (GHZ):           1.08639     0.18497     0.18089
 Zero-point vibrational energy     640123.8 (Joules/Mol)
                                  152.99325 (Kcal/Mol)
 Warning -- explicit consideration of  24 degrees of freedom as
           vibrations may cause significant error
 Vibrational temperatures:     34.11    36.38    73.64   159.91   200.42
          (Kelvin)            264.89   270.95   321.98   353.83   409.81
                              435.56   469.60   482.37   563.63   593.93
                              698.38   715.55   755.04   756.55   767.86
                              789.07   790.98   804.04   854.83   918.94
                              920.45   951.21   999.42  1068.15  1099.54
                             1102.74  1106.46  1134.26  1151.51  1191.02
                             1211.98  1252.60  1282.46  1286.38  1335.92
                             1369.15  1383.64  1388.29  1411.66  1424.02
                             1477.79  1515.97  1578.30  1663.11  1706.09
                             1711.87  1722.02  1759.12  1808.78  1830.52
                             1853.05  1867.70  1918.93  1936.98  1971.70
                             2016.45  2036.59  2052.19  2133.11  2146.47
                             2173.52  2186.88  2252.99  2323.97  2340.83
                             2348.03  2397.89  2405.42  2433.48  2439.11
                             4575.89  4582.22  4588.12  4596.96  4602.26
                             4612.56  4621.19  4639.68  5021.19  5093.34
                             5183.16  5259.88

 Zero-point correction=                           0.243810 (Hartree/Particle)
 Thermal correction to Energy=                    0.258775
 Thermal correction to Enthalpy=                  0.259719
 Thermal correction to Gibbs Free Energy=         0.200305
 Sum of electronic and zero-point Energies=           -834.783221
 Sum of electronic and thermal Energies=              -834.768256
 Sum of electronic and thermal Enthalpies=            -834.767312
 Sum of electronic and thermal Free Energies=         -834.826726

                     E (Thermal)             CV                S
                      KCal/Mol        Cal/Mol-Kelvin    Cal/Mol-Kelvin
 Total                  162.384             60.229            125.048
 Electronic               0.000              0.000              0.000
 Translational            0.889              2.981             42.474
 Rotational               0.889              2.981             33.447
 Vibrational            160.606             54.267             49.127
 Vibration     1          0.593              1.985              6.297
 Vibration     2          0.593              1.985              6.169
 Vibration     3          0.595              1.977              4.771
 Vibration     4          0.607              1.940              3.249
 Vibration     5          0.615              1.914              2.814
 Vibration     6          0.631              1.861              2.286
 Vibration     7          0.633              1.856              2.244
 Vibration     8          0.649              1.805              1.928
 Vibration     9          0.660              1.770              1.760
 Vibration    10          0.683              1.702              1.504
 Vibration    11          0.694              1.669              1.402
 Vibration    12          0.710              1.623              1.278
 Vibration    13          0.716              1.605              1.235
 Vibration    14          0.759              1.488              0.993
 Vibration    15          0.777              1.442              0.917
 Vibration    16          0.841              1.282              0.696
 Vibration    17          0.853              1.256              0.665
 Vibration    18          0.880              1.195              0.599
 Vibration    19          0.881              1.193              0.597
 Vibration    20          0.889              1.175              0.579
 Vibration    21          0.904              1.143              0.547
 Vibration    22          0.905              1.140              0.545
 Vibration    23          0.914              1.120              0.526
 Vibration    24          0.952              1.044              0.460

 Optimization completed.
    -- Stationary point found.
 Normal termination of Gaussian 16 at Sat Dec 12 09:54:26 2020.

 ----------------------------------------------------------------------
 # B3LYP/6-311++G(d,p) empiricaldispersion=gd3bj scf=xqc pop=npa geom=c
 heck
 ----------------------------------------------------------------------

 --------------------------------------
 CID_22543610_JID_9503_Energie_neutraal
 --------------------------------------
 Structure from the checkpoint file:  "JID_9503.chk"
 Charge =  0 Multiplicity = 1

 SCF Done:  E(RB3LYP) =  -835.255145055     A.U. after   15 cycles
 Normal termination of Gaussian 16 at Sat Dec 12 10:00:40 2020.

 ----------------------------------------------------------------------
 # B3LYP/6-311++G(d,p) empiricaldispersion=gd3bj scf=xqc pop=npa geom=c
 heck
 ----------------------------------------------------------------------

 ------------------------------------
 CID_22543610_JID_9503_Energie_kation
 ------------------------------------
 Structure from the checkpoint file:  "JID_9503.chk"
 Charge =  1 Multiplicity = 2

 SCF Done:  E(UB3LYP) =  -834.972832114     A.U. after   27 cycles
 Normal termination of Gaussian 16 at Sat Dec 12 10:16:58 2020.
 Gaussian 16:  ES64L-G16RevA.03 25-Dec-2016

 ----------------------------------------------------------------------
 # B3LYP/6-311++G(d,p) empiricaldispersion=gd3bj scf=xqc pop=npa geom=c
 heck
 ----------------------------------------------------------------------

 -----------------------------------
 CID_22543610_JID_9503_Energie_anion
 -----------------------------------
 Structure from the checkpoint file:  "JID_9503.chk"
 Charge = -1 Multiplicity = 2

                         Standard orientation:
 ---------------------------------------------------------------------
 Center     Atomic      Atomic             Coordinates (Angstroms)
 Number     Number       Type             X           Y           Z
 ---------------------------------------------------------------------
      1          6           0        5.099342    0.667321    0.562238
      2          6           0        5.035536    0.244454   -0.787806
      3          6           0        3.856149   -0.227578   -1.317156
      4          6           0        2.681189   -0.299573   -0.522768
      5          6           0        1.447903   -0.768395   -1.042211
      6          6           0        0.332226   -0.821856   -0.237788
      7          6           0        0.386748   -0.416426    1.119054
      8          6           0        1.570921    0.051787    1.636106
      9          6           0        2.746131    0.128735    0.843110
     10          6           0        3.977865    0.609309    1.357728
     11          8           0       -0.832341   -1.316279   -0.795484
     12          6           0       -2.033800   -0.840008   -0.312700
     13          7           0       -2.846168   -1.741755    0.236037
     14          6           0       -4.023185   -1.277592    0.655777
     15          7           0       -4.472432   -0.022628    0.571069
     16          6           0       -3.647906    0.862765   -0.002057
     17          6           0       -2.363473    0.503712   -0.472923
     18          7           0       -1.562908    1.477849   -1.101468
     19          7           0       -4.053919    2.174533   -0.102711
     20          1           0        6.037394    1.036075    0.966645
     21          1           0        5.926685    0.292878   -1.407121
     22          1           0        3.807441   -0.553746   -2.352821
     23          1           0        1.375657   -1.095521   -2.075025
     24          1           0       -0.502988   -0.491179    1.734387
     25          1           0        1.620652    0.362478    2.676506
     26          1           0        4.019661    0.930263    2.395610
     27          1           0       -4.694013   -1.999906    1.114748
     28          1           0       -1.363055    2.262011   -0.483132
     29          1           0       -0.685545    1.098261   -1.441368
     30          1           0       -5.046873    2.303018    0.049399
     31          1           0       -3.682165    2.669686   -0.906073
 ---------------------------------------------------------------------

 SCF Done:  E(UB3LYP) =  -835.261150578     A.U. after   30 cycles

 The electronic state is 2-A.
 Alpha  occ. eigenvalues --  -19.04478 -14.23113 -14.22289 -14.20375 -14.19873
 Alpha  occ. eigenvalues --  -10.15652 -10.14358 -10.12912 -10.11272 -10.10312
 Alpha  occ. eigenvalues --  -10.05454 -10.05010 -10.04229 -10.04172 -10.03980
 Alpha  occ. eigenvalues --  -10.03538 -10.03462 -10.03440 -10.03054  -0.97210
 Alpha  occ. eigenvalues --   -0.88832  -0.83345  -0.80858  -0.76272  -0.74210
 Alpha  occ. eigenvalues --   -0.69191  -0.65596  -0.64193  -0.61159  -0.59571
 Alpha  occ. eigenvalues --   -0.55162  -0.54196  -0.50218  -0.49121  -0.46957
 Alpha  occ. eigenvalues --   -0.46608  -0.44258  -0.40579  -0.39854  -0.39755
 Alpha  occ. eigenvalues --   -0.38837  -0.38084  -0.36433  -0.34325  -0.33393
 Alpha  occ. eigenvalues --   -0.32955  -0.32206  -0.30514  -0.29769  -0.28871
 Alpha  occ. eigenvalues --   -0.28439  -0.27022  -0.25464  -0.24965  -0.23937
 Alpha  occ. eigenvalues --   -0.22734  -0.21966  -0.20493  -0.20476  -0.18781
 Alpha  occ. eigenvalues --   -0.16867  -0.16005  -0.15807  -0.12003  -0.11255
 Alpha  occ. eigenvalues --   -0.09196   0.04185
 Alpha virt. eigenvalues --    0.05965   0.08047   0.08238   0.08720   0.08848
 Alpha virt. eigenvalues --    0.09172   0.09368   0.10408   0.11006   0.11150
 Alpha virt. eigenvalues --    0.11557   0.12193   0.12674   0.13266   0.14040

  Beta  occ. eigenvalues --  -19.04480 -14.23068 -14.22281 -14.20342 -14.19815
  Beta  occ. eigenvalues --  -10.15572 -10.14237 -10.12918 -10.11303 -10.10248
  Beta  occ. eigenvalues --  -10.05503 -10.05081 -10.04204 -10.04100 -10.03902
  Beta  occ. eigenvalues --  -10.03301 -10.03236 -10.03180 -10.02830  -0.97157
  Beta  occ. eigenvalues --   -0.88729  -0.83264  -0.80834  -0.76166  -0.73977
  Beta  occ. eigenvalues --   -0.68867  -0.65441  -0.63811  -0.60978  -0.59201
  Beta  occ. eigenvalues --   -0.55090  -0.53999  -0.49698  -0.49037  -0.46664
  Beta  occ. eigenvalues --   -0.46550  -0.44106  -0.40534  -0.39786  -0.39671
  Beta  occ. eigenvalues --   -0.38674  -0.37911  -0.36302  -0.34221  -0.33286
  Beta  occ. eigenvalues --   -0.32766  -0.32045  -0.30355  -0.29589  -0.28685
  Beta  occ. eigenvalues --   -0.28178  -0.26754  -0.25197  -0.24549  -0.23829
  Beta  occ. eigenvalues --   -0.22568  -0.21811  -0.20392  -0.20335  -0.18022
  Beta  occ. eigenvalues --   -0.16562  -0.15725  -0.14913  -0.11690  -0.10681
  Beta  occ. eigenvalues --   -0.07823
  Beta virt. eigenvalues --    0.06443   0.08110   0.08388   0.08592   0.08826
  Beta virt. eigenvalues --    0.09204   0.09356   0.09878   0.10437   0.10982
  Beta virt. eigenvalues --    0.11242   0.11821   0.12162   0.12844   0.13591

 Mulliken charges and spin densities:
               1          2
     1  C   -0.212927   0.028572
     2  C   -0.410084   0.076506
     3  C   -0.316129   0.121905
     4  C   -0.134339  -0.073716
     5  C   -0.070423   0.206719
     6  C   -0.644073  -0.012036
     7  C    0.127166   0.042903
     8  C   -0.263083   0.279711
     9  C    0.818309  -0.081855
    10  C   -0.413756   0.171002
    11  O   -0.014566  -0.000330
    12  C   -0.561807  -0.046289
    13  N   -0.058270   0.043657
    14  C    0.025270  -0.021675
    15  N   -0.176520   0.004357
    16  C   -0.422878   0.054699
    17  C    0.817425  -0.145960
    18  N   -0.367824  -0.016227
    19  N   -0.349564   0.013471
    20  H    0.110855  -0.001696
    21  H    0.109784  -0.004627
    22  H    0.079682  -0.012351
    23  H    0.143070  -0.015000
    24  H    0.176814   0.006229
    25  H    0.109425  -0.016672
    26  H    0.068142  -0.011883
    27  H    0.174891   0.002161
    28  H    0.197369   0.036578
    29  H    0.289722   0.018616
    30  H    0.100571   0.170424
    31  H    0.067751   0.182807
 Sum of Mulliken charges =  -1.00000   1.00000

 Dipole moment (field-independent basis, Debye):
    X=             -1.4885    Y=              1.7716    Z=             -0.2457  Tot=              2.3269
 Quadrupole moment (field-independent basis, Debye-Ang):
   XX=           -181.7951   YY=           -131.7914   ZZ=           -121.0165
   XY=              0.2908   XZ=             -0.0802   YZ=              1.1106

 Summary of Natural Population Analysis:

                                       Natural Population
                Natural  -----------------------------------------------
    Atom  No    Charge         Core      Valence    Rydberg      Total
 -----------------------------------------------------------------------
      C    1   -0.11485      0.99957     2.10528    0.01000     3.11485
      C    2   -0.11552      0.99964     2.09884    0.01704     3.11552
      C    3   -0.02540      0.99944     2.02191    0.00405     3.02540
      C    4   -0.04379      0.99953     2.03157    0.01268     3.04379
      C    5   -0.08883      0.99948     2.08035    0.00900     3.08883
      C    6    0.15149      0.99935     1.83392    0.01524     2.84851
      C    7   -0.12346      0.99952     2.11597    0.00798     3.12346
      C    8   -0.03483      0.99955     2.02698    0.00830     3.03483
      C    9   -0.04738      0.99949     2.03991    0.00797     3.04738
      C   10   -0.05193      0.99954     2.04299    0.00940     3.05193
      O   11   -0.27384      0.99983     3.26408    0.00992     4.27384
      C   12    0.26869      0.99936     1.71269    0.01926     2.73131
      N   13   -0.25360      0.99966     2.74490    0.00905     3.75360
      C   14    0.13356      0.99968     1.84860    0.01816     2.86644
      N   15   -0.27499      0.99967     2.76419    0.01112     3.77499
      C   16    0.21227      0.99953     1.77258    0.01562     2.78773
      C   17    0.00719      0.99938     1.98282    0.01061     2.99281
      N   18   -0.41290      0.99973     2.90250    0.01067     3.91290
      N   19   -0.39695      0.99971     2.88720    0.01004     3.89695
      H   20    0.09010      0.00000     0.40882    0.00107     0.40990
      H   21    0.08873      0.00000     0.40955    0.00171     0.41127
      H   22    0.08884      0.00000     0.41045    0.00071     0.41116
      H   23    0.09630      0.00000     0.40192    0.00178     0.40370
      H   24    0.10134      0.00000     0.39742    0.00125     0.39866
      H   25    0.08859      0.00000     0.40995    0.00146     0.41141
      H   26    0.08781      0.00000     0.41058    0.00160     0.41219
      H   27    0.07887      0.00000     0.42000    0.00113     0.42113
      H   28    0.18503      0.00000     0.31327    0.00170     0.31497
      H   29    0.19698      0.00000     0.30104    0.00198     0.30302
      H   30    0.18990      0.00000     0.30735    0.00275     0.31010
      H   31    0.19268      0.00000     0.30519    0.00213     0.30732
 =======================================================================
   * Total *    0.00011     18.99165    46.77285    0.23539    65.99989

 Normal termination of Gaussian 16 at Sat Dec 12 10:34:43 2020.
