 Gaussian 16, Revision A.03,

 -----------------------------------------------------------
 # opt freq B3LYP/6-31G(d) empiricaldispersion=gd3bj scf=xqc
 -----------------------------------------------------------

 ------------------------------
 CID_85722661_JID_2646_neutraal
 ------------------------------
 Symbolic Z-matrix:
 Charge =  0 Multiplicity = 1

 SCF Done:  E(RB3LYP) =  -499.020052072     A.U. after   14 cycles
 SCF Done:  E(RB3LYP) =  -499.026652961     A.U. after   12 cycles
 SCF Done:  E(RB3LYP) =  -499.027522052     A.U. after   11 cycles
 SCF Done:  E(RB3LYP) =  -499.028189918     A.U. after   12 cycles
 SCF Done:  E(RB3LYP) =  -499.028290814     A.U. after   10 cycles
 SCF Done:  E(RB3LYP) =  -499.028322132     A.U. after   10 cycles
 SCF Done:  E(RB3LYP) =  -499.028332309     A.U. after   10 cycles
 SCF Done:  E(RB3LYP) =  -499.028335165     A.U. after   10 cycles
 SCF Done:  E(RB3LYP) =  -499.028336844     A.U. after    9 cycles
 SCF Done:  E(RB3LYP) =  -499.028337507     A.U. after    8 cycles
 SCF Done:  E(RB3LYP) =  -499.028337753     A.U. after    8 cycles
 SCF Done:  E(RB3LYP) =  -499.028337832     A.U. after    7 cycles
 Optimization completed.
    -- Stationary point found.
 Normal termination of Gaussian 16 at Wed Dec  9 17:22:31 2020.

 --------------------------------------------------------------------
 #N Geom=AllCheck Guess=TCheck SCRF=Check GenChk RB3LYP/6-31G(d) Freq
 --------------------------------------------------------------------

 Structure from the checkpoint file:  "JID_2646.chk"
 ------------------------------
 CID_85722661_JID_2646_neutraal
 ------------------------------
 Charge =  0 Multiplicity = 1

 SCF Done:  E(RB3LYP) =  -499.028337832     A.U. after    1 cycles

  Exact polarizability: 142.031  -8.172 121.599  14.106   7.557  76.945
 Approx polarizability: 188.367 -17.220 199.007  28.330  17.783 120.240

                      1                      2                      3
                      A                      A                      A
 Frequencies --     27.9095                59.0258                80.1968
 Red. masses --      3.2988                 3.6672                 3.0412
 Frc consts  --      0.0015                 0.0075                 0.0115
 IR Inten    --      0.3646                 0.2789                 0.7527

                      4                      5                      6
                      A                      A                      A
 Frequencies --    141.5103               200.6280               229.7037
 Red. masses --      2.0584                 3.5123                 4.4557
 Frc consts  --      0.0243                 0.0833                 0.1385
 IR Inten    --      0.2793                 2.0660                 8.2972

                      7                      8                      9
                      A                      A                      A
 Frequencies --    287.7287               313.6059               375.5576
 Red. masses --      3.2282                 2.8475                 1.1302
 Frc consts  --      0.1575                 0.1650                 0.0939
 IR Inten    --      4.5779                 1.0633                48.6994

                     10                     11                     12
                      A                      A                      A
 Frequencies --    404.1683               453.9674               456.3501
 Red. masses --      2.0582                 2.9825                 2.3500
 Frc consts  --      0.1981                 0.3621                 0.2883
 IR Inten    --      2.0836                11.4538                 2.9873

                     13                     14                     15
                      A                      A                      A
 Frequencies --    555.1057               570.7402               607.1503
 Red. masses --      2.4716                 3.0683                 2.9504
 Frc consts  --      0.4487                 0.5889                 0.6408
 IR Inten    --    152.0239                43.0616                70.9702

                     16                     17                     18
                      A                      A                      A
 Frequencies --    618.0007               696.5080               748.2518
 Red. masses --      2.2704                 2.7304                 2.8163
 Frc consts  --      0.5109                 0.7804                 0.9290
 IR Inten    --     36.1244                22.7650                 2.5639

                     19                     20                     21
                      A                      A                      A
 Frequencies --    763.7368               775.9961               793.5636
 Red. masses --      1.6170                 1.9544                 1.4311
 Frc consts  --      0.5557                 0.6934                 0.5310
 IR Inten    --     11.9078                 1.9761                21.9338

                     22                     23                     24
                      A                      A                      A
 Frequencies --    823.8094               866.7778               890.3935
 Red. masses --      2.5365                 1.4441                 1.7847
 Frc consts  --      1.0142                 0.6392                 0.8336
 IR Inten    --     21.9431                 0.6590                 1.8461

                     25                     26                     27
                      A                      A                      A
 Frequencies --    910.1766               941.2991               963.9064
 Red. masses --      1.8759                 2.2734                 2.1110
 Frc consts  --      0.9156                 1.1868                 1.1556
 IR Inten    --      1.3090                 0.9679                 0.0454

                     28                     29                     30
                      A                      A                      A
 Frequencies --    979.3397               983.4766               989.9446
 Red. masses --      1.7352                 1.2779                 2.0757
 Frc consts  --      0.9805                 0.7283                 1.1985
 IR Inten    --      0.0672                 0.0341                 0.7586

                     31                     32                     33
                      A                      A                      A
 Frequencies --   1005.7913              1060.0479              1098.7353
 Red. masses --      6.0520                 1.9272                 1.8160
 Frc consts  --      3.6071                 1.2759                 1.2917
 IR Inten    --      6.2430                 0.9082                 6.4071

                     34                     35                     36
                      A                      A                      A
 Frequencies --   1117.0784              1133.4253              1140.3933
 Red. masses --      2.5642                 1.6158                 1.3931
 Frc consts  --      1.8852                 1.2230                 1.0674
 IR Inten    --      1.5703                12.8661                 5.6693

                     37                     38                     39
                      A                      A                      A
 Frequencies --   1196.6983              1209.1691              1220.8705
 Red. masses --      1.2567                 1.3989                 1.4888
 Frc consts  --      1.0604                 1.2050                 1.3075
 IR Inten    --      4.1693                 0.9449                 0.5311

                     40                     41                     42
                      A                      A                      A
 Frequencies --   1263.8044              1267.8367              1276.6314
 Red. masses --      1.4878                 1.3085                 1.2512
 Frc consts  --      1.4001                 1.2392                 1.2015
 IR Inten    --      2.7591                 0.6081                 1.2891

                     43                     44                     45
                      A                      A                      A
 Frequencies --   1281.2617              1293.3310              1309.6337
 Red. masses --      1.5209                 1.5280                 1.4244
 Frc consts  --      1.4710                 1.5058                 1.4394
 IR Inten    --      2.7873                 3.9235                 0.7874

                     46                     47                     48
                      A                      A                      A
 Frequencies --   1342.4389              1357.2030              1377.8874
 Red. masses --      2.0239                 2.1893                 2.9798
 Frc consts  --      2.1490                 2.3760                 3.3332
 IR Inten    --     17.4041                17.8930                21.3804

                     49                     50                     51
                      A                      A                      A
 Frequencies --   1397.3225              1502.1445              1506.8622
 Red. masses --      1.4783                 2.3768                 1.3406
 Frc consts  --      1.7006                 3.1599                 1.7934
 IR Inten    --     11.2553                 1.6400                24.1171

                     52                     53                     54
                      A                      A                      A
 Frequencies --   1509.7987              1512.0796              1516.4018
 Red. masses --      1.2396                 1.8880                 1.0885
 Frc consts  --      1.6649                 2.5433                 1.4748
 IR Inten    --     32.1301                98.5544                 3.0094

                     55                     56                     57
                      A                      A                      A
 Frequencies --   1541.8152              1641.0789              1648.2769
 Red. masses --      1.1381                 5.1998                 2.6728
 Frc consts  --      1.5941                 8.2508                 4.2783
 IR Inten    --      0.7508                80.0907                37.7770

                     58                     59                     60
                      A                      A                      A
 Frequencies --   1675.8246              3044.1836              3044.7249
 Red. masses --      1.6712                 1.0704                 1.0738
 Frc consts  --      2.7653                 5.8444                 5.8651
 IR Inten    --    262.2190                16.0160                17.6661

                     61                     62                     63
                      A                      A                      A
 Frequencies --   3057.3910              3067.2044              3080.5771
 Red. masses --      1.0590                 1.0598                 1.0610
 Frc consts  --      5.8322                 5.8742                 5.9325
 IR Inten    --     59.9320                55.2476                17.0015

                     64                     65                     66
                      A                      A                      A
 Frequencies --   3093.3545              3104.6851              3116.6596
 Red. masses --      1.1032                 1.1058                 1.1085
 Frc consts  --      6.2195                 6.2802                 6.3437
 IR Inten    --     19.7762                21.9744                36.8100

                     67                     68                     69
                      A                      A                      A
 Frequencies --   3133.8756              3184.6678              3200.1291
 Red. masses --      1.1078                 1.0864                 1.0923
 Frc consts  --      6.4102                 6.4919                 6.5903
 IR Inten    --     60.4518                 7.3740                25.2936

                     70                     71                     72
                      A                      A                      A
 Frequencies --   3211.9213              3563.0146              3674.2119
 Red. masses --      1.0962                 1.0469                 1.0998
 Frc consts  --      6.6631                 7.8304                 8.7474
 IR Inten    --     14.1791                23.1773                17.1233

 - Thermochemistry -
 -------------------
 Temperature   298.150 Kelvin.  Pressure   1.00000 Atm.
 Atom     1 has atomic number  6 and mass  12.00000

 Molecular mass:   162.11570 amu.
 Principal axes and moments of inertia in atomic units:
                           1         2         3
     Eigenvalues --   957.672593374.596973961.03420
           X            1.00000  -0.00041   0.00173
           Y            0.00041   0.99999   0.00538
           Z           -0.00173  -0.00537   0.99998
 This molecule is an asymmetric top.
 Rotational symmetry number  1.
 Warning -- assumption of classical behavior for rotation
           may cause significant error
 Rotational temperatures (Kelvin)      0.09044     0.02567     0.02187
 Rotational constants (GHZ):           1.88451     0.53480     0.45562
 Zero-point vibrational energy     595076.2 (Joules/Mol)
                                  142.22663 (Kcal/Mol)
 Warning -- explicit consideration of  16 degrees of freedom as
           vibrations may cause significant error
 Vibrational temperatures:     40.16    84.92   115.39   203.60   288.66
          (Kelvin)            330.49   413.98   451.21   540.34   581.51
                              653.16   656.59   798.67   821.17   873.55
                              889.17  1002.12  1076.57  1098.85  1116.49
                             1141.76  1185.28  1247.10  1281.08  1309.54
                             1354.32  1386.85  1409.05  1415.00  1424.31
                             1447.11  1525.17  1580.84  1607.23  1630.75
                             1640.77  1721.78  1739.72  1756.56  1818.33
                             1824.13  1836.79  1843.45  1860.81  1884.27
                             1931.47  1952.71  1982.47  2010.44  2161.25
                             2168.04  2172.26  2175.55  2181.76  2218.33
                             2361.15  2371.50  2411.14  4379.90  4380.68
                             4398.90  4413.02  4432.26  4450.65  4466.95
                             4484.18  4508.95  4582.03  4604.27  4621.24
                             5126.38  5286.37

 Zero-point correction=                           0.226653 (Hartree/Particle)
 Thermal correction to Energy=                    0.237615
 Thermal correction to Enthalpy=                  0.238559
 Thermal correction to Gibbs Free Energy=         0.188781
 Sum of electronic and zero-point Energies=           -498.801685
 Sum of electronic and thermal Energies=              -498.790723
 Sum of electronic and thermal Enthalpies=            -498.789779
 Sum of electronic and thermal Free Energies=         -498.839557

                     E (Thermal)             CV                S
                      KCal/Mol        Cal/Mol-Kelvin    Cal/Mol-Kelvin
 Total                  149.106             42.841            104.767
 Electronic               0.000              0.000              0.000
 Translational            0.889              2.981             41.158
 Rotational               0.889              2.981             30.927
 Vibrational            147.328             36.880             32.682
 Vibration     1          0.593              1.984              5.973
 Vibration     2          0.596              1.974              4.489
 Vibration     3          0.600              1.963              3.886
 Vibration     4          0.615              1.912              2.783
 Vibration     5          0.638              1.839              2.127
 Vibration     6          0.652              1.796              1.881
 Vibration     7          0.685              1.697              1.487
 Vibration     8          0.701              1.648              1.343
 Vibration     9          0.746              1.522              1.057
 Vibration    10          0.769              1.461              0.947
 Vibration    11          0.812              1.352              0.784
 Vibration    12          0.815              1.347              0.777
 Vibration    13          0.911              1.129              0.534
 Vibration    14          0.927              1.095              0.503
 Vibration    15          0.966              1.017              0.438
 Vibration    16          0.978              0.994              0.420

 Optimization completed.
    -- Stationary point found.
 Normal termination of Gaussian 16 at Wed Dec  9 17:27:56 2020.

 ----------------------------------------------------------------------
 # B3LYP/6-311++G(d,p) empiricaldispersion=gd3bj scf=xqc pop=npa geom=c
 heck
 ----------------------------------------------------------------------

 --------------------------------------
 CID_85722661_JID_2646_Energie_neutraal
 --------------------------------------
 Structure from the checkpoint file:  "JID_2646.chk"
 Charge =  0 Multiplicity = 1

 SCF Done:  E(RB3LYP) =  -499.166863690     A.U. after   14 cycles
 Normal termination of Gaussian 16 at Wed Dec  9 17:30:04 2020.

 ----------------------------------------------------------------------
 # B3LYP/6-311++G(d,p) empiricaldispersion=gd3bj scf=xqc pop=npa geom=c
 heck
 ----------------------------------------------------------------------

 ------------------------------------
 CID_85722661_JID_2646_Energie_kation
 ------------------------------------
 Structure from the checkpoint file:  "JID_2646.chk"
 Charge =  1 Multiplicity = 2

 SCF Done:  E(UB3LYP) =  -498.876929468     A.U. after   20 cycles
 Normal termination of Gaussian 16 at Wed Dec  9 17:34:39 2020.
 Gaussian 16:  ES64L-G16RevA.03 25-Dec-2016

 ----------------------------------------------------------------------
 # B3LYP/6-311++G(d,p) empiricaldispersion=gd3bj scf=xqc pop=npa geom=c
 heck
 ----------------------------------------------------------------------

 -----------------------------------
 CID_85722661_JID_2646_Energie_anion
 -----------------------------------
 Structure from the checkpoint file:  "JID_2646.chk"
 Charge = -1 Multiplicity = 2

                         Standard orientation:
 ---------------------------------------------------------------------
 Center     Atomic      Atomic             Coordinates (Angstroms)
 Number     Number       Type             X           Y           Z
 ---------------------------------------------------------------------
      1          6           0        3.578706    0.884849   -0.623987
      2          6           0        3.463487   -0.371566    0.278979
      3          6           0        1.964817   -0.468318   -0.117668
      4          6           0        2.033668    1.015280   -0.571209
      5          6           0        0.944874   -0.865929    0.952335
      6          6           0       -0.470123   -0.689546    0.460475
      7          7           0       -0.984457    0.546621    0.578237
      8          6           0       -2.213070    0.780176    0.097542
      9          6           0       -2.996272   -0.218599   -0.513236
     10          6           0       -2.458002   -1.491807   -0.617412
     11          6           0       -1.173468   -1.742343   -0.128867
     12          7           0       -2.664242    2.087278    0.193428
     13          1           0        3.931738    0.629266   -1.628819
     14          1           0        4.173499    1.724222   -0.250430
     15          1           0        4.108150   -1.228677    0.058173
     16          1           0        3.572935   -0.116296    1.339644
     17          1           0        1.847907   -1.120782   -0.992526
     18          1           0        1.701200    1.683020    0.229557
     19          1           0        1.505249    1.290737   -1.488317
     20          1           0        1.115375   -1.908441    1.250328
     21          1           0        1.091437   -0.235345    1.836746
     22          1           0       -3.987745    0.011511   -0.891971
     23          1           0       -3.035781   -2.289145   -1.077543
     24          1           0       -0.727731   -2.729359   -0.197637
     25          1           0       -2.137829    2.642250    0.856534
     26          1           0       -3.665225    2.216557    0.252897
 ---------------------------------------------------------------------

 SCF Done:  E(UB3LYP) =  -499.151196942     A.U. after   33 cycles
 SCF Done:  E(UB3LYP) =  -499.151196942     a.u. after    1 cycles

 The electronic state is 2-A.
 Alpha  occ. eigenvalues --  -14.21028 -14.19267 -10.13663 -10.10609 -10.08106
 Alpha  occ. eigenvalues --  -10.07682 -10.07322 -10.07178 -10.06820 -10.06566
 Alpha  occ. eigenvalues --  -10.06398 -10.06224  -0.85734  -0.78535  -0.75125
 Alpha  occ. eigenvalues --   -0.69432  -0.66766  -0.60819  -0.56188  -0.53965
 Alpha  occ. eigenvalues --   -0.51634  -0.49923  -0.45037  -0.41712  -0.41171
 Alpha  occ. eigenvalues --   -0.38653  -0.37818  -0.36716  -0.35438  -0.32460
 Alpha  occ. eigenvalues --   -0.31281  -0.30366  -0.29235  -0.28917  -0.27571
 Alpha  occ. eigenvalues --   -0.26489  -0.24337  -0.22613  -0.21347  -0.20988
 Alpha  occ. eigenvalues --   -0.20238  -0.17293  -0.15628  -0.11278   0.04567
 Alpha virt. eigenvalues --    0.06214   0.06933   0.07609   0.08044   0.08261
 Alpha virt. eigenvalues --    0.08763   0.09680   0.10138   0.10462   0.11083
 Alpha virt. eigenvalues --    0.11370   0.12034   0.13115   0.13422   0.13571

  Beta  occ. eigenvalues --  -14.20971 -14.19248 -10.13658 -10.10607 -10.08087
  Beta  occ. eigenvalues --  -10.07674 -10.07312 -10.07165 -10.06812 -10.06539
  Beta  occ. eigenvalues --  -10.06393 -10.06211  -0.85698  -0.78473  -0.75108
  Beta  occ. eigenvalues --   -0.69391  -0.66731  -0.60779  -0.56161  -0.53931
  Beta  occ. eigenvalues --   -0.51572  -0.49880  -0.45001  -0.41662  -0.41107
  Beta  occ. eigenvalues --   -0.38610  -0.37736  -0.36695  -0.35394  -0.32424
  Beta  occ. eigenvalues --   -0.31251  -0.30326  -0.29203  -0.28893  -0.27531
  Beta  occ. eigenvalues --   -0.26465  -0.24319  -0.22590  -0.21318  -0.20963
  Beta  occ. eigenvalues --   -0.20211  -0.17240  -0.15598  -0.11232
  Beta virt. eigenvalues --    0.06518   0.07466   0.07702   0.07883   0.08251
  Beta virt. eigenvalues --    0.08772   0.09325   0.10008   0.10435   0.10904
  Beta virt. eigenvalues --    0.11270   0.11647   0.12288   0.13419   0.13572

 Mulliken charges and spin densities:
               1          2
     1  C   -0.251910  -0.024402
     2  C    0.592295  -1.135557
     3  C   -0.657743   1.161266
     4  C   -0.039698  -0.473013
     5  C    2.541299  -3.600892
     6  C   -0.265327   0.619604
     7  N   -0.017933   0.051973
     8  C   -0.785201   0.410621
     9  C    1.161469  -0.689898
    10  C    1.204201  -2.067815
    11  C   -1.759303   1.913454
    12  N   -0.277872   0.000264
    13  H   -0.004775   0.130915
    14  H   -0.018155   0.147486
    15  H   -0.262600   0.392810
    16  H    0.110773   0.007353
    17  H    0.012559   0.170931
    18  H    0.173039  -0.008657
    19  H    0.068031   0.077424
    20  H    0.118280   0.032749
    21  H   -0.048047   0.224544
    22  H   -0.932431   1.128645
    23  H   -0.443406   0.615957
    24  H   -0.665454   0.842837
    25  H   -0.044081   0.303860
    26  H   -0.508009   0.767542
 Sum of Mulliken charges =  -1.00000   1.00000

 Dipole moment (field-independent basis, Debye):
    X=              6.9816    Y=             -0.3082    Z=              1.2278  Tot=              7.0954
 Quadrupole moment (field-independent basis, Debye-Ang):
   XX=           -159.7208   YY=           -117.4917   ZZ=            -99.2675
   XY=             11.7490   XZ=             -1.8725   YZ=             -2.3149

 Summary of Natural Population Analysis:

                                       Natural Population
                Natural  -----------------------------------------------
    Atom  No    Charge         Core      Valence    Rydberg      Total
 -----------------------------------------------------------------------
      C    1   -0.19018      0.99965     2.18350    0.00703     3.19018
      C    2   -0.18725      0.99963     2.17903    0.00859     3.18725
      C    3   -0.10220      0.99960     2.09179    0.01082     3.10220
      C    4   -0.18677      0.99963     2.17988    0.00727     3.18677
      C    5   -0.20290      0.99957     2.19303    0.01030     3.20290
      C    6    0.11925      0.99953     1.86641    0.01481     2.88075
      N    7   -0.26874      0.99964     2.75795    0.01114     3.76874
      C    8    0.20174      0.99954     1.78345    0.01526     2.79826
      C    9   -0.14330      0.99951     2.13352    0.01027     3.14330
      C   10   -0.07125      0.99957     2.06115    0.01053     3.07125
      C   11   -0.14662      0.99950     2.13757    0.00956     3.14662
      N   12   -0.39318      0.99971     2.88309    0.01038     3.89318
      H   13    0.09360      0.00000     0.40492    0.00147     0.40640
      H   14    0.09215      0.00000     0.40671    0.00114     0.40785
      H   15    0.09608      0.00000     0.40277    0.00114     0.40392
      H   16    0.09282      0.00000     0.40595    0.00123     0.40718
      H   17    0.09704      0.00000     0.40158    0.00138     0.40296
      H   18    0.10108      0.00000     0.39745    0.00147     0.39892
      H   19    0.09908      0.00000     0.39992    0.00099     0.40092
      H   20    0.10125      0.00000     0.39763    0.00111     0.39875
      H   21    0.10310      0.00000     0.39519    0.00170     0.39690
      H   22    0.10738      0.00000     0.38962    0.00301     0.39262
      H   23    0.10175      0.00000     0.39684    0.00141     0.39825
      H   24    0.10358      0.00000     0.39505    0.00138     0.39642
      H   25    0.19002      0.00000     0.30735    0.00263     0.30998
      H   26    0.19247      0.00000     0.29738    0.01015     0.30753
 =======================================================================
   * Total *   -0.00000     11.99509    31.84873    0.15618    44.00000

 Normal termination of Gaussian 16 at Wed Dec  9 17:41:40 2020.
