 Gaussian 16, Revision A.03,

 -----------------------------------------------------------
 # opt freq B3LYP/6-31G(d) empiricaldispersion=gd3bj scf=xqc
 -----------------------------------------------------------

 ------------------------------
 CID_85606047_JID_1691_neutraal
 ------------------------------
 Symbolic Z-matrix:
 Charge =  0 Multiplicity = 1

 SCF Done:  E(RB3LYP) =  -577.302787376     A.U. after   14 cycles
 SCF Done:  E(RB3LYP) =  -577.304686570     A.U. after   12 cycles
 SCF Done:  E(RB3LYP) =  -577.304989929     A.U. after   12 cycles
 SCF Done:  E(RB3LYP) =  -577.305238244     A.U. after   12 cycles
 SCF Done:  E(RB3LYP) =  -577.305844784     A.U. after   12 cycles
 SCF Done:  E(RB3LYP) =  -577.306907538     A.U. after   14 cycles
 SCF Done:  E(RB3LYP) =  -577.306569507     A.U. after   13 cycles
 SCF Done:  E(RB3LYP) =  -577.308517154     A.U. after   13 cycles
 SCF Done:  E(RB3LYP) =  -577.309451241     A.U. after   14 cycles
 SCF Done:  E(RB3LYP) =  -577.310800996     A.U. after   13 cycles
 SCF Done:  E(RB3LYP) =  -577.312787767     A.U. after   10 cycles
 SCF Done:  E(RB3LYP) =  -577.312787935     A.U. after    7 cycles
 SCF Done:  E(RB3LYP) =  -577.312788329     A.U. after    8 cycles
 SCF Done:  E(RB3LYP) =  -577.312788463     A.U. after    7 cycles
 SCF Done:  E(RB3LYP) =  -577.312788695     A.U. after    8 cycles
 SCF Done:  E(RB3LYP) =  -577.312788811     A.U. after    7 cycles
 Optimization completed.
    -- Stationary point found.

 1\1\GINC-NODE201\FOpt\RB3LYP\6-31G(d)\C7H16O4\VSC10255\08-Dec-2020\0\\
 # opt freq B3LYP/6-31G(d) empiricaldispersion=gd3bj scf=xqc\\CID_85606
 047_JID_1691_neutraal\\0,1\C,-0.8321395407,-0.6912545782,-0.2139951402
 \C,-0.59115402,0.661766474,0.4615921586\C,0.705318286,1.3223317436,-0.
 0113877021\O,0.6913876775,1.5644745567,-1.4158525971\O,1.0783928599,2.
 467796042,0.7261238468\C,0.1016336619,3.4566270283,1.0290455694\C,-0.4
 447615591,4.2162951083,-0.1810721988\C,2.017924655,-1.2024102204,-2.67
 93310043\C,2.915767328,-1.41535654,-1.4919343014\O,2.5462089324,-1.632

 Normal termination of Gaussian 16 at Tue Dec  8 21:21:52 2020.

 --------------------------------------------------------------------
 #N Geom=AllCheck Guess=TCheck SCRF=Check GenChk RB3LYP/6-31G(d) Freq
 --------------------------------------------------------------------

 Structure from the checkpoint file:  "JID_1691.chk"
 ------------------------------
 CID_85606047_JID_1691_neutraal
 ------------------------------
 Charge =  0 Multiplicity = 1

 SCF Done:  E(RB3LYP) =  -577.312788811     A.U. after    1 cycles

  Exact polarizability:  98.788  -1.628  84.731  -2.034  -0.511  83.040
 Approx polarizability: 120.154  -9.043 116.688  -3.480   2.383 122.300

                      1                      2                      3
                      A                      A                      A
 Frequencies --     21.7748                38.6230                50.4713
 Red. masses --      5.7666                 4.2807                 3.9776
 Frc consts  --      0.0016                 0.0038                 0.0060
 IR Inten    --      1.4881                 1.8706                 0.2123

                      4                      5                      6
                      A                      A                      A
 Frequencies --     51.1387                72.0022                89.3764
 Red. masses --      5.0702                 4.3854                 4.3787
 Frc consts  --      0.0078                 0.0134                 0.0206
 IR Inten    --      0.4066                 0.5183                 4.4403

                      7                      8                      9
                      A                      A                      A
 Frequencies --     99.8768               124.6183               155.7607
 Red. masses --      2.9931                 2.1557                 1.0631
 Frc consts  --      0.0176                 0.0197                 0.0152
 IR Inten    --      2.9537                 4.2812                 1.3051

                     10                     11                     12
                      A                      A                      A
 Frequencies --    164.1288               233.4531               254.4233
 Red. masses --      2.4957                 2.6078                 1.1088
 Frc consts  --      0.0396                 0.0837                 0.0423
 IR Inten    --      2.2171                 3.8842                 1.8885

                     13                     14                     15
                      A                      A                      A
 Frequencies --    279.1720               309.9299               326.5224
 Red. masses --      1.2501                 2.4095                 1.1185
 Frc consts  --      0.0574                 0.1364                 0.0703
 IR Inten    --     15.7819                 9.3332                80.5038

                     16                     17                     18
                      A                      A                      A
 Frequencies --    411.5299               431.1360               461.5851
 Red. masses --      2.6376                 2.9653                 3.2606
 Frc consts  --      0.2632                 0.3247                 0.4093
 IR Inten    --      8.6032                 5.4252                 3.0057

                     19                     20                     21
                      A                      A                      A
 Frequencies --    482.7912               556.4829               585.4859
 Red. masses --      3.4097                 1.7139                 3.9326
 Frc consts  --      0.4683                 0.3127                 0.7943
 IR Inten    --     27.7506                31.4783                44.1400

                     22                     23                     24
                      A                      A                      A
 Frequencies --    637.9664               718.3570               797.0313
 Red. masses --      3.4794                 1.5057                 1.5135
 Frc consts  --      0.8344                 0.4578                 0.5665
 IR Inten    --     11.6029               107.7144                 1.6288

                     25                     26                     27
                      A                      A                      A
 Frequencies --    814.0996               844.1219               871.2436
 Red. masses --      1.1683                 2.0664                 3.9268
 Frc consts  --      0.4562                 0.8675                 1.7562
 IR Inten    --      2.2809                 5.3660                 2.5732

                     28                     29                     30
                      A                      A                      A
 Frequencies --    908.3430               978.1879              1012.4239
 Red. masses --      1.7774                 2.1605                 3.0305
 Frc consts  --      0.8640                 1.2180                 1.8302
 IR Inten    --     20.1443               105.6709                28.8041

                     31                     32                     33
                      A                      A                      A
 Frequencies --   1035.0274              1066.0073              1095.7097
 Red. masses --      1.5466                 3.0825                 1.6697
 Frc consts  --      0.9762                 2.0638                 1.1811
 IR Inten    --     51.4840                47.4887                22.9237

                     34                     35                     36
                      A                      A                      A
 Frequencies --   1102.2053              1110.3955              1143.4339
 Red. masses --      2.0909                 1.4492                 2.1723
 Frc consts  --      1.4966                 1.0528                 1.6734
 IR Inten    --     42.3819                43.8880                17.0763

                     37                     38                     39
                      A                      A                      A
 Frequencies --   1158.4543              1211.0246              1229.6627
 Red. masses --      3.2306                 1.8482                 1.9925
 Frc consts  --      2.5544                 1.5970                 1.7751
 IR Inten    --    168.1917                44.3966               254.9250

                     40                     41                     42
                      A                      A                      A
 Frequencies --   1274.6870              1342.7258              1347.3791
 Red. masses --      1.3867                 1.1758                 1.1839
 Frc consts  --      1.3275                 1.2490                 1.2663
 IR Inten    --     14.4402                 5.6827                 7.4932

                     43                     44                     45
                      A                      A                      A
 Frequencies --   1368.7599              1375.0711              1417.5138
 Red. masses --      1.3796                 1.9438                 1.2294
 Frc consts  --      1.5229                 2.1655                 1.4554
 IR Inten    --     16.2808                51.0727                 1.9578

                     46                     47                     48
                      A                      A                      A
 Frequencies --   1436.0350              1441.6854              1443.9247
 Red. masses --      1.3244                 1.3490                 1.3146
 Frc consts  --      1.6091                 1.6520                 1.6148
 IR Inten    --     21.8325                43.6074                 9.8530

                     49                     50                     51
                      A                      A                      A
 Frequencies --   1449.6678              1467.5459              1509.3311
 Red. masses --      1.2364                 1.1628                 1.0471
 Frc consts  --      1.5309                 1.4755                 1.4055
 IR Inten    --      5.3624                26.5651                 6.0048

                     52                     53                     54
                      A                      A                      A
 Frequencies --   1513.8819              1518.3509              1521.8060
 Red. masses --      1.0756                 1.0869                 1.0615
 Frc consts  --      1.4523                 1.4763                 1.4485
 IR Inten    --      5.8811                 9.3785                 1.3722

                     55                     56                     57
                      A                      A                      A
 Frequencies --   1530.9275              1531.4139              1547.0077
 Red. masses --      1.0471                 1.0426                 1.0736
 Frc consts  --      1.4459                 1.4406                 1.5139
 IR Inten    --      2.0582                11.7027                 5.2780

                     58                     59                     60
                      A                      A                      A
 Frequencies --   1549.8016              1829.2858              3023.8091
 Red. masses --      1.0650                 9.1449                 1.0679
 Frc consts  --      1.5071                18.0299                 5.7530
 IR Inten    --      9.7385               326.4288                24.2785

                     61                     62                     63
                      A                      A                      A
 Frequencies --   3035.5956              3045.7046              3058.1144
 Red. masses --      1.0657                 1.0398                 1.0356
 Frc consts  --      5.7861                 5.6831                 5.7062
 IR Inten    --     68.7432                16.9108                24.8196

                     64                     65                     66
                      A                      A                      A
 Frequencies --   3067.6207              3081.6285              3090.9247
 Red. masses --      1.0388                 1.0957                 1.0954
 Frc consts  --      5.7593                 6.1305                 6.1658
 IR Inten    --     26.1408                13.3366                 4.5573

                     67                     68                     69
                      A                      A                      A
 Frequencies --   3112.1317              3124.0669              3139.0661
 Red. masses --      1.0989                 1.1022                 1.1002
 Frc consts  --      6.2710                 6.3381                 6.3874
 IR Inten    --     83.2740                40.9463                 3.6529

                     70                     71                     72
                      A                      A                      A
 Frequencies --   3140.6275              3143.0910              3146.3241
 Red. masses --      1.1022                 1.0966                 1.0916
 Frc consts  --      6.4054                 6.3825                 6.3668
 IR Inten    --     22.4215                 4.6125                24.8111

                     73                     74                     75
                      A                      A                      A
 Frequencies --   3177.1200              3679.2497              3744.4849
 Red. masses --      1.1056                 1.0638                 1.0655
 Frc consts  --      6.5756                 8.4843                 8.8023
 IR Inten    --      9.1825                42.5417                 9.1553

 - Thermochemistry -
 -------------------
 Temperature   298.150 Kelvin.  Pressure   1.00000 Atm.
 Atom     1 has atomic number  6 and mass  12.00000

 Molecular mass:   164.10486 amu.
 Principal axes and moments of inertia in atomic units:
                           1         2         3
     Eigenvalues --  1099.076853931.548154239.17424
           X            0.99997   0.00591  -0.00391
           Y           -0.00593   0.99997  -0.00391
           Z            0.00389   0.00393   0.99998
 This molecule is an asymmetric top.
 Rotational symmetry number  1.
 Warning -- assumption of classical behavior for rotation
           may cause significant error
 Rotational temperatures (Kelvin)      0.07881     0.02203     0.02043
 Rotational constants (GHZ):           1.64205     0.45904     0.42573
 Zero-point vibrational energy     617035.9 (Joules/Mol)
                                  147.47511 (Kcal/Mol)
 Warning -- explicit consideration of  21 degrees of freedom as
           vibrations may cause significant error
 Vibrational temperatures:     31.33    55.57    72.62    73.58   103.60
          (Kelvin)            128.59   143.70   179.30   224.10   236.14
                              335.89   366.06   401.67   445.92   469.79
                              592.10   620.31   664.12   694.63   800.65
                              842.38   917.89  1033.56  1146.75  1171.31
                             1214.50  1253.53  1306.90  1407.39  1456.65
                             1489.17  1533.75  1576.48  1585.83  1597.61
                             1645.15  1666.76  1742.39  1769.21  1833.99
                             1931.88  1938.58  1969.34  1978.42  2039.49
                             2066.13  2074.26  2077.49  2085.75  2111.47
                             2171.59  2178.14  2184.57  2189.54  2202.66
                             2203.36  2225.80  2229.82  2631.93  4350.59
                             4367.54  4382.09  4399.94  4413.62  4433.78
                             4447.15  4477.66  4494.84  4516.42  4518.66
                             4522.21  4526.86  4571.17  5293.62  5387.48

 Zero-point correction=                           0.235017 (Hartree/Particle)
 Thermal correction to Energy=                    0.250129
 Thermal correction to Enthalpy=                  0.251073
 Thermal correction to Gibbs Free Energy=         0.190388
 Sum of electronic and zero-point Energies=           -577.077772
 Sum of electronic and thermal Energies=              -577.062660
 Sum of electronic and thermal Enthalpies=            -577.061716
 Sum of electronic and thermal Free Energies=         -577.122401

                     E (Thermal)             CV                S
                      KCal/Mol        Cal/Mol-Kelvin    Cal/Mol-Kelvin
 Total                  156.958             51.180            127.723
 Electronic               0.000              0.000              0.000
 Translational            0.889              2.981             41.195
 Rotational               0.889              2.981             31.283
 Vibrational            155.181             45.218             55.245
 Vibration     1          0.593              1.985              6.465
 Vibration     2          0.594              1.981              5.328
 Vibration     3          0.595              1.977              4.799
 Vibration     4          0.595              1.977              4.773
 Vibration     5          0.598              1.967              4.098
 Vibration     6          0.602              1.957              3.674
 Vibration     7          0.604              1.949              3.457
 Vibration     8          0.610              1.928              3.027
 Vibration     9          0.620              1.896              2.601
 Vibration    10          0.623              1.886              2.502
 Vibration    11          0.654              1.790              1.852
 Vibration    12          0.665              1.755              1.700
 Vibration    13          0.679              1.712              1.539
 Vibration    14          0.699              1.655              1.363
 Vibration    15          0.710              1.622              1.277
 Vibration    16          0.776              1.445              0.921
 Vibration    17          0.792              1.402              0.855
 Vibration    18          0.819              1.335              0.762
 Vibration    19          0.839              1.288              0.703
 Vibration    20          0.912              1.126              0.531
 Vibration    21          0.942              1.063              0.475

 Optimization completed.
    -- Stationary point found.

 1\1\GINC-NODE201\Freq\RB3LYP\6-31G(d)\C7H16O4\VSC10255\08-Dec-2020\0\\
 #N Geom=AllCheck Guess=TCheck SCRF=Check GenChk RB3LYP/6-31G(d) Freq\\
 CID_85606047_JID_1691_neutraal\\0,1\C,-0.8321395407,-0.6912545782,-0.2
 139951402\C,-0.59115402,0.661766474,0.4615921586\C,0.705318286,1.32233
 17436,-0.0113877021\O,0.6913876775,1.5644745567,-1.4158525971\O,1.0783
 928599,2.467796042,0.7261238468\C,0.1016336619,3.4566270283,1.02904556
 94\C,-0.4447615591,4.2162951083,-0.1810721988\C,2.017924655,-1.2024102
 204,-2.6793310043\C,2.915767328,-1.41535654,-1.4919343014\O,2.54620893

 Normal termination of Gaussian 16 at Tue Dec  8 21:27:33 2020.

 ----------------------------------------------------------------------
 # B3LYP/6-311++G(d,p) empiricaldispersion=gd3bj scf=xqc pop=npa geom=c
 heck
 ----------------------------------------------------------------------

 --------------------------------------
 CID_85606047_JID_1691_Energie_neutraal
 --------------------------------------
 Structure from the checkpoint file:  "JID_1691.chk"
 Charge =  0 Multiplicity = 1

 SCF Done:  E(RB3LYP) =  -577.506789525     A.U. after   13 cycles
 Normal termination of Gaussian 16 at Tue Dec  8 21:30:57 2020.

 ----------------------------------------------------------------------
 # B3LYP/6-311++G(d,p) empiricaldispersion=gd3bj scf=xqc pop=npa geom=c
 heck
 ----------------------------------------------------------------------

 ------------------------------------
 CID_85606047_JID_1691_Energie_kation
 ------------------------------------
 Structure from the checkpoint file:  "JID_1691.chk"
 Charge =  1 Multiplicity = 2

 SCF Done:  E(UB3LYP) =  -577.162598246     A.U. after   25 cycles
 Normal termination of Gaussian 16 at Tue Dec  8 21:38:29 2020.
 Gaussian 16:  ES64L-G16RevA.03 25-Dec-2016

 -----------------------------------
 CID_85606047_JID_1691_Energie_anion
 -----------------------------------
 Structure from the checkpoint file:  "JID_1691.chk"
 Charge = -1 Multiplicity = 2

                         Standard orientation:
 ---------------------------------------------------------------------
 Center     Atomic      Atomic             Coordinates (Angstroms)
 Number     Number       Type             X           Y           Z
 ---------------------------------------------------------------------
      1          6           0        0.047991   -2.387309    0.071680
      2          6           0        1.198208   -1.489522   -0.393226
      3          6           0        0.857300   -0.002849   -0.272887
      4          8           0        0.571724    0.364896    1.074169
      5          8           0        1.797669    0.861298   -0.876336
      6          6           0        3.187021    0.652998   -0.652909
      7          6           0        3.652162    0.889304    0.785087
      8          6           0       -2.709008   -0.076730    1.305458
      9          6           0       -2.945850    0.295911   -0.132048
     10          8           0       -2.528130   -0.310630   -1.098818
     11          8           0       -3.669900    1.432958   -0.260027
     12          1           0       -0.150436   -2.245048    1.139033
     13          1           0        0.288137   -3.443260   -0.091593
     14          1           0       -0.871740   -2.148833   -0.471329
     15          1           0        2.104397   -1.715582    0.187114
     16          1           0        1.439124   -1.694466   -1.443257
     17          1           0       -0.070777    0.202038   -0.808473
     18          1           0        1.269689    0.005952    1.643846
     19          1           0        3.495692   -0.345179   -0.994208
     20          1           0        3.671688    1.380369   -1.311504
     21          1           0        3.362753    0.071853    1.456779
     22          1           0        4.745793    0.956794    0.818341
     23          1           0        3.230484    1.821970    1.171117
     24          1           0       -1.669436    0.171967    1.549809
     25          1           0       -2.827681   -1.157050    1.417597
     26          1           0       -3.385173    0.454681    1.976902
     27          1           0       -3.730384    1.604808   -1.219002
 ---------------------------------------------------------------------

 SCF Done:  E(UB3LYP) =  -577.493078139     A.U. after   30 cycles

 The electronic state is 2-A.
 Alpha  occ. eigenvalues --  -19.07568 -19.02205 -19.02090 -19.01883 -10.21403
 Alpha  occ. eigenvalues --  -10.16010 -10.11745 -10.07728 -10.06865 -10.06145
 Alpha  occ. eigenvalues --  -10.05408  -1.01570  -0.95830  -0.92432  -0.89954
 Alpha  occ. eigenvalues --   -0.67910  -0.65904  -0.65493  -0.57462  -0.52747
 Alpha  occ. eigenvalues --   -0.51580  -0.49010  -0.40979  -0.40038  -0.39316
 Alpha  occ. eigenvalues --   -0.38491  -0.37659  -0.37283  -0.34811  -0.33763
 Alpha  occ. eigenvalues --   -0.31425  -0.30999  -0.30320  -0.29905  -0.29543
 Alpha  occ. eigenvalues --   -0.28178  -0.27509  -0.26066  -0.24383  -0.23556
 Alpha  occ. eigenvalues --   -0.22928  -0.21731  -0.18974  -0.18376  -0.16872
 Alpha  occ. eigenvalues --    0.04420
 Alpha virt. eigenvalues --    0.05966   0.07294   0.07946   0.08447   0.09147
 Alpha virt. eigenvalues --    0.09773   0.10246   0.10740   0.11419   0.12189
 Alpha virt. eigenvalues --    0.12607   0.13383   0.13795   0.14444   0.14764

  Beta  occ. eigenvalues --  -19.07524 -19.02176 -19.02082 -19.01874 -10.21401
  Beta  occ. eigenvalues --  -10.16006 -10.11730 -10.07697 -10.06842 -10.06092
  Beta  occ. eigenvalues --  -10.05385  -1.01514  -0.95799  -0.92390  -0.89907
  Beta  occ. eigenvalues --   -0.67872  -0.65851  -0.65444  -0.57398  -0.52671
  Beta  occ. eigenvalues --   -0.51486  -0.48936  -0.40941  -0.40011  -0.39282
  Beta  occ. eigenvalues --   -0.38463  -0.37619  -0.37252  -0.34775  -0.33707
  Beta  occ. eigenvalues --   -0.31389  -0.30953  -0.30278  -0.29866  -0.29497
  Beta  occ. eigenvalues --   -0.28136  -0.27468  -0.26012  -0.24348  -0.23527
  Beta  occ. eigenvalues --   -0.22899  -0.21698  -0.18944  -0.18345  -0.16820
  Beta virt. eigenvalues --    0.06752   0.07232   0.08075   0.08482   0.08946
  Beta virt. eigenvalues --    0.09444   0.10155   0.10698   0.11144   0.11635
  Beta virt. eigenvalues --    0.12574   0.13004   0.13534   0.13939   0.14815

 Mulliken charges and spin densities:
               1          2
     1  C    0.302017  -0.911307
     2  C    0.162865  -0.029129
     3  C   -0.397280  -0.319737
     4  O   -0.157748  -0.003132
     5  O   -0.065286   0.027825
     6  C   -0.668032   0.433043
     7  C    1.345311  -1.710676
     8  C    0.791457  -1.217594
     9  C   -0.283253   0.209642
    10  O   -0.274481   0.004776
    11  O   -0.147684   0.033948
    12  H   -0.178409   0.310989
    13  H   -0.263326   0.407424
    14  H    0.221543  -0.040126
    15  H    0.024814   0.150308
    16  H   -0.105135   0.252167
    17  H    0.325374  -0.093257
    18  H    0.218050   0.054616
    19  H    0.026846   0.111831
    20  H   -0.161215   0.309333
    21  H   -0.810884   0.923145
    22  H   -0.541409   0.682351
    23  H    0.102610   0.064845
    24  H   -0.028205   0.297328
    25  H   -0.134188   0.298622
    26  H    0.024270   0.136128
    27  H   -0.328623   0.616637
 Sum of Mulliken charges =  -1.00000   1.00000

 Dipole moment (field-independent basis, Debye):
    X=             -2.0873    Y=             -0.3893    Z=             -1.4311  Tot=              2.5605
 Quadrupole moment (field-independent basis, Debye-Ang):
   XX=           -145.6667   YY=           -106.8815   ZZ=           -101.6484
   XY=              6.1994   XZ=            -12.0394   YZ=              3.8587

 Summary of Natural Population Analysis:

                                       Natural Population
                Natural  -----------------------------------------------
    Atom  No    Charge         Core      Valence    Rydberg      Total
 -----------------------------------------------------------------------
      C    1   -0.28986      0.99966     2.28431    0.00589     3.28986
      C    2   -0.21584      0.99962     2.20852    0.00770     3.21584
      C    3    0.21100      0.99957     1.77017    0.01925     2.78900
      O    4   -0.37662      0.99989     3.37015    0.00658     4.37662
      O    5   -0.30050      0.99988     3.29212    0.00849     4.30050
      C    6   -0.01403      0.99959     2.00106    0.01338     3.01403
      C    7   -0.30153      0.99966     2.29668    0.00519     3.30153
      C    8   -0.34541      0.99960     2.34068    0.00512     3.34541
      C    9    0.40580      0.99975     1.56974    0.02471     2.59420
      O   10   -0.31530      0.99987     3.30904    0.00640     4.31530
      O   11   -0.34391      0.99988     3.33711    0.00692     4.34391
      H   12    0.09952      0.00000     0.39895    0.00153     0.40048
      H   13    0.09611      0.00000     0.40302    0.00087     0.40389
      H   14    0.10799      0.00000     0.39067    0.00134     0.39201
      H   15    0.09734      0.00000     0.40069    0.00198     0.40266
      H   16    0.10060      0.00000     0.39833    0.00107     0.39940
      H   17    0.08990      0.00000     0.40767    0.00244     0.41010
      H   18    0.23086      0.00000     0.26478    0.00436     0.26914
      H   19    0.07922      0.00000     0.41932    0.00146     0.42078
      H   20    0.08756      0.00000     0.41121    0.00123     0.41244
      H   21    0.09379      0.00000     0.40336    0.00285     0.40621
      H   22    0.10255      0.00000     0.39572    0.00173     0.39745
      H   23    0.10280      0.00000     0.39610    0.00109     0.39720
      H   24    0.13591      0.00000     0.36277    0.00132     0.36409
      H   25    0.11216      0.00000     0.38685    0.00099     0.38784
      H   26    0.10735      0.00000     0.39164    0.00101     0.39265
      H   27    0.24254      0.00000     0.24742    0.01005     0.25746
 =======================================================================
   * Total *    0.00000     10.99698    33.85806    0.14496    45.00000

 Normal termination of Gaussian 16 at Tue Dec  8 21:46:18 2020.
