 Gaussian 16, Revision A.03,

 -----------------------------------------------------------
 # opt freq B3LYP/6-31G(d) empiricaldispersion=gd3bj scf=xqc
 -----------------------------------------------------------

 -------------------------------
 CID_130477001_JID_4155_neutraal
 -------------------------------
 Symbolic Z-matrix:
 Charge =  0 Multiplicity = 1

 SCF Done:  E(RB3LYP) =  -984.624533895     A.U. after   14 cycles
 SCF Done:  E(RB3LYP) =  -984.631902784     A.U. after   13 cycles
 SCF Done:  E(RB3LYP) =  -984.633303709     A.U. after   12 cycles
 SCF Done:  E(RB3LYP) =  -984.634183037     A.U. after   13 cycles
 SCF Done:  E(RB3LYP) =  -984.634496061     A.U. after   12 cycles
 SCF Done:  E(RB3LYP) =  -984.634626501     A.U. after   11 cycles
 SCF Done:  E(RB3LYP) =  -984.634660541     A.U. after   11 cycles
 SCF Done:  E(RB3LYP) =  -984.634677691     A.U. after   10 cycles
 SCF Done:  E(RB3LYP) =  -984.634695112     A.U. after   11 cycles
 SCF Done:  E(RB3LYP) =  -984.634701436     A.U. after   10 cycles
 SCF Done:  E(RB3LYP) =  -984.634704823     A.U. after   10 cycles
 SCF Done:  E(RB3LYP) =  -984.634705442     A.U. after    8 cycles
 SCF Done:  E(RB3LYP) =  -984.634705539     A.U. after    7 cycles
 SCF Done:  E(RB3LYP) =  -984.634705556     A.U. after    7 cycles
 Optimization completed.
    -- Stationary point found.
 Normal termination of Gaussian 16 at Thu Dec 10 09:17:51 2020.

 --------------------------------------------------------------------
 #N Geom=AllCheck Guess=TCheck SCRF=Check GenChk RB3LYP/6-31G(d) Freq
 --------------------------------------------------------------------

 Structure from the checkpoint file:  "JID_4155.chk"
 -------------------------------
 CID_130477001_JID_4155_neutraal
 -------------------------------
 Charge =  0 Multiplicity = 1

 SCF Done:  E(RB3LYP) =  -984.634705556     A.U. after    1 cycles

  Exact polarizability: 192.179  13.819 133.762  11.595   8.595  94.808
 Approx polarizability: 260.032  19.798 231.351  26.933  23.154 146.814

                      1                      2                      3
                      A                      A                      A
 Frequencies --     34.2303                34.9479                47.1780
 Red. masses --      4.4448                 3.0918                 8.2871
 Frc consts  --      0.0031                 0.0022                 0.0109
 IR Inten    --      1.2556                 0.1498                 4.4519

                      4                      5                      6
                      A                      A                      A
 Frequencies --     62.4376               117.8478               139.7082
 Red. masses --      4.7311                 3.9352                 4.3003
 Frc consts  --      0.0109                 0.0322                 0.0495
 IR Inten    --      0.7719                 1.0994                 0.3155

                      7                      8                      9
                      A                      A                      A
 Frequencies --    171.2625               224.2361               230.2326
 Red. masses --      5.0241                 1.0480                 3.6681
 Frc consts  --      0.0868                 0.0310                 0.1146
 IR Inten    --      3.6167                 0.0384                 0.5171

                     10                     11                     12
                      A                      A                      A
 Frequencies --    251.1320               264.8833               289.8814
 Red. masses --      1.4172                 4.9184                 2.2219
 Frc consts  --      0.0527                 0.2033                 0.1100
 IR Inten    --      1.1124                 5.7690                 0.8657

                     13                     14                     15
                      A                      A                      A
 Frequencies --    333.3319               390.2801               402.3414
 Red. masses --      3.4307                 1.9876                 1.7912
 Frc consts  --      0.2246                 0.1784                 0.1708
 IR Inten    --      4.1180                77.8656                66.4865

                     16                     17                     18
                      A                      A                      A
 Frequencies --    418.5502               451.4164               494.9604
 Red. masses --      3.6364                 3.4037                 2.8332
 Frc consts  --      0.3753                 0.4087                 0.4090
 IR Inten    --      6.8091                13.8362                43.8882

                     19                     20                     21
                      A                      A                      A
 Frequencies --    541.4156               560.3389               587.7067
 Red. masses --      1.7415                 2.0856                 1.6765
 Frc consts  --      0.3008                 0.3858                 0.3412
 IR Inten    --     43.9086                15.0987                69.2952

                     22                     23                     24
                      A                      A                      A
 Frequencies --    602.0378               654.9890               658.1783
 Red. masses --      4.0330                 3.4736                 3.1464
 Frc consts  --      0.8612                 0.8780                 0.8031
 IR Inten    --     22.9724               122.6494                19.0899

                     25                     26                     27
                      A                      A                      A
 Frequencies --    686.3647               693.4470               803.3021
 Red. masses --      3.8621                 5.1450                 1.4216
 Frc consts  --      1.0720                 1.4577                 0.5405
 IR Inten    --     51.8899                 6.2017                12.5006

                     28                     29                     30
                      A                      A                      A
 Frequencies --    829.0658               885.3105               897.5630
 Red. masses --      4.2429                 3.5516                 2.4913
 Frc consts  --      1.7182                 1.6401                 1.1825
 IR Inten    --     23.2727                44.2833                 3.3311

                     31                     32                     33
                      A                      A                      A
 Frequencies --    906.6435               949.4775               949.8391
 Red. masses --      1.4100                 1.8924                 1.4559
 Frc consts  --      0.6829                 1.0052                 0.7739
 IR Inten    --     16.6780                 8.6421                 5.7042

                     34                     35                     36
                      A                      A                      A
 Frequencies --    966.0454               998.1274              1004.2680
 Red. masses --      1.5302                 1.9061                 4.0062
 Frc consts  --      0.8414                 1.1188                 2.3805
 IR Inten    --      0.0214                14.6421                14.3863

                     37                     38                     39
                      A                      A                      A
 Frequencies --   1041.0169              1088.1908              1106.2014
 Red. masses --      3.4696                 1.8368                 1.9741
 Frc consts  --      2.2153                 1.2815                 1.4232
 IR Inten    --      8.0923                35.8835                31.9856

                     40                     41                     42
                      A                      A                      A
 Frequencies --   1160.5637              1172.9004              1218.9359
 Red. masses --      2.0819                 1.4680                 1.9465
 Frc consts  --      1.6521                 1.1899                 1.7040
 IR Inten    --      4.8054                55.1700                12.8800

                     43                     44                     45
                      A                      A                      A
 Frequencies --   1261.1330              1287.3215              1308.8086
 Red. masses --      1.5630                 3.5464                 1.8810
 Frc consts  --      1.4646                 3.4627                 1.8985
 IR Inten    --     59.3145                 1.4182               232.7870

                     46                     47                     48
                      A                      A                      A
 Frequencies --   1363.7922              1367.3844              1409.6692
 Red. masses --      1.3926                 1.9630                 1.7633
 Frc consts  --      1.5261                 2.1625                 2.0645
 IR Inten    --      3.4179                 1.8169                 5.8781

                     49                     50                     51
                      A                      A                      A
 Frequencies --   1427.4954              1436.1504              1443.2173
 Red. masses --      1.2673                 2.3781                 3.7112
 Frc consts  --      1.5215                 2.8898                 4.5543
 IR Inten    --      9.1833                34.9213                15.0488

                     52                     53                     54
                      A                      A                      A
 Frequencies --   1447.7915              1459.3497              1497.0487
 Red. masses --      1.2697                 3.3342                 1.9009
 Frc consts  --      1.5681                 4.1837                 2.5100
 IR Inten    --     13.0095                63.6366               179.1119

                     55                     56                     57
                      A                      A                      A
 Frequencies --   1502.8009              1510.4020              1520.9898
 Red. masses --      3.1792                 1.0422                 1.0478
 Frc consts  --      4.2303                 1.4008                 1.4282
 IR Inten    --    136.5666                 0.7166                 0.6689

                     58                     59                     60
                      A                      A                      A
 Frequencies --   1526.1338              1543.5708              1581.9282
 Red. masses --      1.0514                 1.0876                 4.5905
 Frc consts  --      1.4428                 1.5267                 6.7684
 IR Inten    --     10.6292                 0.8152               109.2545

                     61                     62                     63
                      A                      A                      A
 Frequencies --   1650.8980              1695.6330              3063.4073
 Red. masses --      1.4228                 4.5264                 1.0349
 Frc consts  --      2.2848                 7.6677                 5.7220
 IR Inten    --    193.7387               210.5390                19.3036

                     64                     65                     66
                      A                      A                      A
 Frequencies --   3066.9382              3072.8412              3133.7135
 Red. masses --      1.0385                 1.0822                 1.1035
 Frc consts  --      5.7555                 6.0204                 6.3850
 IR Inten    --     12.6941                18.3562                12.8071

                     67                     68                     69
                      A                      A                      A
 Frequencies --   3136.9498              3138.4816              3150.0825
 Red. masses --      1.1032                 1.0875                 1.1033
 Frc consts  --      6.3964                 6.3116                 6.4505
 IR Inten    --     42.1077                21.3849                 3.8737

                     70                     71                     72
                      A                      A                      A
 Frequencies --   3155.1739              3268.6512              3294.3595
 Red. masses --      1.1024                 1.0974                 1.0981
 Frc consts  --      6.4658                 6.9081                 7.0218
 IR Inten    --     25.4634                 0.2322                 4.4499

                     73                     74                     75
                      A                      A                      A
 Frequencies --   3566.4420              3604.0397              3705.0761
 Red. masses --      1.0481                 1.0770                 1.1005
 Frc consts  --      7.8543                 8.2422                 8.9006
 IR Inten    --     29.5903                55.7833                58.4511

 - Thermochemistry -
 -------------------
 Temperature   298.150 Kelvin.  Pressure   1.00000 Atm.
 Atom     1 has atomic number  6 and mass  12.00000

 Molecular mass:   211.08917 amu.
 Principal axes and moments of inertia in atomic units:
                           1         2         3
     Eigenvalues --  1413.268526314.873656947.26281
           X            0.99991  -0.01333  -0.00250
           Y            0.01331   0.99989  -0.00706
           Z            0.00259   0.00702   0.99997
 This molecule is an asymmetric top.
 Rotational symmetry number  1.
 Warning -- assumption of classical behavior for rotation
           may cause significant error
 Rotational temperatures (Kelvin)      0.06129     0.01372     0.01247
 Rotational constants (GHZ):           1.27700     0.28579     0.25978
 Zero-point vibrational energy     579701.1 (Joules/Mol)
                                  138.55190 (Kcal/Mol)
 Warning -- explicit consideration of  22 degrees of freedom as
           vibrations may cause significant error
 Vibrational temperatures:     49.25    50.28    67.88    89.83   169.56
          (Kelvin)            201.01   246.41   322.63   331.25   361.32
                              381.11   417.07   479.59   561.53   578.88
                              602.20   649.49   712.14   778.98   806.20
                              845.58   866.20   942.38   946.97   987.53
                              997.72  1155.77  1192.84  1273.76  1291.39
                             1304.46  1366.09  1366.61  1389.92  1436.08
                             1444.92  1497.79  1565.66  1591.58  1669.79
                             1687.54  1753.78  1814.49  1852.17  1883.08
                             1962.19  1967.36  2028.20  2053.85  2066.30
                             2076.47  2083.05  2099.68  2153.92  2162.20
                             2173.13  2188.37  2195.77  2220.85  2276.04
                             2375.27  2439.64  4407.56  4412.64  4421.13
                             4508.71  4513.37  4515.57  4532.27  4539.59
                             4702.86  4739.85  5131.31  5185.41  5330.78

 Zero-point correction=                           0.220797 (Hartree/Particle)
 Thermal correction to Energy=                    0.235174
 Thermal correction to Enthalpy=                  0.236118
 Thermal correction to Gibbs Free Energy=         0.177801
 Sum of electronic and zero-point Energies=           -984.413909
 Sum of electronic and thermal Energies=              -984.399531
 Sum of electronic and thermal Enthalpies=            -984.398587
 Sum of electronic and thermal Free Energies=         -984.456905

                     E (Thermal)             CV                S
                      KCal/Mol        Cal/Mol-Kelvin    Cal/Mol-Kelvin
 Total                  147.574             53.072            122.740
 Electronic               0.000              0.000              0.000
 Translational            0.889              2.981             41.945
 Rotational               0.889              2.981             32.494
 Vibrational            145.797             47.110             48.300
 Vibration     1          0.594              1.983              5.568
 Vibration     2          0.594              1.983              5.527
 Vibration     3          0.595              1.979              4.932
 Vibration     4          0.597              1.972              4.379
 Vibration     5          0.608              1.935              3.135
 Vibration     6          0.615              1.914              2.808
 Vibration     7          0.626              1.878              2.422
 Vibration     8          0.649              1.804              1.925
 Vibration     9          0.652              1.795              1.877
 Vibration    10          0.663              1.761              1.723
 Vibration    11          0.671              1.737              1.629
 Vibration    12          0.686              1.693              1.475
 Vibration    13          0.715              1.609              1.244
 Vibration    14          0.758              1.491              0.999
 Vibration    15          0.768              1.465              0.954
 Vibration    16          0.781              1.430              0.897
 Vibration    17          0.810              1.358              0.792
 Vibration    18          0.851              1.261              0.671
 Vibration    19          0.897              1.159              0.562
 Vibration    20          0.916              1.117              0.523
 Vibration    21          0.945              1.058              0.471
 Vibration    22          0.960              1.027              0.446

 Optimization completed.
    -- Stationary point found.
 Normal termination of Gaussian 16 at Thu Dec 10 09:24:34 2020.

 ----------------------------------------------------------------------
 # B3LYP/6-311++G(d,p) empiricaldispersion=gd3bj scf=xqc pop=npa geom=c
 heck
 ----------------------------------------------------------------------

 ---------------------------------------
 CID_130477001_JID_4155_Energie_neutraal
 ---------------------------------------
 Structure from the checkpoint file:  "JID_4155.chk"
 Charge =  0 Multiplicity = 1

 SCF Done:  E(RB3LYP) =  -984.828543935     A.U. after   17 cycles
 Normal termination of Gaussian 16 at Thu Dec 10 09:27:26 2020.

 ----------------------------------------------------------------------
 # B3LYP/6-311++G(d,p) empiricaldispersion=gd3bj scf=xqc pop=npa geom=c
 heck
 ----------------------------------------------------------------------

 -------------------------------------
 CID_130477001_JID_4155_Energie_kation
 -------------------------------------
 Structure from the checkpoint file:  "JID_4155.chk"
 Charge =  1 Multiplicity = 2

 SCF Done:  E(UB3LYP) =  -984.537142081     A.U. after   32 cycles
 Normal termination of Gaussian 16 at Thu Dec 10 09:34:53 2020.
 Gaussian 16:  ES64L-G16RevA.03 25-Dec-2016

 ----------------------------------------------------------------------
 # B3LYP/6-311++G(d,p) empiricaldispersion=gd3bj scf=xqc pop=npa geom=c
 heck
 ----------------------------------------------------------------------

 ------------------------------------
 CID_130477001_JID_4155_Energie_anion
 ------------------------------------
 Structure from the checkpoint file:  "JID_4155.chk"
 Charge = -1 Multiplicity = 2

                         Standard orientation:
 ---------------------------------------------------------------------
 Center     Atomic      Atomic             Coordinates (Angstroms)
 Number     Number       Type             X           Y           Z
 ---------------------------------------------------------------------
      1          6           0        3.931775   -1.168631    1.214120
      2          6           0        3.697953   -0.081092    0.163777
      3          6           0        4.321803   -0.424981   -1.190073
      4          7           0        2.258142    0.158755    0.004287
      5          6           0        1.570008    1.287596    0.246966
      6          6           0        0.228560    1.028915   -0.050566
      7          6           0        0.234383   -0.336572   -0.471525
      8          7           0        1.455948   -0.848960   -0.437456
      9          6           0       -0.807537    2.029991    0.057840
     10          7           0       -2.073161    1.997814   -0.199952
     11          7           0       -2.540259    0.731136   -0.654618
     12          6           0       -2.913986   -0.267448    0.206374
     13         16           0       -3.760907   -1.608759   -0.347549
     14          7           0       -2.480184   -0.138634    1.485592
     15          1           0        3.477043   -2.107943    0.888228
     16          1           0        3.490318   -0.885300    2.174796
     17          1           0        5.005625   -1.326721    1.356474
     18          1           0        4.105859    0.869927    0.524082
     19          1           0        3.878855   -1.343648   -1.583980
     20          1           0        4.152856    0.378796   -1.913495
     21          1           0        5.400673   -0.572973   -1.078078
     22          1           0        2.054160    2.186829    0.602093
     23          1           0       -0.595506   -0.948661   -0.790735
     24          1           0       -0.474510    3.008411    0.410406
     25          1           0       -3.155416    0.815540   -1.454536
     26          1           0       -2.254130    0.781720    1.841569
     27          1           0       -2.832458   -0.823288    2.137505
 ---------------------------------------------------------------------

 SCF Done:  E(UB3LYP) =  -984.832514081     A.U. after   33 cycles
 SCF Done:  E(UB3LYP) =  -984.832514081     a.u. after    1 cycles

 The electronic state is 2-A.
 Alpha  occ. eigenvalues --  -88.67435 -14.27057 -14.24731 -14.23262 -14.21180
 Alpha  occ. eigenvalues --  -14.19221 -10.16795 -10.12197 -10.08411 -10.07233
 Alpha  occ. eigenvalues --  -10.06903 -10.06786 -10.06761 -10.05370  -7.76218
 Alpha  occ. eigenvalues --   -5.72646  -5.72008  -5.71780  -0.93477  -0.89538
 Alpha  occ. eigenvalues --   -0.81619  -0.74717  -0.72697  -0.68262  -0.64872
 Alpha  occ. eigenvalues --   -0.60519  -0.59856  -0.53305  -0.51992  -0.50354
 Alpha  occ. eigenvalues --   -0.46619  -0.44426  -0.43285  -0.41856  -0.38047
 Alpha  occ. eigenvalues --   -0.37261  -0.35623  -0.35056  -0.33984  -0.31648
 Alpha  occ. eigenvalues --   -0.30294  -0.30181  -0.29026  -0.27829  -0.27568
 Alpha  occ. eigenvalues --   -0.25951  -0.25535  -0.25206  -0.23079  -0.20420
 Alpha  occ. eigenvalues --   -0.17788  -0.14811  -0.13734  -0.12871  -0.10351
 Alpha  occ. eigenvalues --   -0.09631   0.04036
 Alpha virt. eigenvalues --    0.05857   0.07756   0.08215   0.08650   0.09521
 Alpha virt. eigenvalues --    0.10124   0.10343   0.10659   0.11359   0.11757
 Alpha virt. eigenvalues --    0.12814   0.12842   0.13260   0.13624   0.13871

  Beta  occ. eigenvalues --  -88.67431 -14.27006 -14.24766 -14.23265 -14.21234
  Beta  occ. eigenvalues --  -14.18816 -10.16713 -10.12184 -10.08167 -10.06885
  Beta  occ. eigenvalues --  -10.06795 -10.06773 -10.06739 -10.05428  -7.76215
  Beta  occ. eigenvalues --   -5.72643  -5.71996  -5.71779  -0.93380  -0.89289
  Beta  occ. eigenvalues --   -0.81402  -0.74653  -0.72324  -0.68057  -0.64704
  Beta  occ. eigenvalues --   -0.60396  -0.59815  -0.52917  -0.51758  -0.50235
  Beta  occ. eigenvalues --   -0.46405  -0.44306  -0.43167  -0.41720  -0.37910
  Beta  occ. eigenvalues --   -0.37058  -0.35397  -0.34977  -0.33781  -0.31449
  Beta  occ. eigenvalues --   -0.30222  -0.30020  -0.28865  -0.27746  -0.27456
  Beta  occ. eigenvalues --   -0.25814  -0.25441  -0.25111  -0.22041  -0.19531
  Beta  occ. eigenvalues --   -0.17795  -0.14227  -0.13484  -0.11982  -0.10270
  Beta  occ. eigenvalues --   -0.09402
  Beta virt. eigenvalues --    0.06586   0.08041   0.08526   0.08785   0.09203
  Beta virt. eigenvalues --    0.10058   0.10403   0.10562   0.10737   0.11624
  Beta virt. eigenvalues --    0.11796   0.12924   0.13146   0.13291   0.13638

 Mulliken charges and spin densities:
               1          2
     1  C    0.269583  -0.788172
     2  C   -0.671479   0.621591
     3  C    0.315332  -0.826880
     4  N    0.558291  -0.066292
     5  C   -0.479882   0.388665
     6  C    1.266066  -0.591275
     7  C   -0.230177   0.065309
     8  N   -0.298943   0.044656
     9  C   -0.882232  -0.044766
    10  N   -0.226838   0.176404
    11  N   -0.055005  -0.030675
    12  C    0.149618   0.010602
    13  S   -0.768132   0.029583
    14  N   -0.252655   0.001241
    15  H    0.132953   0.035560
    16  H    0.064519   0.079470
    17  H   -0.192030   0.323485
    18  H   -0.638779   0.778753
    19  H    0.149466   0.018635
    20  H    0.021586   0.129145
    21  H   -0.038055   0.164322
    22  H   -0.288337   0.440309
    23  H    0.157678   0.011845
    24  H    0.108970   0.024576
    25  H    0.309385   0.009190
    26  H    0.260352  -0.005894
    27  H    0.258745   0.000612
 Sum of Mulliken charges =  -1.00000   1.00000

 Dipole moment (field-independent basis, Debye):
    X=              0.0142    Y=              0.3036    Z=              1.5187  Tot=              1.5488
 Quadrupole moment (field-independent basis, Debye-Ang):
   XX=           -173.7282   YY=           -123.8277   ZZ=           -102.1532
   XY=            -11.1266   XZ=             -9.6896   YZ=             -1.5476

 Summary of Natural Population Analysis:

                                       Natural Population
                Natural  -----------------------------------------------
    Atom  No    Charge         Core      Valence    Rydberg      Total
 -----------------------------------------------------------------------
      C    1   -0.28873      0.99964     2.28294    0.00615     3.28873
      C    2   -0.00277      0.99960     1.99041    0.01275     3.00277
      C    3   -0.28823      0.99964     2.28234    0.00624     3.28823
      N    4   -0.10625      0.99964     2.59199    0.01462     3.60625
      C    5    0.05943      0.99953     1.92971    0.01134     2.94057
      C    6   -0.12919      0.99952     2.11996    0.00971     3.12919
      C    7    0.02661      0.99960     1.96001    0.01378     2.97339
      N    8   -0.17349      0.99973     2.66333    0.01044     3.67349
      C    9    0.10577      0.99961     1.87713    0.01750     2.89423
      N   10   -0.13235      0.99969     2.61900    0.01365     3.63235
      N   11   -0.23944      0.99962     2.72577    0.01405     3.73944
      C   12    0.14863      0.99969     1.83022    0.02146     2.85137
      S   13   -0.17629      4.99958     3.16225    0.01446     8.17629
      N   14   -0.39678      0.99967     2.88666    0.01045     3.89678
      H   15    0.10675      0.00000     0.39219    0.00106     0.39325
      H   16    0.10156      0.00000     0.39761    0.00083     0.39844
      H   17    0.09912      0.00000     0.39987    0.00101     0.40088
      H   18    0.09906      0.00000     0.39750    0.00344     0.40094
      H   19    0.10638      0.00000     0.39254    0.00107     0.39362
      H   20    0.10306      0.00000     0.39614    0.00080     0.39694
      H   21    0.09767      0.00000     0.40158    0.00075     0.40233
      H   22    0.09941      0.00000     0.39941    0.00118     0.40059
      H   23    0.10659      0.00000     0.39236    0.00105     0.39341
      H   24    0.08073      0.00000     0.41700    0.00227     0.41927
      H   25    0.19649      0.00000     0.30196    0.00155     0.30351
      H   26    0.20027      0.00000     0.29794    0.00179     0.29973
      H   27    0.19599      0.00000     0.30269    0.00132     0.30401
 =======================================================================
   * Total *    0.00000     17.99476    37.81051    0.19473    56.00000

 Normal termination of Gaussian 16 at Thu Dec 10 09:42:48 2020.
