 Gaussian 16, Revision A.03,

 -----------------------------------------------------------
 # opt freq B3LYP/6-31G(d) empiricaldispersion=gd3bj scf=xqc
 -----------------------------------------------------------

 -------------------------------
 CID_146748608_JID_3825_neutraal
 -------------------------------
 Symbolic Z-matrix:
 Charge =  0 Multiplicity = 1

 SCF Done:  E(RB3LYP) =  -507.300120045     A.U. after   13 cycles
 SCF Done:  E(RB3LYP) =  -507.333354104     A.U. after   11 cycles
 SCF Done:  E(RB3LYP) =  -507.355361246     A.U. after   11 cycles
 SCF Done:  E(RB3LYP) =  -507.361765182     A.U. after   11 cycles
 SCF Done:  E(RB3LYP) =  -507.367899701     A.U. after   11 cycles
 SCF Done:  E(RB3LYP) =  -507.369773728     A.U. after   10 cycles
 SCF Done:  E(RB3LYP) =  -507.370755217     A.U. after   10 cycles
 SCF Done:  E(RB3LYP) =  -507.370939201     A.U. after    9 cycles
 SCF Done:  E(RB3LYP) =  -507.371002686     A.U. after    9 cycles
 SCF Done:  E(RB3LYP) =  -507.371025709     A.U. after    8 cycles
 SCF Done:  E(RB3LYP) =  -507.371028903     A.U. after    7 cycles
 SCF Done:  E(RB3LYP) =  -507.371030156     A.U. after    7 cycles
 SCF Done:  E(RB3LYP) =  -507.371030329     A.U. after    6 cycles
 SCF Done:  E(RB3LYP) =  -507.371030389     A.U. after    6 cycles
 Optimization completed.
    -- Stationary point found.
 Normal termination of Gaussian 16 at Mon Dec 14 13:12:08 2020.

 --------------------------------------------------------------------
 #N Geom=AllCheck Guess=TCheck SCRF=Check GenChk RB3LYP/6-31G(d) Freq
 --------------------------------------------------------------------

 Structure from the checkpoint file:  "JID_3825.chk"
 -------------------------------
 CID_146748608_JID_3825_neutraal
 -------------------------------
 Charge =  0 Multiplicity = 1

 SCF Done:  E(RB3LYP) =  -507.371030389     A.U. after    1 cycles

  Exact polarizability: 147.304  -3.322 122.082   1.775   1.537 106.401
 Approx polarizability: 182.797  -6.831 177.746   2.495   2.654 172.569

                      1                      2                      3
                      A                      A                      A
 Frequencies --     58.0698                91.1858               100.3971
 Red. masses --      2.6626                 2.7652                 3.0317
 Frc consts  --      0.0053                 0.0135                 0.0180
 IR Inten    --      0.0095                 0.0484                 0.0264

                      4                      5                      6
                      A                      A                      A
 Frequencies --    112.0155               172.1564               219.0766
 Red. masses --      2.3544                 2.2455                 2.4431
 Frc consts  --      0.0174                 0.0392                 0.0691
 IR Inten    --      0.0363                 0.1365                 0.1608

                      7                      8                      9
                      A                      A                      A
 Frequencies --    229.7714               281.8016               298.6086
 Red. masses --      1.8014                 1.7700                 1.8064
 Frc consts  --      0.0560                 0.0828                 0.0949
 IR Inten    --      0.0480                 0.2613                 0.0360

                     10                     11                     12
                      A                      A                      A
 Frequencies --    330.4563               381.5611               432.0289
 Red. masses --      2.9211                 2.4799                 2.5248
 Frc consts  --      0.1879                 0.2127                 0.2777
 IR Inten    --      0.5390                 0.1489                 0.1047

                     13                     14                     15
                      A                      A                      A
 Frequencies --    479.5505               506.8589               559.0867
 Red. masses --      2.2277                 2.5548                 2.7972
 Frc consts  --      0.3018                 0.3867                 0.5151
 IR Inten    --      0.5195                 0.6242                 0.5030

                     16                     17                     18
                      A                      A                      A
 Frequencies --    577.9820               638.8734               691.6921
 Red. masses --      2.4584                 2.9401                 2.9627
 Frc consts  --      0.4839                 0.7070                 0.8352
 IR Inten    --      2.7035                 0.8598                 1.8129

                     19                     20                     21
                      A                      A                      A
 Frequencies --    731.6426               764.5877               775.2665
 Red. masses --      2.3405                 1.5509                 1.6919
 Frc consts  --      0.7382                 0.5342                 0.5991
 IR Inten    --      0.0789                 0.3736                 1.9478

                     22                     23                     24
                      A                      A                      A
 Frequencies --    804.5855               842.9145               868.4698
 Red. masses --      2.0964                 2.9958                 2.0734
 Frc consts  --      0.7996                 1.2541                 0.9214
 IR Inten    --      1.3927                 3.8451                 1.8585

                     25                     26                     27
                      A                      A                      A
 Frequencies --    880.6531               895.1264               897.7498
 Red. masses --      2.5357                 2.5426                 1.9174
 Frc consts  --      1.1586                 1.2003                 0.9105
 IR Inten    --      2.8652                 2.0344                 2.9936

                     28                     29                     30
                      A                      A                      A
 Frequencies --    911.9061               934.5079               961.6207
 Red. masses --      1.4690                 1.7137                 2.1468
 Frc consts  --      0.7198                 0.8817                 1.1696
 IR Inten    --      1.6219                 0.3540                 2.2363

                     31                     32                     33
                      A                      A                      A
 Frequencies --    966.1432               993.6487              1001.7180
 Red. masses --      1.5581                 2.1322                 1.5874
 Frc consts  --      0.8569                 1.2403                 0.9385
 IR Inten    --      3.7305                 0.3907                 0.1082

                     34                     35                     36
                      A                      A                      A
 Frequencies --   1027.2653              1033.4370              1043.4373
 Red. masses --      1.4314                 1.6928                 2.0374
 Frc consts  --      0.8900                 1.0652                 1.3070
 IR Inten    --      7.8599                 0.7707                 0.7378

                     37                     38                     39
                      A                      A                      A
 Frequencies --   1067.0751              1074.1076              1076.4485
 Red. masses --      1.5243                 1.5588                 1.9546
 Frc consts  --      1.0226                 1.0596                 1.3344
 IR Inten    --      0.9057                 1.8597                 2.7624

                     40                     41                     42
                      A                      A                      A
 Frequencies --   1099.9237              1103.0192              1119.3394
 Red. masses --      1.6580                 1.5574                 2.1779
 Frc consts  --      1.1818                 1.1164                 1.6077
 IR Inten    --      1.1178                 2.3513                 0.8875

                     43                     44                     45
                      A                      A                      A
 Frequencies --   1142.4992              1147.3744              1179.8502
 Red. masses --      2.1916                 1.5865                 2.0670
 Frc consts  --      1.6855                 1.2306                 1.6953
 IR Inten    --      0.5816                 1.4689                 0.4257

                     46                     47                     48
                      A                      A                      A
 Frequencies --   1198.3688              1214.9529              1223.2155
 Red. masses --      1.6459                 1.4266                 1.5244
 Frc consts  --      1.3927                 1.2407                 1.3439
 IR Inten    --      0.6267                 0.1831                 1.3708

                     49                     50                     51
                      A                      A                      A
 Frequencies --   1245.8223              1256.1963              1266.4614
 Red. masses --      1.4393                 1.4172                 1.6787
 Frc consts  --      1.3162                 1.3176                 1.5864
 IR Inten    --      1.0757                 0.7980                 0.5850

                     52                     53                     54
                      A                      A                      A
 Frequencies --   1271.2714              1278.4026              1287.5633
 Red. masses --      1.3291                 1.3874                 1.4307
 Frc consts  --      1.2656                 1.3359                 1.3974
 IR Inten    --      0.7493                 1.8165                 1.2393

                     55                     56                     57
                      A                      A                      A
 Frequencies --   1292.9795              1307.3450              1326.0629
 Red. masses --      1.4814                 1.5596                 1.4290
 Frc consts  --      1.4592                 1.5705                 1.4805
 IR Inten    --      0.6998                 0.1262                 0.3847

                     58                     59                     60
                      A                      A                      A
 Frequencies --   1338.0485              1351.8985              1361.8195
 Red. masses --      1.3528                 1.5561                 1.3033
 Frc consts  --      1.4271                 1.6756                 1.4240
 IR Inten    --      8.9240                 2.0690                 5.2172

                     61                     62                     63
                      A                      A                      A
 Frequencies --   1393.5353              1397.9154              1410.7555
 Red. masses --      1.7395                 1.6033                 1.2984
 Frc consts  --      1.9902                 1.8460                 1.5225
 IR Inten    --      2.5678                 3.1531                 5.0134

                     64                     65                     66
                      A                      A                      A
 Frequencies --   1427.6930              1444.6177              1507.5990
 Red. masses --      1.6682                 1.2784                 1.0866
 Frc consts  --      2.0034                 1.5719                 1.4551
 IR Inten    --      0.5900                 2.9210                 1.1845

                     67                     68                     69
                      A                      A                      A
 Frequencies --   1512.1140              1519.0555              1523.9916
 Red. masses --      1.0843                 1.0658                 1.1179
 Frc consts  --      1.4607                 1.4490                 1.5297
 IR Inten    --      0.7780                 2.0894                 1.7008

                     70                     71                     72
                      A                      A                      A
 Frequencies --   1529.8529              1532.3518              1535.7138
 Red. masses --      1.1602                 1.0589                 1.1782
 Frc consts  --      1.5998                 1.4650                 1.6372
 IR Inten    --      3.2301                 5.9707                 1.8299

                     73                     74                     75
                      A                      A                      A
 Frequencies --   1538.6035              3014.4721              3024.5004
 Red. masses --      1.0762                 1.0845                 1.0626
 Frc consts  --      1.5010                 5.8061                 5.7271
 IR Inten    --     11.8759                16.3286                22.2721

                     76                     77                     78
                      A                      A                      A
 Frequencies --   3032.9984              3048.3205              3051.7964
 Red. masses --      1.0635                 1.0384                 1.0862
 Frc consts  --      5.7639                 5.6853                 5.9605
 IR Inten    --     35.4571                17.8385                29.2237

                     79                     80                     81
                      A                      A                      A
 Frequencies --   3058.2884              3058.8954              3066.1285
 Red. masses --      1.0599                 1.0976                 1.0645
 Frc consts  --      5.8411                 6.0507                 5.8964
 IR Inten    --     28.1221                35.5025                17.8265

                     82                     83                     84
                      A                      A                      A
 Frequencies --   3069.6556              3075.0461              3077.5478
 Red. masses --      1.0678                 1.0741                 1.0975
 Frc consts  --      5.9280                 5.9841                 6.1242
 IR Inten    --     71.0494                33.5833                52.8880

                     85                     86                     87
                      A                      A                      A
 Frequencies --   3085.3094              3104.3812              3110.4504
 Red. masses --      1.0888                 1.1053                 1.1044
 Frc consts  --      6.1064                 6.2760                 6.2957
 IR Inten    --     28.2590                46.1660                20.6448

                     88                     89                     90
                      A                      A                      A
 Frequencies --   3110.6493              3116.9460              3124.6854
 Red. masses --      1.1034                 1.0565                 1.1011
 Frc consts  --      6.2907                 6.0476                 6.3344
 IR Inten    --     37.7482                29.0423                43.2068

                     91                     92                     93
                      A                      A                      A
 Frequencies --   3127.2635              3175.7678              3191.5392
 Red. masses --      1.1059                 1.0951                 1.1108
 Frc consts  --      6.3724                 6.5074                 6.6665
 IR Inten    --     97.6507                27.2436                26.9696

 - Thermochemistry -
 -------------------
 Temperature   298.150 Kelvin.  Pressure   1.00000 Atm.
 Atom     1 has atomic number  6 and mass  12.00000

 Molecular mass:   176.15650 amu.
 Principal axes and moments of inertia in atomic units:
                           1         2         3
     Eigenvalues --  1109.893733296.526113876.25698
           X            0.99996   0.00841   0.00219
           Y           -0.00843   0.99991   0.01022
           Z           -0.00210  -0.01024   0.99995
 This molecule is an asymmetric top.
 Rotational symmetry number  1.
 Warning -- assumption of classical behavior for rotation
           may cause significant error
 Rotational temperatures (Kelvin)      0.07804     0.02627     0.02234
 Rotational constants (GHZ):           1.62605     0.54747     0.46559
 Zero-point vibrational energy     793867.8 (Joules/Mol)
                                  189.73897 (Kcal/Mol)
 Warning -- explicit consideration of  16 degrees of freedom as
           vibrations may cause significant error
 Vibrational temperatures:     83.55   131.20   144.45   161.17   247.69
          (Kelvin)            315.20   330.59   405.45   429.63   475.45
                              548.98   621.59   689.97   729.26   804.40
                              831.59   919.20   995.19  1052.67  1100.07
                             1115.44  1157.62  1212.77  1249.53  1267.06
                             1287.89  1291.66  1312.03  1344.55  1383.56
                             1390.06  1429.64  1441.25  1478.01  1486.89
                             1501.27  1535.28  1545.40  1548.77  1582.54
                             1587.00  1610.48  1643.80  1650.82  1697.54
                             1724.19  1748.05  1759.93  1792.46  1807.39
                             1822.16  1829.08  1839.34  1852.52  1860.31
                             1880.98  1907.91  1925.15  1945.08  1959.35
                             2004.99  2011.29  2029.76  2054.13  2078.48
                             2169.10  2175.59  2185.58  2192.68  2201.12
                             2204.71  2209.55  2213.71  4337.15  4351.58
                             4363.81  4385.85  4390.85  4400.19  4401.07
                             4411.48  4416.55  4424.31  4427.90  4439.07
                             4466.51  4475.24  4475.53  4484.59  4495.73
                             4499.43  4569.22  4591.91

 Zero-point correction=                           0.302368 (Hartree/Particle)
 Thermal correction to Energy=                    0.314269
 Thermal correction to Enthalpy=                  0.315214
 Thermal correction to Gibbs Free Energy=         0.264629
 Sum of electronic and zero-point Energies=           -507.068662
 Sum of electronic and thermal Energies=              -507.056761
 Sum of electronic and thermal Enthalpies=            -507.055817
 Sum of electronic and thermal Free Energies=         -507.106401

                     E (Thermal)             CV                S
                      KCal/Mol        Cal/Mol-Kelvin    Cal/Mol-Kelvin
 Total                  197.207             48.619            106.464
 Electronic               0.000              0.000              0.000
 Translational            0.889              2.981             41.406
 Rotational               0.889              2.981             31.029
 Vibrational            195.430             42.657             34.029
 Vibration     1          0.596              1.974              4.522
 Vibration     2          0.602              1.955              3.634
 Vibration     3          0.604              1.949              3.447
 Vibration     4          0.607              1.940              3.234
 Vibration     5          0.626              1.877              2.412
 Vibration     6          0.647              1.812              1.967
 Vibration     7          0.652              1.796              1.881
 Vibration     8          0.681              1.707              1.523
 Vibration     9          0.692              1.676              1.425
 Vibration    10          0.713              1.615              1.258
 Vibration    11          0.751              1.509              1.033
 Vibration    12          0.793              1.400              0.852
 Vibration    13          0.836              1.295              0.711
 Vibration    14          0.862              1.235              0.641
 Vibration    15          0.915              1.120              0.526
 Vibration    16          0.935              1.079              0.489

 Optimization completed.
    -- Stationary point found.
 Normal termination of Gaussian 16 at Mon Dec 14 13:22:02 2020.

 ----------------------------------------------------------------------
 # B3LYP/6-311++G(d,p) empiricaldispersion=gd3bj scf=xqc pop=npa geom=c
 heck
 ----------------------------------------------------------------------

 ---------------------------------------
 CID_146748608_JID_3825_Energie_neutraal
 ---------------------------------------
 Structure from the checkpoint file:  "JID_3825.chk"
 Charge =  0 Multiplicity = 1

 SCF Done:  E(RB3LYP) =  -507.499839822     A.U. after   14 cycles
 Normal termination of Gaussian 16 at Mon Dec 14 13:25:58 2020.

 ----------------------------------------------------------------------
 # B3LYP/6-311++G(d,p) empiricaldispersion=gd3bj scf=xqc pop=npa geom=c
 heck
 ----------------------------------------------------------------------

 -------------------------------------
 CID_146748608_JID_3825_Energie_kation
 -------------------------------------
 Structure from the checkpoint file:  "JID_3825.chk"
 Charge =  1 Multiplicity = 2

 SCF Done:  E(UB3LYP) =  -507.184877016     A.U. after   22 cycles
 Normal termination of Gaussian 16 at Mon Dec 14 13:34:11 2020.
 Gaussian 16:  ES64L-G16RevA.03 25-Dec-2016

 ----------------------------------------------------------------------
 # B3LYP/6-311++G(d,p) empiricaldispersion=gd3bj scf=xqc pop=npa geom=c
 heck
 ----------------------------------------------------------------------

 ------------------------------------
 CID_146748608_JID_3825_Energie_anion
 ------------------------------------
 Structure from the checkpoint file:  "JID_3825.chk"
 Charge = -1 Multiplicity = 2

                         Standard orientation:
 ---------------------------------------------------------------------
 Center     Atomic      Atomic             Coordinates (Angstroms)
 Number     Number       Type             X           Y           Z
 ---------------------------------------------------------------------
      1          6           0       -3.228161   -1.578637   -0.036409
      2          6           0       -3.580470   -0.117072    0.255775
      3          6           0       -2.372711    0.766313    0.601247
      4          6           0       -1.349550    0.879145   -0.530830
      5          6           0       -0.224274   -0.217596   -0.728946
      6          6           0        0.293383   -1.459709    0.010409
      7          6           0        1.831543   -1.312414   -0.269703
      8          6           0        2.801183   -1.017377    0.912354
      9          6           0        3.336792    0.235712    0.169456
     10          6           0        2.150683    0.152441   -0.822319
     11          6           0        0.843689    0.804980   -0.442393
     12          6           0       -0.218037    1.925515   -0.381593
     13          6           0        0.579170    1.552653    0.837203
     14          1           0       -2.591611   -1.670216   -0.922308
     15          1           0       -4.131385   -2.174045   -0.211554
     16          1           0       -2.686939   -2.028858    0.804363
     17          1           0       -4.100607    0.311717   -0.612624
     18          1           0       -4.294745   -0.077856    1.088900
     19          1           0       -2.730995    1.775023    0.850034
     20          1           0       -1.897443    0.377899    1.510348
     21          1           0       -1.891979    1.013417   -1.474399
     22          1           0       -0.197693   -0.445094   -1.803786
     23          1           0       -0.110685   -2.408436   -0.357198
     24          1           0        0.094682   -1.408168    1.087079
     25          1           0        2.204066   -2.107419   -0.922722
     26          1           0        3.534488   -1.794706    1.149550
     27          1           0        2.259985   -0.763122    1.829097
     28          1           0        4.293015    0.044124   -0.327485
     29          1           0        3.430833    1.157454    0.751959
     30          1           0        2.388420    0.234053   -1.888399
     31          1           0       -0.230136    2.930150   -0.797250
     32          1           0        0.103301    1.101822    1.707533
     33          1           0        1.375984    2.248532    1.093355
 ---------------------------------------------------------------------

 SCF Done:  E(UB3LYP) =  -507.482180992     A.U. after   33 cycles
 SCF Done:  E(UB3LYP) =  -507.482180992     a.u. after    1 cycles

 The electronic state is 2-A.
 Alpha  occ. eigenvalues --  -10.08370 -10.07753 -10.07403 -10.07282 -10.07131
 Alpha  occ. eigenvalues --  -10.06737 -10.06596 -10.06418 -10.06391 -10.06370
 Alpha  occ. eigenvalues --  -10.06343 -10.06324 -10.05660  -0.80772  -0.74083
 Alpha  occ. eigenvalues --   -0.69223  -0.65805  -0.62061  -0.58270  -0.57001
 Alpha  occ. eigenvalues --   -0.52607  -0.50997  -0.48809  -0.45511  -0.43385
 Alpha  occ. eigenvalues --   -0.41727  -0.39008  -0.38929  -0.36824  -0.35242
 Alpha  occ. eigenvalues --   -0.34096  -0.32443  -0.31391  -0.30731  -0.30264
 Alpha  occ. eigenvalues --   -0.28098  -0.26947  -0.26022  -0.25621  -0.24755
 Alpha  occ. eigenvalues --   -0.24087  -0.23523  -0.22850  -0.20403  -0.19808
 Alpha  occ. eigenvalues --   -0.19538  -0.18100  -0.17327  -0.14849   0.04541
 Alpha virt. eigenvalues --    0.06222   0.06945   0.07286   0.08353   0.08472
 Alpha virt. eigenvalues --    0.08807   0.09693   0.09987   0.10691   0.11015
 Alpha virt. eigenvalues --    0.11398   0.11891   0.12728   0.13158   0.13687

  Beta  occ. eigenvalues --  -10.08360 -10.07744 -10.07404 -10.07270 -10.07120
  Beta  occ. eigenvalues --  -10.06721 -10.06576 -10.06408 -10.06379 -10.06363
  Beta  occ. eigenvalues --  -10.06334 -10.06306 -10.05636  -0.80754  -0.74056
  Beta  occ. eigenvalues --   -0.69194  -0.65784  -0.62030  -0.58242  -0.56965
  Beta  occ. eigenvalues --   -0.52567  -0.50954  -0.48759  -0.45472  -0.43349
  Beta  occ. eigenvalues --   -0.41691  -0.38974  -0.38887  -0.36792  -0.35219
  Beta  occ. eigenvalues --   -0.34053  -0.32419  -0.31372  -0.30707  -0.30237
  Beta  occ. eigenvalues --   -0.28066  -0.26922  -0.25996  -0.25593  -0.24717
  Beta  occ. eigenvalues --   -0.24057  -0.23492  -0.22820  -0.20377  -0.19787
  Beta  occ. eigenvalues --   -0.19511  -0.18081  -0.17300  -0.14833
  Beta virt. eigenvalues --    0.06599   0.07224   0.07566   0.07763   0.08887
  Beta virt. eigenvalues --    0.08958   0.09305   0.10133   0.10388   0.11200
  Beta virt. eigenvalues --    0.11397   0.11720   0.12295   0.13056   0.13474

 Mulliken charges and spin densities:
               1          2
     1  C    0.017402  -0.557346
     2  C    0.888116  -1.306244
     3  C   -0.622049   0.458252
     4  C    0.012956   0.094249
     5  C   -0.550221   0.353903
     6  C    0.081231  -1.003053
     7  C    0.936794  -0.801535
     8  C   -0.192702  -0.223045
     9  C    1.012010  -1.576677
    10  C   -1.827914   2.162245
    11  C    1.640002  -1.463277
    12  C    0.769702  -0.755565
    13  C   -0.266414  -0.451786
    14  H   -0.027522   0.183781
    15  H   -0.550185   0.711225
    16  H    0.088895   0.037711
    17  H    0.006065   0.117336
    18  H   -0.285813   0.436710
    19  H   -0.080790   0.252742
    20  H    0.042861   0.048672
    21  H   -0.103854   0.313936
    22  H   -0.077574   0.282424
    23  H   -0.038877   0.174469
    24  H    0.138127   0.020371
    25  H   -0.358394   0.577512
    26  H   -0.304911   0.464240
    27  H    0.082874   0.028221
    28  H   -0.396718   0.542521
    29  H    0.013171   0.104492
    30  H   -0.514255   0.761660
    31  H   -0.371501   0.565256
    32  H   -0.094968   0.227644
    33  H   -0.065545   0.218955
 Sum of Mulliken charges =  -1.00000   1.00000

 Dipole moment (field-independent basis, Debye):
    X=             -0.2537    Y=              1.5024    Z=              2.3992  Tot=              2.8422
 Quadrupole moment (field-independent basis, Debye-Ang):
   XX=           -168.6544   YY=           -126.4996   ZZ=           -117.8096
   XY=             -0.0048   XZ=              4.3876   YZ=             -2.1037

 Summary of Natural Population Analysis:

                                       Natural Population
                Natural  -----------------------------------------------
    Atom  No    Charge         Core      Valence    Rydberg      Total
 -----------------------------------------------------------------------
      C    1   -0.28692      0.99967     2.28176    0.00550     3.28692
      C    2   -0.18547      0.99964     2.17804    0.00779     3.18547
      C    3   -0.18961      0.99960     2.18109    0.00893     3.18961
      C    4   -0.10287      0.99958     2.09098    0.01232     3.10287
      C    5   -0.09857      0.99949     2.08793    0.01115     3.09857
      C    6   -0.19315      0.99960     2.18444    0.00912     3.19315
      C    7   -0.09865      0.99961     2.08785    0.01118     3.09865
      C    8   -0.18687      0.99963     2.17897    0.00827     3.18687
      C    9   -0.18826      0.99963     2.18007    0.00856     3.18826
      C   10   -0.10001      0.99953     2.08879    0.01169     3.10001
      C   11   -0.03784      0.99948     2.02238    0.01597     3.03784
      C   12   -0.08739      0.99955     2.07595    0.01189     3.08739
      C   13   -0.20180      0.99956     2.19281    0.00943     3.20180
      H   14    0.09864      0.00000     0.40020    0.00117     0.40136
      H   15    0.09832      0.00000     0.40064    0.00104     0.40168
      H   16    0.09520      0.00000     0.40375    0.00106     0.40480
      H   17    0.09184      0.00000     0.40679    0.00136     0.40816
      H   18    0.09363      0.00000     0.40524    0.00113     0.40637
      H   19    0.09879      0.00000     0.40005    0.00116     0.40121
      H   20    0.09378      0.00000     0.40473    0.00150     0.40622
      H   21    0.09978      0.00000     0.39859    0.00163     0.40022
      H   22    0.09816      0.00000     0.40019    0.00164     0.40184
      H   23    0.10080      0.00000     0.39806    0.00115     0.39920
      H   24    0.09511      0.00000     0.40332    0.00157     0.40489
      H   25    0.10085      0.00000     0.39745    0.00169     0.39915
      H   26    0.09714      0.00000     0.40170    0.00116     0.40286
      H   27    0.09473      0.00000     0.40392    0.00134     0.40527
      H   28    0.09961      0.00000     0.39882    0.00157     0.40039
      H   29    0.09502      0.00000     0.40386    0.00111     0.40498
      H   30    0.10370      0.00000     0.39452    0.00178     0.39630
      H   31    0.10270      0.00000     0.39622    0.00108     0.39730
      H   32    0.09539      0.00000     0.40322    0.00139     0.40461
      H   33    0.10422      0.00000     0.39471    0.00108     0.39578
 =======================================================================
   * Total *    0.00000     12.99456    35.84703    0.15840    49.00000

 Normal termination of Gaussian 16 at Mon Dec 14 13:46:03 2020.
