 Gaussian 16, Revision A.03,

 -----------------------------------------------------------
 # opt freq B3LYP/6-31G(d) empiricaldispersion=gd3bj scf=xqc
 -----------------------------------------------------------

 ------------------------------
 CID_83261333_JID_7195_neutraal
 ------------------------------
 Symbolic Z-matrix:
 Charge =  0 Multiplicity = 1

 SCF Done:  E(RB3LYP) =  -750.194261241     A.U. after   15 cycles
 SCF Done:  E(RB3LYP) =  -750.197890952     A.U. after   12 cycles
 SCF Done:  E(RB3LYP) =  -750.198370673     A.U. after   12 cycles
 SCF Done:  E(RB3LYP) =  -750.198906591     A.U. after   12 cycles
 SCF Done:  E(RB3LYP) =  -750.199096604     A.U. after   13 cycles
 SCF Done:  E(RB3LYP) =  -750.199165227     A.U. after   12 cycles
 SCF Done:  E(RB3LYP) =  -750.199200773     A.U. after   11 cycles
 SCF Done:  E(RB3LYP) =  -750.199207574     A.U. after   10 cycles
 SCF Done:  E(RB3LYP) =  -750.199208960     A.U. after    9 cycles
 SCF Done:  E(RB3LYP) =  -750.199209555     A.U. after    8 cycles
 SCF Done:  E(RB3LYP) =  -750.199209736     A.U. after    8 cycles
 SCF Done:  E(RB3LYP) =  -750.199209794     A.U. after    7 cycles
 SCF Done:  E(RB3LYP) =  -750.199209817     A.U. after    6 cycles
 Optimization completed.
    -- Stationary point found.
 Normal termination of Gaussian 16 at Fri Dec 11 11:54:00 2020.

 --------------------------------------------------------------------
 #N Geom=AllCheck Guess=TCheck SCRF=Check GenChk RB3LYP/6-31G(d) Freq
 --------------------------------------------------------------------

 Structure from the checkpoint file:  "JID_7195.chk"
 ------------------------------
 CID_83261333_JID_7195_neutraal
 ------------------------------
 Charge =  0 Multiplicity = 1

 SCF Done:  E(RB3LYP) =  -750.199209817     A.U. after    1 cycles

  Exact polarizability: 195.130  -2.257 149.963   1.932   8.471 113.154
 Approx polarizability: 257.565  -8.092 240.656   8.999  30.396 176.621

                      1                      2                      3
                      A                      A                      A
 Frequencies --     19.4720                33.5947                43.6748
 Red. masses --      3.2995                 3.4715                 5.7263
 Frc consts  --      0.0007                 0.0023                 0.0064
 IR Inten    --      0.4840                 1.6061                 2.7765

                      4                      5                      6
                      A                      A                      A
 Frequencies --     66.2777                91.7500               114.4957
 Red. masses --      3.7646                 4.0927                 4.0200
 Frc consts  --      0.0097                 0.0203                 0.0310
 IR Inten    --      0.8111                 1.7174                 0.3177

                      7                      8                      9
                      A                      A                      A
 Frequencies --    134.0947               181.4875               215.5744
 Red. masses --      4.0507                 2.0437                 3.6955
 Frc consts  --      0.0429                 0.0397                 0.1012
 IR Inten    --      1.1153                 0.9856                 0.1769

                     10                     11                     12
                      A                      A                      A
 Frequencies --    252.7983               269.6907               283.5970
 Red. masses --      1.0646                 2.9068                 2.9258
 Frc consts  --      0.0401                 0.1246                 0.1386
 IR Inten    --      0.0490                 0.3398                 0.5473

                     13                     14                     15
                      A                      A                      A
 Frequencies --    286.0108               300.4414               342.1464
 Red. masses --      1.2258                 3.7418                 2.9065
 Frc consts  --      0.0591                 0.1990                 0.2005
 IR Inten    --      0.0902                 1.1797                 0.2778

                     16                     17                     18
                      A                      A                      A
 Frequencies --    371.7953               424.5718               428.0145
 Red. masses --      2.2412                 3.5414                 1.9628
 Frc consts  --      0.1825                 0.3761                 0.2119
 IR Inten    --      0.3139                 3.0708                 3.3687

                     19                     20                     21
                      A                      A                      A
 Frequencies --    454.3858               477.7760               492.9926
 Red. masses --      3.2090                 3.3050                 3.5362
 Frc consts  --      0.3904                 0.4445                 0.5064
 IR Inten    --      4.0576                 0.3151                 6.4001

                     22                     23                     24
                      A                      A                      A
 Frequencies --    497.9033               508.4100               567.9450
 Red. masses --      3.4677                 3.9153                 4.7137
 Frc consts  --      0.5065                 0.5963                 0.8958
 IR Inten    --      6.7842                 2.0612                 5.0496

                     25                     26                     27
                      A                      A                      A
 Frequencies --    619.2511               672.6584               694.1193
 Red. masses --      5.3557                 4.5911                 4.5767
 Frc consts  --      1.2100                 1.2239                 1.2992
 IR Inten    --      0.4654                 5.0328                 2.0720

                     28                     29                     30
                      A                      A                      A
 Frequencies --    740.2705               748.0132               773.7178
 Red. masses --      2.4822                 3.2600                 1.5515
 Frc consts  --      0.8014                 1.0747                 0.5472
 IR Inten    --     11.2711                 4.6591                 3.6060

                     31                     32                     33
                      A                      A                      A
 Frequencies --    777.9447               824.4787               871.2089
 Red. masses --      3.1397                 2.8118                 2.6018
 Frc consts  --      1.1195                 1.1261                 1.1635
 IR Inten    --      1.6025                 7.8026                 7.1408

                     34                     35                     36
                      A                      A                      A
 Frequencies --    902.7049               926.9757               934.8626
 Red. masses --      1.7927                 1.3755                 1.5871
 Frc consts  --      0.8607                 0.6964                 0.8172
 IR Inten    --      9.9308                 0.0920                 5.5128

                     37                     38                     39
                      A                      A                      A
 Frequencies --    937.1979               940.9557               950.2784
 Red. masses --      1.3553                 1.8867                 1.2594
 Frc consts  --      0.7014                 0.9842                 0.6701
 IR Inten    --      0.2605                21.5468                 0.4446

                     40                     41                     42
                      A                      A                      A
 Frequencies --    959.6366               968.4817               982.1386
 Red. masses --      1.8413                 1.8331                 2.4352
 Frc consts  --      0.9991                 1.0130                 1.3840
 IR Inten    --      1.7855                 3.8113                36.8123

                     43                     44                     45
                      A                      A                      A
 Frequencies --   1023.5823              1041.0771              1048.9972
 Red. masses --      2.3569                 2.3338                 4.9649
 Frc consts  --      1.4549                 1.4903                 3.2189
 IR Inten    --      4.9475                15.2801                11.6554

                     46                     47                     48
                      A                      A                      A
 Frequencies --   1076.7358              1124.2274              1125.6281
 Red. masses --      1.5448                 1.7160                 2.4182
 Frc consts  --      1.0552                 1.2779                 1.8053
 IR Inten    --      1.6382                 1.0462                 0.1754

                     49                     50                     51
                      A                      A                      A
 Frequencies --   1157.9327              1164.8845              1183.0442
 Red. masses --      2.1140                 1.7603                 2.0736
 Frc consts  --      1.6700                 1.4074                 1.7099
 IR Inten    --     11.4647                62.4414                43.1389

                     52                     53                     54
                      A                      A                      A
 Frequencies --   1187.9562              1207.4669              1214.0792
 Red. masses --      2.1989                 2.0233                 1.9641
 Frc consts  --      1.8283                 1.7381                 1.7057
 IR Inten    --     43.7338                96.9031                12.5979

                     55                     56                     57
                      A                      A                      A
 Frequencies --   1228.9116              1276.3456              1282.9551
 Red. masses --      1.3535                 1.5259                 1.8035
 Frc consts  --      1.2043                 1.4646                 1.7490
 IR Inten    --     13.6869                 8.6499                22.5645

                     58                     59                     60
                      A                      A                      A
 Frequencies --   1290.1965              1298.4808              1329.4437
 Red. masses --      2.0264                 2.2063                 1.3413
 Frc consts  --      1.9874                 2.1917                 1.3967
 IR Inten    --      4.9240                61.0956                 0.5887

                     61                     62                     63
                      A                      A                      A
 Frequencies --   1344.2711              1357.8594              1367.2206
 Red. masses --      1.7924                 1.3306                 1.5071
 Frc consts  --      1.9084                 1.4455                 1.6599
 IR Inten    --     34.7303                 0.6314                14.2936

                     64                     65                     66
                      A                      A                      A
 Frequencies --   1371.2638              1381.6640              1390.9347
 Red. masses --      1.3618                 1.3249                 1.4202
 Frc consts  --      1.5088                 1.4902                 1.6189
 IR Inten    --      1.3759                 2.5817                 1.2639

                     67                     68                     69
                      A                      A                      A
 Frequencies --   1407.4730              1420.3456              1429.0967
 Red. masses --      1.3235                 1.5483                 1.3287
 Frc consts  --      1.5447                 1.8404                 1.5988
 IR Inten    --      3.4052                 4.0088                16.1294

                     70                     71                     72
                      A                      A                      A
 Frequencies --   1443.5570              1479.9192              1491.9331
 Red. masses --      1.2475                 2.8981                 1.0956
 Frc consts  --      1.5316                 3.7397                 1.4368
 IR Inten    --     16.6877                59.0420                 6.0602

                     73                     74                     75
                      A                      A                      A
 Frequencies --   1496.2763              1503.2907              1513.8991
 Red. masses --      2.1561                 1.1788                 1.0484
 Frc consts  --      2.8441                 1.5695                 1.4157
 IR Inten    --     41.1643                 0.4945                 1.2134

                     76                     77                     78
                      A                      A                      A
 Frequencies --   1517.5311              1519.4810              1526.7932
 Red. masses --      1.0885                 1.0532                 1.0548
 Frc consts  --      1.4769                 1.4327                 1.4487
 IR Inten    --      2.7899                 1.6189                 4.6255

                     79                     80                     81
                      A                      A                      A
 Frequencies --   1531.3794              1540.7417              1623.5568
 Red. masses --      1.0940                 1.0570                 5.5720
 Frc consts  --      1.5116                 1.4784                 8.6536
 IR Inten    --      5.0935                10.7862                 6.5232

                     82                     83                     84
                      A                      A                      A
 Frequencies --   1648.0087              1823.7373              3015.8470
 Red. masses --      5.8416                10.9644                 1.0822
 Frc consts  --      9.3476                21.4862                 5.7995
 IR Inten    --     36.2809               205.7423                 9.2326

                     85                     86                     87
                      A                      A                      A
 Frequencies --   3023.8086              3030.6428              3044.3862
 Red. masses --      1.0689                 1.0695                 1.0624
 Frc consts  --      5.7585                 5.7877                 5.8014
 IR Inten    --      1.8964                15.7512                15.5179

                     88                     89                     90
                      A                      A                      A
 Frequencies --   3050.9911              3055.0212              3060.0553
 Red. masses --      1.0625                 1.0348                 1.0355
 Frc consts  --      5.8274                 5.6905                 5.7129
 IR Inten    --     50.9054                12.8587                 6.7010

                     91                     92                     93
                      A                      A                      A
 Frequencies --   3085.3079              3091.8142              3096.4036
 Red. masses --      1.0874                 1.1011                 1.1017
 Frc consts  --      6.0988                 6.2013                 6.2234
 IR Inten    --     18.7412                28.3598                25.9691

                     94                     95                     96
                      A                      A                      A
 Frequencies --   3123.0499              3123.1235              3124.5225
 Red. masses --      1.1018                 1.0948                 1.0953
 Frc consts  --      6.3318                 6.2915                 6.2999
 IR Inten    --      1.2478                17.3870                15.7462

                     97                     98                     99
                      A                      A                      A
 Frequencies --   3130.8918              3133.8129              3138.3151
 Red. masses --      1.1017                 1.1033                 1.1027
 Frc consts  --      6.3625                 6.3837                 6.3986
 IR Inten    --     65.6923                23.3712                35.1194

                    100                    101                    102
                      A                      A                      A
 Frequencies --   3160.4997              3188.2125              3209.8774
 Red. masses --      1.0897                 1.0913                 1.0907
 Frc consts  --      6.4129                 6.5358                 6.6211
 IR Inten    --     29.9480                19.9116                 6.1057

 - Thermochemistry -
 -------------------
 Temperature   298.150 Kelvin.  Pressure   1.00000 Atm.
 Atom     1 has atomic number  6 and mass  12.00000

 Molecular mass:   233.14158 amu.
 Principal axes and moments of inertia in atomic units:
                           1         2         3
     Eigenvalues --  2061.189567771.683948828.72614
           X            0.99971   0.02364  -0.00485
           Y           -0.02374   0.99952  -0.02002
           Z            0.00437   0.02013   0.99979
 This molecule is an asymmetric top.
 Rotational symmetry number  1.
 Warning -- assumption of classical behavior for rotation
           may cause significant error
 Rotational temperatures (Kelvin)      0.04202     0.01114     0.00981
 Rotational constants (GHZ):           0.87558     0.23222     0.20442
 Zero-point vibrational energy     815629.2 (Joules/Mol)
                                  194.94006 (Kcal/Mol)
 Warning -- explicit consideration of  25 degrees of freedom as
           vibrations may cause significant error
 Vibrational temperatures:     28.02    48.34    62.84    95.36   132.01
          (Kelvin)            164.73   192.93   261.12   310.16   363.72
                              388.02   408.03   411.51   432.27   492.27
                              534.93   610.86   615.82   653.76   687.41
                              709.31   716.37   731.49   817.15   890.96
                              967.81   998.68  1065.08  1076.22  1113.21
                             1119.29  1186.24  1253.48  1298.79  1333.71
                             1345.06  1348.42  1353.83  1367.24  1380.70
                             1393.43  1413.08  1472.71  1497.88  1509.27
                             1549.18  1617.51  1619.53  1666.01  1676.01
                             1702.14  1709.20  1737.28  1746.79  1768.13
                             1836.38  1845.89  1856.30  1868.22  1912.77
                             1934.11  1953.66  1967.13  1972.94  1987.91
                             2001.24  2025.04  2043.56  2056.15  2076.96
                             2129.27  2146.56  2152.81  2162.90  2178.16
                             2183.39  2186.19  2196.71  2203.31  2216.78
                             2335.94  2371.12  2623.95  4339.13  4350.59
                             4360.42  4380.19  4389.70  4395.49  4402.74
                             4439.07  4448.43  4455.03  4493.37  4493.48
                             4495.49  4504.66  4508.86  4515.34  4547.25
                             4587.13  4618.30

 Zero-point correction=                           0.310657 (Hartree/Particle)
 Thermal correction to Energy=                    0.326809
 Thermal correction to Enthalpy=                  0.327754
 Thermal correction to Gibbs Free Energy=         0.265247
 Sum of electronic and zero-point Energies=           -749.888553
 Sum of electronic and thermal Energies=              -749.872400
 Sum of electronic and thermal Enthalpies=            -749.871456
 Sum of electronic and thermal Free Energies=         -749.933963

                     E (Thermal)             CV                S
                      KCal/Mol        Cal/Mol-Kelvin    Cal/Mol-Kelvin
 Total                  205.076             62.105            131.556
 Electronic               0.000              0.000              0.000
 Translational            0.889              2.981             42.241
 Rotational               0.889              2.981             33.314
 Vibrational            203.299             56.143             56.001
 Vibration     1          0.593              1.986              6.687
 Vibration     2          0.594              1.983              5.605
 Vibration     3          0.595              1.980              5.085
 Vibration     4          0.598              1.970              4.261
 Vibration     5          0.602              1.955              3.622
 Vibration     6          0.607              1.937              3.191
 Vibration     7          0.613              1.919              2.886
 Vibration     8          0.630              1.865              2.313
 Vibration     9          0.645              1.817              1.996
 Vibration    10          0.664              1.758              1.711
 Vibration    11          0.674              1.729              1.598
 Vibration    12          0.682              1.704              1.512
 Vibration    13          0.684              1.700              1.497
 Vibration    14          0.693              1.673              1.414
 Vibration    15          0.721              1.591              1.202
 Vibration    16          0.743              1.530              1.072
 Vibration    17          0.787              1.417              0.877
 Vibration    18          0.790              1.409              0.865
 Vibration    19          0.813              1.351              0.783
 Vibration    20          0.834              1.299              0.716
 Vibration    21          0.849              1.266              0.676
 Vibration    22          0.853              1.255              0.663
 Vibration    23          0.864              1.231              0.637
 Vibration    24          0.924              1.101              0.508
 Vibration    25          0.979              0.991              0.418

                           ! Non-Optimized Parameters !
 Normal termination of Gaussian 16 at Fri Dec 11 12:07:51 2020.

 ----------------------------------------------------------------------
 # B3LYP/6-311++G(d,p) empiricaldispersion=gd3bj scf=xqc pop=npa geom=c
 heck
 ----------------------------------------------------------------------

 --------------------------------------
 CID_83261333_JID_7195_Energie_neutraal
 --------------------------------------
 Structure from the checkpoint file:  "JID_7195.chk"
 Charge =  0 Multiplicity = 1

 SCF Done:  E(RB3LYP) =  -750.403317243     A.U. after   16 cycles
 Normal termination of Gaussian 16 at Fri Dec 11 12:15:04 2020.

 ----------------------------------------------------------------------
 # B3LYP/6-311++G(d,p) empiricaldispersion=gd3bj scf=xqc pop=npa geom=c
 heck
 ----------------------------------------------------------------------

 ------------------------------------
 CID_83261333_JID_7195_Energie_kation
 ------------------------------------
 Structure from the checkpoint file:  "JID_7195.chk"
 Charge =  1 Multiplicity = 2

 SCF Done:  E(UB3LYP) =  -750.089901065     A.U. after   33 cycles
 SCF Done:  E(UB3LYP) =  -750.089901065     a.u. after    1 cycles
 Normal termination of Gaussian 16 at Fri Dec 11 12:36:38 2020.
 Gaussian 16:  ES64L-G16RevA.03 25-Dec-2016

 ----------------------------------------------------------------------
 # B3LYP/6-311++G(d,p) empiricaldispersion=gd3bj scf=xqc pop=npa geom=c
 heck
 ----------------------------------------------------------------------

 -----------------------------------
 CID_83261333_JID_7195_Energie_anion
 -----------------------------------
 Structure from the checkpoint file:  "JID_7195.chk"
 Charge = -1 Multiplicity = 2

                         Standard orientation:
 ---------------------------------------------------------------------
 Center     Atomic      Atomic             Coordinates (Angstroms)
 Number     Number       Type             X           Y           Z
 ---------------------------------------------------------------------
      1          6           0       -2.613992   -2.445211    0.222931
      2          6           0       -3.626904   -1.464654   -0.362711
      3          6           0       -4.529544   -0.850560    0.703311
      4          8           0       -2.987756   -0.447673   -1.180128
      5          6           0       -2.121352    0.419703   -0.562562
      6          6           0       -2.575973    1.655408   -0.084818
      7          7           0       -1.770837    2.562011    0.473115
      8          6           0       -0.470709    2.262237    0.569724
      9          6           0        0.100304    1.069654    0.112620
     10          6           0       -0.760121    0.134293   -0.470720
     11          6           0        1.584760    0.813750    0.249480
     12          6           0        2.268646    0.639175   -1.120996
     13          6           0        3.786050    0.417324   -0.978803
     14          6           0        4.095025   -0.726794   -0.024610
     15          8           0        4.841580   -1.640940   -0.316131
     16          6           0        3.386113   -0.643827    1.319313
     17          6           0        1.874430   -0.407246    1.145357
     18          1           0       -1.974298   -1.959723    0.967531
     19          1           0       -1.979078   -2.863086   -0.564663
     20          1           0       -3.137890   -3.270754    0.716840
     21          1           0       -4.245951   -1.988690   -1.097265
     22          1           0       -3.945786   -0.311443    1.456839
     23          1           0       -5.242011   -0.153494    0.251895
     24          1           0       -5.093535   -1.638904    1.213684
     25          1           0       -3.629703    1.909229   -0.175008
     26          1           0        0.161410    3.019283    1.032788
     27          1           0       -0.391069   -0.807452   -0.864300
     28          1           0        2.029750    1.695210    0.734218
     29          1           0        2.075169    1.515312   -1.749505
     30          1           0        1.824748   -0.221375   -1.638563
     31          1           0        4.243493    1.330325   -0.568726
     32          1           0        4.259141    0.209086   -1.942188
     33          1           0        3.593555   -1.557330    1.883092
     34          1           0        3.817763    0.201566    1.875985
     35          1           0        1.401029   -0.273045    2.124372
     36          1           0        1.418141   -1.299393    0.696151
 ---------------------------------------------------------------------

 SCF Done:  E(UB3LYP) =  -750.399922456     A.U. after   33 cycles
 SCF Done:  E(UB3LYP) =  -750.399922456     a.u. after    1 cycles

 The electronic state is 2-A.
 Alpha  occ. eigenvalues --  -19.04404 -18.99489 -14.20750 -10.14267 -10.13699
 Alpha  occ. eigenvalues --  -10.13367 -10.10244 -10.10013 -10.08914 -10.08737
 Alpha  occ. eigenvalues --  -10.08201 -10.07952 -10.07762 -10.07550 -10.07494
 Alpha  occ. eigenvalues --  -10.07399 -10.07163  -0.96032  -0.92934  -0.84216
 Alpha  occ. eigenvalues --   -0.74862  -0.71103  -0.69326  -0.65822  -0.65649
 Alpha  occ. eigenvalues --   -0.61792  -0.60766  -0.54762  -0.54026  -0.52954
 Alpha  occ. eigenvalues --   -0.49689  -0.47297  -0.43446  -0.41995  -0.40655
 Alpha  occ. eigenvalues --   -0.40186  -0.39434  -0.36921  -0.36004  -0.34846
 Alpha  occ. eigenvalues --   -0.34190  -0.33360  -0.33020  -0.32781  -0.31256
 Alpha  occ. eigenvalues --   -0.30622  -0.30337  -0.30140  -0.29318  -0.29087
 Alpha  occ. eigenvalues --   -0.28172  -0.27304  -0.26076  -0.26042  -0.24592
 Alpha  occ. eigenvalues --   -0.23733  -0.23370  -0.23344  -0.19631  -0.18013
 Alpha  occ. eigenvalues --   -0.15472  -0.15108  -0.13661   0.03815
 Alpha virt. eigenvalues --    0.05312   0.05938   0.07682   0.07733   0.07990
 Alpha virt. eigenvalues --    0.08357   0.08480   0.09004   0.09104   0.09968
 Alpha virt. eigenvalues --    0.10438   0.11030   0.11357   0.11628   0.12006

  Beta  occ. eigenvalues --  -19.04405 -18.99309 -14.20639 -10.14255 -10.13530
  Beta  occ. eigenvalues --  -10.13362 -10.10233 -10.09991 -10.08918 -10.08723
  Beta  occ. eigenvalues --  -10.08101 -10.07931 -10.07736 -10.07533 -10.07466
  Beta  occ. eigenvalues --  -10.07404 -10.07166  -0.96021  -0.92588  -0.84066
  Beta  occ. eigenvalues --   -0.74787  -0.71026  -0.69219  -0.65736  -0.65600
  Beta  occ. eigenvalues --   -0.61663  -0.60712  -0.54660  -0.53916  -0.52899
  Beta  occ. eigenvalues --   -0.49569  -0.47229  -0.43231  -0.41934  -0.40617
  Beta  occ. eigenvalues --   -0.40087  -0.39382  -0.36831  -0.35933  -0.34698
  Beta  occ. eigenvalues --   -0.34095  -0.33246  -0.32871  -0.32697  -0.31184
  Beta  occ. eigenvalues --   -0.30538  -0.30212  -0.29963  -0.29293  -0.29012
  Beta  occ. eigenvalues --   -0.28052  -0.27260  -0.26000  -0.25784  -0.24440
  Beta  occ. eigenvalues --   -0.23615  -0.23304  -0.22885  -0.19596  -0.17575
  Beta  occ. eigenvalues --   -0.15365  -0.14945  -0.13514
  Beta virt. eigenvalues --    0.05989   0.06657   0.06791   0.07863   0.07910
  Beta virt. eigenvalues --    0.08227   0.08666   0.09145   0.09271   0.09664
  Beta virt. eigenvalues --    0.10232   0.10594   0.11217   0.11426   0.11725

 Mulliken charges and spin densities:
               1          2
     1  C    0.285186  -0.902995
     2  C   -0.546786   0.718607
     3  C    0.278963  -0.868336
     4  O   -0.089608  -0.004542
     5  C    0.145453  -0.773224
     6  C    0.128502  -0.119803
     7  N   -0.063350   0.100430
     8  C   -0.186585  -0.296558
     9  C   -0.889158   1.513931
    10  C   -0.719809   1.304629
    11  C    1.441068  -2.038770
    12  C   -0.431442   0.189890
    13  C    0.193147  -0.668892
    14  C   -0.290879   0.302859
    15  O   -0.329744   0.072466
    16  C    0.340626  -0.888858
    17  C   -0.089383  -0.086746
    18  H    0.056255   0.119848
    19  H    0.054211   0.089804
    20  H   -0.189040   0.331736
    21  H   -0.282159   0.479547
    22  H    0.064071   0.104391
    23  H    0.076859   0.070070
    24  H   -0.291714   0.432640
    25  H    0.163461   0.032505
    26  H   -0.106794   0.289576
    27  H    0.217285   0.051940
    28  H    0.032692   0.173829
    29  H    0.078141   0.113587
    30  H   -0.016374   0.123875
    31  H   -0.161760   0.315873
    32  H    0.168431   0.016900
    33  H    0.132099   0.054148
    34  H   -0.220860   0.387542
    35  H   -0.153862   0.350940
    36  H    0.202856  -0.092837
 Sum of Mulliken charges =  -1.00000   1.00000

 Dipole moment (field-independent basis, Debye):
    X=             -1.9317    Y=              0.6212    Z=             -1.4728  Tot=              2.5073
 Quadrupole moment (field-independent basis, Debye-Ang):
   XX=           -200.4083   YY=           -148.2171   ZZ=           -131.5515
   XY=              0.4760   XZ=             -1.0835   YZ=             -4.1950

 Summary of Natural Population Analysis:

                                       Natural Population
                Natural  -----------------------------------------------
    Atom  No    Charge         Core      Valence    Rydberg      Total
 -----------------------------------------------------------------------
      C    1   -0.30255      0.99964     2.29685    0.00606     3.30255
      C    2    0.06778      0.99955     1.91906    0.01361     2.93222
      C    3   -0.30276      0.99964     2.29659    0.00653     3.30276
      O    4   -0.29808      0.99986     3.28828    0.00994     4.29808
      C    5    0.13457      0.99936     1.85286    0.01320     2.86543
      C    6    0.00522      0.99953     1.98233    0.01292     2.99478
      N    7   -0.21672      0.99971     2.70608    0.01093     3.71672
      C    8    0.02399      0.99952     1.96217    0.01431     2.97601
      C    9   -0.02382      0.99950     2.01332    0.01100     3.02382
      C   10   -0.08898      0.99946     2.08155    0.00797     3.08898
      C   11   -0.11895      0.99956     2.10771    0.01168     3.11895
      C   12   -0.18044      0.99961     2.17190    0.00893     3.18044
      C   13   -0.23663      0.99959     2.22810    0.00894     3.23663
      C   14    0.31277      0.99966     1.66617    0.02139     2.68723
      O   15   -0.27835      0.99987     3.27170    0.00678     4.27835
      C   16   -0.23664      0.99959     2.22790    0.00915     3.23664
      C   17   -0.18160      0.99961     2.17289    0.00909     3.18160
      H   18    0.10290      0.00000     0.39600    0.00110     0.39710
      H   19    0.10293      0.00000     0.39608    0.00099     0.39707
      H   20    0.10370      0.00000     0.39542    0.00088     0.39630
      H   21    0.08971      0.00000     0.40879    0.00150     0.41029
      H   22    0.10319      0.00000     0.39571    0.00110     0.39681
      H   23    0.10215      0.00000     0.39689    0.00096     0.39785
      H   24    0.10415      0.00000     0.39475    0.00109     0.39585
      H   25    0.09037      0.00000     0.40784    0.00179     0.40963
      H   26    0.08958      0.00000     0.40871    0.00171     0.41042
      H   27    0.10431      0.00000     0.39401    0.00168     0.39569
      H   28    0.10128      0.00000     0.39612    0.00260     0.39872
      H   29    0.10186      0.00000     0.39731    0.00083     0.39814
      H   30    0.09592      0.00000     0.40291    0.00118     0.40408
      H   31    0.10747      0.00000     0.39085    0.00167     0.39253
      H   32    0.10634      0.00000     0.39263    0.00103     0.39366
      H   33    0.10685      0.00000     0.39217    0.00098     0.39315
      H   34    0.10923      0.00000     0.38831    0.00246     0.39077
      H   35    0.10473      0.00000     0.39414    0.00112     0.39527
      H   36    0.09451      0.00000     0.40403    0.00147     0.40549
 =======================================================================
   * Total *   -0.00000     16.99326    45.79815    0.20858    63.00000

 Normal termination of Gaussian 16 at Fri Dec 11 13:02:10 2020.
