 Gaussian 16, Revision A.03,

 -----------------------------------------------------------
 # opt freq B3LYP/6-31G(d) empiricaldispersion=gd3bj scf=xqc
 -----------------------------------------------------------

 ------------------------------
 CID_10377326_JID_8017_neutraal
 ------------------------------
 Symbolic Z-matrix:
 Charge =  0 Multiplicity = 1

 SCF Done:  E(RB3LYP) =  -844.080326287     A.U. after   15 cycles
 SCF Done:  E(RB3LYP) =  -844.086333257     A.U. after   13 cycles
 SCF Done:  E(RB3LYP) =  -844.084823423     A.U. after   13 cycles
 SCF Done:  E(RB3LYP) =  -844.087140225     A.U. after   13 cycles
 SCF Done:  E(RB3LYP) =  -844.087346507     A.U. after   12 cycles
 SCF Done:  E(RB3LYP) =  -844.087561296     A.U. after   12 cycles
 SCF Done:  E(RB3LYP) =  -844.087649105     A.U. after   12 cycles
 SCF Done:  E(RB3LYP) =  -844.087690269     A.U. after   11 cycles
 SCF Done:  E(RB3LYP) =  -844.087720180     A.U. after   11 cycles
 SCF Done:  E(RB3LYP) =  -844.087739594     A.U. after   11 cycles
 SCF Done:  E(RB3LYP) =  -844.093930501     A.U. after   12 cycles
 SCF Done:  E(RB3LYP) =  -844.094040874     A.U. after   11 cycles
 SCF Done:  E(RB3LYP) =  -844.094102028     A.U. after   12 cycles
 SCF Done:  E(RB3LYP) =  -844.094107857     A.U. after   10 cycles
 SCF Done:  E(RB3LYP) =  -844.094108598     A.U. after    8 cycles
 SCF Done:  E(RB3LYP) =  -844.094108706     A.U. after    8 cycles
 Optimization completed.
    -- Stationary point found.
 Normal termination of Gaussian 16 at Fri Dec 11 18:51:31 2020.

 --------------------------------------------------------------------
 #N Geom=AllCheck Guess=TCheck SCRF=Check GenChk RB3LYP/6-31G(d) Freq
 --------------------------------------------------------------------

 Structure from the checkpoint file:  "JID_8017.chk"
 ------------------------------
 CID_10377326_JID_8017_neutraal
 ------------------------------
 Charge =  0 Multiplicity = 1

 SCF Done:  E(RB3LYP) =  -844.094108706     A.U. after    1 cycles

  Exact polarizability: 191.531   2.364 159.680  16.577   2.999 100.702
 Approx polarizability: 254.822   0.167 252.240  41.314   6.160 172.031

                      1                      2                      3
                      A                      A                      A
 Frequencies --     26.7476                46.7052                67.4227
 Red. masses --      4.7213                 3.9239                 3.2655
 Frc consts  --      0.0020                 0.0050                 0.0087
 IR Inten    --      0.8338                 2.0363                 0.4774

                      4                      5                      6
                      A                      A                      A
 Frequencies --     73.7102               107.0477               111.1754
 Red. masses --      4.1424                 5.5039                 5.8107
 Frc consts  --      0.0133                 0.0372                 0.0423
 IR Inten    --      0.6471                 1.7760                 1.2712

                      7                      8                      9
                      A                      A                      A
 Frequencies --    146.3631               172.1382               199.0807
 Red. masses --      4.2133                 3.4090                 2.0929
 Frc consts  --      0.0532                 0.0595                 0.0489
 IR Inten    --      1.2077                 1.2807                 1.2587

                     10                     11                     12
                      A                      A                      A
 Frequencies --    218.0495               242.9684               254.5721
 Red. masses --      5.5853                 1.8843                 2.4048
 Frc consts  --      0.1565                 0.0655                 0.0918
 IR Inten    --      0.7837                 1.0461                 4.2943

                     13                     14                     15
                      A                      A                      A
 Frequencies --    295.2971               324.8239               334.0368
 Red. masses --      3.2411                 3.4359                 4.3724
 Frc consts  --      0.1665                 0.2136                 0.2874
 IR Inten    --      5.4043                 5.5780                 0.7609

                     16                     17                     18
                      A                      A                      A
 Frequencies --    345.5949               380.2226               398.7660
 Red. masses --      3.1429                 4.7878                 1.5296
 Frc consts  --      0.2212                 0.4078                 0.1433
 IR Inten    --     11.6777                 2.3321                98.3551

                     19                     20                     21
                      A                      A                      A
 Frequencies --    418.7149               429.2729               465.2178
 Red. masses --      3.6024                 1.9580                 2.5640
 Frc consts  --      0.3721                 0.2126                 0.3269
 IR Inten    --      3.4313                91.0409                 2.1321

                     22                     23                     24
                      A                      A                      A
 Frequencies --    484.4774               498.1275               539.9735
 Red. masses --      4.0082                 4.5082                 4.5674
 Frc consts  --      0.5543                 0.6591                 0.7846
 IR Inten    --      1.4731                 3.7211                 1.4284

                     25                     26                     27
                      A                      A                      A
 Frequencies --    555.7496               587.7703               677.3262
 Red. masses --      6.0425                 2.9873                 5.0323
 Frc consts  --      1.0996                 0.6081                 1.3602
 IR Inten    --     25.1559                 1.0195                17.8166

                     28                     29                     30
                      A                      A                      A
 Frequencies --    706.9187               735.2868               757.7235
 Red. masses --      4.9193                 4.6924                 1.7108
 Frc consts  --      1.4484                 1.4947                 0.5787
 IR Inten    --     31.7398                 1.8585                32.2890

                     31                     32                     33
                      A                      A                      A
 Frequencies --    773.0613               795.8889               809.9407
 Red. masses --      2.4307                 2.2436                 2.6427
 Frc consts  --      0.8559                 0.8373                 1.0214
 IR Inten    --      3.9830                 8.8931                 9.9188

                     34                     35                     36
                      A                      A                      A
 Frequencies --    818.7287               868.3733               870.8426
 Red. masses --      2.2502                 1.9105                 2.4673
 Frc consts  --      0.8887                 0.8488                 1.1024
 IR Inten    --      1.5976                 8.1691                 3.1154

                     37                     38                     39
                      A                      A                      A
 Frequencies --    895.8561               901.3412               912.7197
 Red. masses --      1.5834                 2.4512                 3.0017
 Frc consts  --      0.7487                 1.1733                 1.4733
 IR Inten    --      6.0314                15.9917                10.0857

                     40                     41                     42
                      A                      A                      A
 Frequencies --    955.4599               967.9544               989.3071
 Red. masses --      1.3949                 2.8688                 1.2771
 Frc consts  --      0.7503                 1.5837                 0.7365
 IR Inten    --      2.1911                37.9455                 0.4243

                     43                     44                     45
                      A                      A                      A
 Frequencies --   1009.5919              1029.9968              1067.6172
 Red. masses --      2.8123                 2.8583                 2.9765
 Frc consts  --      1.6889                 1.7866                 1.9989
 IR Inten    --      5.3676                38.8899                28.8593

                     46                     47                     48
                      A                      A                      A
 Frequencies --   1081.8986              1101.9132              1115.1974
 Red. masses --      3.1702                 2.0862                 2.1634
 Frc consts  --      2.1863                 1.4925                 1.5852
 IR Inten    --     56.1351                11.9972                 6.2219

                     49                     50                     51
                      A                      A                      A
 Frequencies --   1131.3562              1138.2801              1151.1217
 Red. masses --      2.0655                 2.1735                 2.9277
 Frc consts  --      1.5577                 1.6592                 2.2857
 IR Inten    --     34.6291                19.1934                45.7845

                     52                     53                     54
                      A                      A                      A
 Frequencies --   1198.9237              1209.3678              1223.0820
 Red. masses --      1.1033                 1.7046                 1.6577
 Frc consts  --      0.9344                 1.4689                 1.4611
 IR Inten    --      0.9627                 2.7025                 7.4025

                     55                     56                     57
                      A                      A                      A
 Frequencies --   1227.7326              1251.7951              1262.6819
 Red. masses --      2.1190                 2.0330                 2.6826
 Frc consts  --      1.8818                 1.8769                 2.5200
 IR Inten    --      4.4737               250.7469               132.6677

                     58                     59                     60
                      A                      A                      A
 Frequencies --   1289.7362              1318.9762              1325.8792
 Red. masses --      2.0196                 1.4643                 1.4982
 Frc consts  --      1.9793                 1.5009                 1.5518
 IR Inten    --     83.9115                14.1110                23.7790

                     61                     62                     63
                      A                      A                      A
 Frequencies --   1341.3282              1357.2771              1376.1511
 Red. masses --      1.1279                 3.8942                 1.3488
 Frc consts  --      1.1956                 4.2268                 1.5049
 IR Inten    --      9.1396                 4.1845                59.5833

                     64                     65                     66
                      A                      A                      A
 Frequencies --   1400.8678              1410.0125              1418.8436
 Red. masses --      1.4749                 1.3944                 1.2705
 Frc consts  --      1.7054                 1.6334                 1.5070
 IR Inten    --      0.2273                 9.5508                 2.8955

                     67                     68                     69
                      A                      A                      A
 Frequencies --   1423.9196              1444.3883              1493.5513
 Red. masses --      1.7104                 1.3143                 2.2435
 Frc consts  --      2.0433                 1.6155                 2.9486
 IR Inten    --     25.2889                12.4041                13.4222

                     70                     71                     72
                      A                      A                      A
 Frequencies --   1502.7522              1514.8618              1515.7989
 Red. masses --      1.0996                 1.1876                 1.0493
 Frc consts  --      1.4630                 1.6058                 1.4205
 IR Inten    --      7.2860                 8.0015                 6.8848

                     73                     74                     75
                      A                      A                      A
 Frequencies --   1519.3577              1519.7985              1536.2438
 Red. masses --      1.0893                 1.0799                 2.1281
 Frc consts  --      1.4816                 1.4696                 2.9591
 IR Inten    --      4.2953                 3.2476                 3.4847

                     76                     77                     78
                      A                      A                      A
 Frequencies --   1537.7452              1633.0372              1659.0670
 Red. masses --      1.0585                 5.9564                 5.6783
 Frc consts  --      1.4747                 9.3590                 9.2087
 IR Inten    --      6.0682                 0.0853                27.1194

                     79                     80                     81
                      A                      A                      A
 Frequencies --   1770.3641              1842.6337              3019.8099
 Red. masses --     12.9686                11.9417                 1.0689
 Frc consts  --     23.9480                23.8888                 5.7432
 IR Inten    --    143.2871               183.7155                21.4515

                     82                     83                     84
                      A                      A                      A
 Frequencies --   3055.2452              3062.4868              3069.6897
 Red. masses --      1.0668                 1.0363                 1.0612
 Frc consts  --      5.8669                 5.7263                 5.8915
 IR Inten    --     22.9024                17.0120                21.0647

                     85                     86                     87
                      A                      A                      A
 Frequencies --   3084.4622              3100.3321              3104.4204
 Red. masses --      1.0922                 1.0596                 1.1022
 Frc consts  --      6.1220                 6.0010                 6.2586
 IR Inten    --     35.8840                19.9682                12.2404

                     88                     89                     90
                      A                      A                      A
 Frequencies --   3117.9343              3128.5211              3144.4655
 Red. masses --      1.1003                 1.1014                 1.1034
 Frc consts  --      6.3023                 6.3513                 6.4279
 IR Inten    --     22.3533                25.5019                 6.1653

                     91                     92                     93
                      A                      A                      A
 Frequencies --   3164.0603              3181.1501              3194.2376
 Red. masses --      1.1086                 1.0866                 1.0888
 Frc consts  --      6.5390                 6.4789                 6.5454
 IR Inten    --     22.9801                 5.9991                11.4360

                     94                     95                     96
                      A                      A                      A
 Frequencies --   3206.0670              3217.1583              3725.3928
 Red. masses --      1.0927                 1.0963                 1.0654
 Frc consts  --      6.6174                 6.6852                 8.7114
 IR Inten    --     20.6303                17.6147                49.2236

 - Thermochemistry -
 -------------------
 Temperature   298.150 Kelvin.  Pressure   1.00000 Atm.
 Atom     1 has atomic number  6 and mass  12.00000

 Molecular mass:   248.10486 amu.
 Principal axes and moments of inertia in atomic units:
                           1         2         3
     Eigenvalues --  2074.994416650.065677723.42959
           X            0.99991  -0.01264  -0.00514
           Y            0.01269   0.99987   0.00960
           Z            0.00502  -0.00966   0.99994
 This molecule is an asymmetric top.
 Rotational symmetry number  1.
 Warning -- assumption of classical behavior for rotation
           may cause significant error
 Rotational temperatures (Kelvin)      0.04174     0.01302     0.01121
 Rotational constants (GHZ):           0.86976     0.27139     0.23367
 Zero-point vibrational energy     736237.7 (Joules/Mol)
                                  175.96504 (Kcal/Mol)
 Warning -- explicit consideration of  26 degrees of freedom as
           vibrations may cause significant error
 Vibrational temperatures:     38.48    67.20    97.01   106.05   154.02
          (Kelvin)            159.96   210.58   247.67   286.43   313.72
                              349.58   366.27   424.87   467.35   480.60
                              497.23   547.06   573.74   602.44   617.63
                              669.34   697.05   716.69   776.90   799.60
                              845.67   974.52  1017.10  1057.91  1090.20
                             1112.26  1145.11  1165.32  1177.97  1249.40
                             1252.95  1288.94  1296.83  1313.20  1374.69
                             1392.67  1423.39  1452.58  1481.94  1536.06
                             1556.61  1585.41  1604.52  1627.77  1637.73
                             1656.21  1724.98  1740.01  1759.74  1766.43
                             1801.05  1816.72  1855.64  1897.71  1907.64
                             1929.87  1952.82  1979.97  2015.54  2028.69
                             2041.40  2048.70  2078.15  2148.89  2162.13
                             2179.55  2180.90  2186.02  2186.65  2210.31
                             2212.47  2349.58  2387.03  2547.16  2651.14
                             4344.83  4395.82  4406.24  4416.60  4437.85
                             4460.69  4466.57  4486.01  4501.24  4524.18
                             4552.38  4576.97  4595.80  4612.82  4628.77
                             5360.01

 Zero-point correction=                           0.280418 (Hartree/Particle)
 Thermal correction to Energy=                    0.296966
 Thermal correction to Enthalpy=                  0.297910
 Thermal correction to Gibbs Free Energy=         0.235758
 Sum of electronic and zero-point Energies=           -843.813691
 Sum of electronic and thermal Energies=              -843.797143
 Sum of electronic and thermal Enthalpies=            -843.796199
 Sum of electronic and thermal Free Energies=         -843.858351

                     E (Thermal)             CV                S
                      KCal/Mol        Cal/Mol-Kelvin    Cal/Mol-Kelvin
 Total                  186.349             63.556            130.809
 Electronic               0.000              0.000              0.000
 Translational            0.889              2.981             42.427
 Rotational               0.889              2.981             33.033
 Vibrational            184.571             57.595             55.350
 Vibration     1          0.593              1.984              6.057
 Vibration     2          0.595              1.979              4.952
 Vibration     3          0.598              1.970              4.227
 Vibration     4          0.599              1.966              4.052
 Vibration     5          0.606              1.944              3.322
 Vibration     6          0.607              1.940              3.248
 Vibration     7          0.617              1.907              2.719
 Vibration     8          0.626              1.877              2.412
 Vibration     9          0.637              1.841              2.142
 Vibration    10          0.646              1.814              1.975
 Vibration    11          0.659              1.774              1.781
 Vibration    12          0.665              1.755              1.699
 Vibration    13          0.690              1.683              1.443
 Vibration    14          0.709              1.626              1.286
 Vibration    15          0.716              1.608              1.240
 Vibration    16          0.724              1.584              1.186
 Vibration    17          0.750              1.512              1.038
 Vibration    18          0.765              1.473              0.967
 Vibration    19          0.782              1.430              0.896
 Vibration    20          0.791              1.407              0.861
 Vibration    21          0.823              1.327              0.751
 Vibration    22          0.841              1.284              0.698
 Vibration    23          0.854              1.254              0.663
 Vibration    24          0.895              1.162              0.565
 Vibration    25          0.911              1.127              0.532
 Vibration    26          0.945              1.058              0.471

                           ! Non-Optimized Parameters !
 Normal termination of Gaussian 16 at Fri Dec 11 19:05:11 2020.

 ----------------------------------------------------------------------
 # B3LYP/6-311++G(d,p) empiricaldispersion=gd3bj scf=xqc pop=npa geom=c
 heck
 ----------------------------------------------------------------------

 --------------------------------------
 CID_10377326_JID_8017_Energie_neutraal
 --------------------------------------
 Structure from the checkpoint file:  "JID_8017.chk"
 Charge =  0 Multiplicity = 1

 SCF Done:  E(RB3LYP) =  -844.336338640     A.U. after   15 cycles
 Normal termination of Gaussian 16 at Fri Dec 11 19:10:28 2020.

 ----------------------------------------------------------------------
 # B3LYP/6-311++G(d,p) empiricaldispersion=gd3bj scf=xqc pop=npa geom=c
 heck
 ----------------------------------------------------------------------

 ------------------------------------
 CID_10377326_JID_8017_Energie_kation
 ------------------------------------
 Structure from the checkpoint file:  "JID_8017.chk"
 Charge =  1 Multiplicity = 2

 SCF Done:  E(UB3LYP) =  -844.018026997     A.U. after   31 cycles
 Normal termination of Gaussian 16 at Fri Dec 11 19:25:22 2020.
 Gaussian 16:  ES64L-G16RevA.03 25-Dec-2016

 ----------------------------------------------------------------------
 # B3LYP/6-311++G(d,p) empiricaldispersion=gd3bj scf=xqc pop=npa geom=c
 heck
 ----------------------------------------------------------------------

 -----------------------------------
 CID_10377326_JID_8017_Energie_anion
 -----------------------------------
 Structure from the checkpoint file:  "JID_8017.chk"
 Charge = -1 Multiplicity = 2

                         Standard orientation:
 ---------------------------------------------------------------------
 Center     Atomic      Atomic             Coordinates (Angstroms)
 Number     Number       Type             X           Y           Z
 ---------------------------------------------------------------------
      1          6           0        4.942980   -0.548221   -0.845492
      2          6           0        3.898658   -1.291915   -0.030449
      3          8           0        2.562120   -0.829786   -0.347898
      4          6           0        2.138652    0.279007    0.297247
      5          8           0        2.804876    0.923530    1.071054
      6          6           0        0.686724    0.588932   -0.105237
      7          6           0        0.390162    2.073106    0.119414
      8          6           0       -0.970100    2.526948   -0.413182
      9          6           0       -2.177387    1.956946    0.347266
     10          6           0       -2.524375    0.506551    0.080015
     11          6           0       -3.822700    0.182599   -0.327314
     12          6           0       -4.230084   -1.140322   -0.498803
     13          6           0       -3.342303   -2.181642   -0.232714
     14          6           0       -2.050159   -1.882276    0.188138
     15          6           0       -1.627479   -0.552910    0.319412
     16          6           0       -0.206027   -0.360010    0.739635
     17          8           0        0.289265   -1.030093    1.630423
     18          8           0        0.481704    0.310986   -1.485987
     19          1           0        4.741931   -0.645526   -1.917308
     20          1           0        5.936813   -0.962422   -0.641941
     21          1           0        4.950368    0.512103   -0.580201
     22          1           0        3.877847   -2.357332   -0.269235
     23          1           0        4.058582   -1.161989    1.042028
     24          1           0        0.481252    2.286086    1.190239
     25          1           0        1.184724    2.636620   -0.381228
     26          1           0       -1.007390    3.620189   -0.335156
     27          1           0       -1.048832    2.278516   -1.476266
     28          1           0       -3.058844    2.561529    0.107384
     29          1           0       -2.006991    2.089669    1.426273
     30          1           0       -4.531558    0.987487   -0.504091
     31          1           0       -5.242903   -1.354489   -0.828375
     32          1           0       -3.653243   -3.215728   -0.347944
     33          1           0       -1.343677   -2.674625    0.414614
     34          1           0        0.918834   -0.537947   -1.667142
 ---------------------------------------------------------------------

 SCF Done:  E(UB3LYP) =  -844.343478375     A.U. after   32 cycles

 The electronic state is 2-A.
 Alpha  occ. eigenvalues --  -19.06181 -19.00327 -19.00098 -18.93472 -10.18595
 Alpha  occ. eigenvalues --  -10.13377 -10.11045 -10.07852 -10.07356 -10.05027
 Alpha  occ. eigenvalues --  -10.05011 -10.04996 -10.03961 -10.03758 -10.03582
 Alpha  occ. eigenvalues --  -10.03062 -10.03055 -10.02715  -1.00117  -0.91542
 Alpha  occ. eigenvalues --   -0.91054  -0.87516  -0.72374  -0.68695  -0.68026
 Alpha  occ. eigenvalues --   -0.63674  -0.61580  -0.60242  -0.56950  -0.52931
 Alpha  occ. eigenvalues --   -0.50025  -0.47541  -0.45608  -0.44234  -0.43141
 Alpha  occ. eigenvalues --   -0.41869  -0.38377  -0.37951  -0.36158  -0.35429
 Alpha  occ. eigenvalues --   -0.34799  -0.32972  -0.32551  -0.30899  -0.30586
 Alpha  occ. eigenvalues --   -0.29926  -0.29089  -0.28760  -0.28038  -0.27982
 Alpha  occ. eigenvalues --   -0.27228  -0.26214  -0.25192  -0.24868  -0.23309
 Alpha  occ. eigenvalues --   -0.22050  -0.21452  -0.21295  -0.20884  -0.20279
 Alpha  occ. eigenvalues --   -0.19878  -0.18855  -0.15699  -0.12102  -0.11370
 Alpha  occ. eigenvalues --   -0.08982   0.04572
 Alpha virt. eigenvalues --    0.06145   0.08143   0.08704   0.09182   0.09342
 Alpha virt. eigenvalues --    0.10090   0.10860   0.11081   0.11278   0.11493
 Alpha virt. eigenvalues --    0.12205   0.12372   0.12786   0.13505   0.13727

  Beta  occ. eigenvalues --  -19.06181 -19.00256 -19.00086 -18.92914 -10.18571
  Beta  occ. eigenvalues --  -10.13371 -10.11074 -10.07838 -10.06961 -10.05026
  Beta  occ. eigenvalues --  -10.04999 -10.04977 -10.03840 -10.03776 -10.03599
  Beta  occ. eigenvalues --  -10.02957 -10.02818 -10.02632  -1.00096  -0.91489
  Beta  occ. eigenvalues --   -0.90902  -0.86522  -0.72105  -0.68615  -0.67982
  Beta  occ. eigenvalues --   -0.63490  -0.61121  -0.60092  -0.56888  -0.52854
  Beta  occ. eigenvalues --   -0.49328  -0.47455  -0.45500  -0.44085  -0.43100
  Beta  occ. eigenvalues --   -0.41519  -0.38263  -0.37904  -0.36087  -0.35361
  Beta  occ. eigenvalues --   -0.34607  -0.32867  -0.32326  -0.30761  -0.30379
  Beta  occ. eigenvalues --   -0.29826  -0.28952  -0.28515  -0.27987  -0.27646
  Beta  occ. eigenvalues --   -0.27014  -0.25810  -0.25034  -0.24571  -0.23091
  Beta  occ. eigenvalues --   -0.21926  -0.21083  -0.20975  -0.20170  -0.20061
  Beta  occ. eigenvalues --   -0.18703  -0.18619  -0.15556  -0.11430  -0.10351
  Beta  occ. eigenvalues --   -0.08436
  Beta virt. eigenvalues --    0.06388   0.08041   0.08673   0.09145   0.09301
  Beta virt. eigenvalues --    0.09963   0.10544   0.10829   0.11087   0.11426
  Beta virt. eigenvalues --    0.11739   0.12271   0.12507   0.12825   0.13481

 Mulliken charges and spin densities:
               1          2
     1  C   -0.042467  -0.339865
     2  C   -0.182611   0.040420
     3  O    0.002433   0.001735
     4  C   -0.781577  -0.010009
     5  O   -0.204495   0.007794
     6  C    0.505622  -0.021809
     7  C   -0.503288  -0.001588
     8  C   -0.144445  -0.122657
     9  C   -0.179249  -0.005320
    10  C    1.092155   0.057425
    11  C   -0.175829  -0.028324
    12  C   -0.393234   0.187530
    13  C   -0.469553  -0.029462
    14  C   -0.376163   0.088567
    15  C    0.470421   0.068598
    16  C   -0.984352   0.222727
    17  O   -0.281911   0.186784
    18  O   -0.130983   0.001812
    19  H    0.118361   0.010887
    20  H   -0.110385   0.240897
    21  H    0.072544   0.105089
    22  H    0.009932   0.141923
    23  H    0.194821  -0.009709
    24  H    0.196271   0.011362
    25  H    0.102332   0.059825
    26  H    0.057545   0.083316
    27  H    0.174468  -0.002977
    28  H    0.099605   0.033570
    29  H    0.132145   0.020856
    30  H    0.079171   0.005293
    31  H    0.109645  -0.015197
    32  H    0.104466   0.003953
    33  H    0.163013   0.003345
    34  H    0.275594   0.003210
 Sum of Mulliken charges =  -1.00000   1.00000

 Dipole moment (field-independent basis, Debye):
    X=              1.4637    Y=              1.0835    Z=             -2.7126  Tot=              3.2672
 Quadrupole moment (field-independent basis, Debye-Ang):
   XX=           -152.9300   YY=           -122.6199   ZZ=           -127.3082
   XY=             -7.4809   XZ=             -3.7970   YZ=              3.8429

 Summary of Natural Population Analysis:

                                       Natural Population
                Natural  -----------------------------------------------
    Atom  No    Charge         Core      Valence    Rydberg      Total
 -----------------------------------------------------------------------
      C    1   -0.29919      0.99966     2.29547    0.00406     3.29919
      C    2   -0.01579      0.99959     2.00510    0.01111     3.01579
      O    3   -0.29149      0.99985     3.28243    0.00920     4.29149
      C    4    0.42446      0.99964     1.54684    0.02906     2.57554
      O    5   -0.30911      0.99986     3.30353    0.00571     4.30911
      C    6    0.05698      0.99944     1.92658    0.01700     2.94302
      C    7   -0.18877      0.99959     2.17956    0.00962     3.18877
      C    8   -0.18492      0.99962     2.17686    0.00845     3.18492
      C    9   -0.19513      0.99960     2.18726    0.00826     3.19513
      C   10    0.02335      0.99947     1.96875    0.00843     2.97665
      C   11   -0.12237      0.99953     2.11437    0.00848     3.12237
      C   12   -0.06265      0.99957     2.05366    0.00942     3.06265
      C   13   -0.12132      0.99957     2.11269    0.00906     3.12132
      C   14   -0.06437      0.99953     2.05597    0.00887     3.06437
      C   15   -0.04194      0.99943     2.03142    0.01109     3.04194
      C   16    0.31981      0.99958     1.65757    0.02304     2.68019
      O   17   -0.24187      0.99988     3.23541    0.00658     4.24187
      O   18   -0.36698      0.99989     3.36046    0.00663     4.36698
      H   19    0.09768      0.00000     0.40101    0.00131     0.40232
      H   20    0.09831      0.00000     0.40032    0.00137     0.40169
      H   21    0.10690      0.00000     0.39169    0.00141     0.39310
      H   22    0.08820      0.00000     0.41032    0.00149     0.41180
      H   23    0.09674      0.00000     0.40128    0.00197     0.40326
      H   24    0.10599      0.00000     0.39264    0.00138     0.39401
      H   25    0.09966      0.00000     0.39864    0.00170     0.40034
      H   26    0.08958      0.00000     0.40841    0.00201     0.41042
      H   27    0.10354      0.00000     0.39506    0.00139     0.39646
      H   28    0.09441      0.00000     0.40419    0.00140     0.40559
      H   29    0.09938      0.00000     0.39907    0.00155     0.40062
      H   30    0.08909      0.00000     0.40950    0.00141     0.41091
      H   31    0.08650      0.00000     0.41192    0.00159     0.41350
      H   32    0.09059      0.00000     0.40832    0.00109     0.40941
      H   33    0.09958      0.00000     0.39884    0.00158     0.40042
      H   34    0.23515      0.00000     0.26217    0.00268     0.26485
 =======================================================================
   * Total *   -0.00000     17.99332    47.78728    0.21941    66.00000

 Normal termination of Gaussian 16 at Fri Dec 11 19:40:52 2020.
