 Gaussian 16, Revision A.03,

 -----------------------------------------------------------
 # opt freq B3LYP/6-31G(d) empiricaldispersion=gd3bj scf=xqc
 -----------------------------------------------------------

 ------------------------------
 CID_54458195_JID_9451_neutraal
 ------------------------------
 Symbolic Z-matrix:
 Charge =  0 Multiplicity = 1

 SCF Done:  E(RB3LYP) =  -896.841659946     A.U. after   15 cycles
 SCF Done:  E(RB3LYP) =  -896.848067234     A.U. after   13 cycles
 SCF Done:  E(RB3LYP) =  -896.848427834     A.U. after   13 cycles
 SCF Done:  E(RB3LYP) =  -896.850649729     A.U. after   13 cycles
 SCF Done:  E(RB3LYP) =  -896.851494058     A.U. after   12 cycles
 SCF Done:  E(RB3LYP) =  -896.851759630     A.U. after   13 cycles
 SCF Done:  E(RB3LYP) =  -896.852253383     A.U. after   12 cycles
 SCF Done:  E(RB3LYP) =  -896.852775712     A.U. after   12 cycles
 SCF Done:  E(RB3LYP) =  -896.853090959     A.U. after   12 cycles
 SCF Done:  E(RB3LYP) =  -896.853189744     A.U. after   12 cycles
 SCF Done:  E(RB3LYP) =  -896.853648541     A.U. after    8 cycles
 SCF Done:  E(RB3LYP) =  -896.853648726     A.U. after    8 cycles
 SCF Done:  E(RB3LYP) =  -896.853648790     A.U. after    6 cycles
 SCF Done:  E(RB3LYP) =  -896.853648838     A.U. after    7 cycles
 SCF Done:  E(RB3LYP) =  -896.853648864     A.U. after    6 cycles
 Optimization completed.
    -- Stationary point found.
 Normal termination of Gaussian 16 at Sat Dec 12 10:04:10 2020.

 --------------------------------------------------------------------
 #N Geom=AllCheck Guess=TCheck SCRF=Check GenChk RB3LYP/6-31G(d) Freq
 --------------------------------------------------------------------

 Structure from the checkpoint file:  "JID_9451.chk"
 ------------------------------
 CID_54458195_JID_9451_neutraal
 ------------------------------
 Charge =  0 Multiplicity = 1

 SCF Done:  E(RB3LYP) =  -896.853648864     A.U. after    1 cycles

  Exact polarizability: 202.468   5.466 134.670  -4.168   8.507 145.556
 Approx polarizability: 299.248  15.094 192.287  -6.216  29.719 240.579

                      1                      2                      3
                      A                      A                      A
 Frequencies --     20.8300                28.9662                45.9364
 Red. masses --      4.2382                 3.6537                 6.8012
 Frc consts  --      0.0011                 0.0018                 0.0085
 IR Inten    --      1.3859                 0.2885                 2.6607

                      4                      5                      6
                      A                      A                      A
 Frequencies --     58.8983                70.3868                81.3004
 Red. masses --      3.6221                 4.0442                 3.3265
 Frc consts  --      0.0074                 0.0118                 0.0130
 IR Inten    --      0.6934                 1.4140                 2.1926

                      7                      8                      9
                      A                      A                      A
 Frequencies --     94.0734                98.0156               114.4574
 Red. masses --      2.4214                 2.3130                 2.1011
 Frc consts  --      0.0126                 0.0131                 0.0162
 IR Inten    --      0.2900                 1.0159                 1.6737

                     10                     11                     12
                      A                      A                      A
 Frequencies --    170.6156               177.8032               192.1222
 Red. masses --      4.0812                 2.1540                 3.4751
 Frc consts  --      0.0700                 0.0401                 0.0756
 IR Inten    --      1.3816                 3.1688                 0.5051

                     13                     14                     15
                      A                      A                      A
 Frequencies --    221.0381               238.1535               251.7860
 Red. masses --      1.5233                 1.3475                 2.2674
 Frc consts  --      0.0438                 0.0450                 0.0847
 IR Inten    --      0.2732                 0.3663                 0.8409

                     16                     17                     18
                      A                      A                      A
 Frequencies --    262.8574               290.8311               296.3775
 Red. masses --      2.3725                 3.4790                 4.4801
 Frc consts  --      0.0966                 0.1734                 0.2319
 IR Inten    --      1.5681                 0.8164                 7.0045

                     19                     20                     21
                      A                      A                      A
 Frequencies --    298.8536               353.4819               374.6770
 Red. masses --      5.1537                 3.0579                 3.6328
 Frc consts  --      0.2712                 0.2251                 0.3005
 IR Inten    --     11.3928                 1.6945                10.5740

                     22                     23                     24
                      A                      A                      A
 Frequencies --    382.9584               400.4297               447.2818
 Red. masses --      4.3570                 4.4009                 4.1943
 Frc consts  --      0.3765                 0.4158                 0.4944
 IR Inten    --      2.4542                 4.5702                 0.7873

                     25                     26                     27
                      A                      A                      A
 Frequencies --    491.8836               496.7268               512.8916
 Red. masses --      2.7771                 2.3497                 2.1433
 Frc consts  --      0.3959                 0.3416                 0.3322
 IR Inten    --      2.0027                26.4731                22.5283

                     28                     29                     30
                      A                      A                      A
 Frequencies --    542.8673               551.9514               565.4207
 Red. masses --      2.0686                 2.2258                 2.7952
 Frc consts  --      0.3592                 0.3995                 0.5265
 IR Inten    --     14.9530                65.6120                12.5696

                     31                     32                     33
                      A                      A                      A
 Frequencies --    594.0284               622.5408               657.9383
 Red. masses --      3.1508                 1.9033                 1.7036
 Frc consts  --      0.6551                 0.4346                 0.4345
 IR Inten    --     16.3123                79.4244                96.9457

                     34                     35                     36
                      A                      A                      A
 Frequencies --    677.9752               718.9476               728.9499
 Red. masses --      2.7151                 4.3066                 4.9819
 Frc consts  --      0.7353                 1.3115                 1.5597
 IR Inten    --     42.6955                11.5126                 7.2973

                     37                     38                     39
                      A                      A                      A
 Frequencies --    767.8527               769.9891               786.4571
 Red. masses --      3.1974                 6.0434                 1.9851
 Frc consts  --      1.1107                 2.1110                 0.7234
 IR Inten    --     53.1086                17.0962                22.6444

                     40                     41                     42
                      A                      A                      A
 Frequencies --    810.2489               826.4843               847.2744
 Red. masses --      1.4164                 2.5295                 3.0237
 Frc consts  --      0.5479                 1.0180                 1.2789
 IR Inten    --     17.5138                13.4817                20.4086

                     43                     44                     45
                      A                      A                      A
 Frequencies --    861.1625               893.8309               911.8255
 Red. masses --      2.0906                 2.5639                 2.2866
 Frc consts  --      0.9134                 1.2069                 1.1201
 IR Inten    --      2.9420                 5.1189                 2.5720

                     46                     47                     48
                      A                      A                      A
 Frequencies --    927.8315               957.5067               984.8582
 Red. masses --      1.7375                 1.3077                 1.6769
 Frc consts  --      0.8813                 0.7064                 0.9583
 IR Inten    --      8.8581                 0.5556                 4.6231

                     49                     50                     51
                      A                      A                      A
 Frequencies --   1000.9578              1009.4519              1045.8411
 Red. masses --      1.3487                 2.3466                 2.4696
 Frc consts  --      0.7961                 1.4088                 1.5915
 IR Inten    --      1.3032                 2.4664                 3.7377

                     52                     53                     54
                      A                      A                      A
 Frequencies --   1103.0046              1119.4209              1148.2308
 Red. masses --      1.8248                 1.9820                 1.7191
 Frc consts  --      1.3080                 1.4634                 1.3354
 IR Inten    --     43.6872                48.5000                13.6102

                     55                     56                     57
                      A                      A                      A
 Frequencies --   1150.1418              1168.1444              1194.9058
 Red. masses --      2.1670                 1.3080                 1.6291
 Frc consts  --      1.6889                 1.0516                 1.3705
 IR Inten    --      0.5329                10.6731                45.6095

                     58                     59                     60
                      A                      A                      A
 Frequencies --   1201.5673              1206.2010              1231.5394
 Red. masses --      2.1027                 1.8524                 1.4337
 Frc consts  --      1.7886                 1.5879                 1.2812
 IR Inten    --     10.3273                18.5488                31.5317

                     61                     62                     63
                      A                      A                      A
 Frequencies --   1282.7831              1313.8997              1317.5912
 Red. masses --      3.0618                 1.9468                 1.4132
 Frc consts  --      2.9685                 1.9802                 1.4455
 IR Inten    --    153.8540               134.0259                34.2825

                     64                     65                     66
                      A                      A                      A
 Frequencies --   1324.9439              1342.1298              1355.4542
 Red. masses --      2.3724                 2.5809                 1.9604
 Frc consts  --      2.4538                 2.7391                 2.1221
 IR Inten    --     36.4124                40.1773                98.9054

                     67                     68                     69
                      A                      A                      A
 Frequencies --   1366.8842              1401.5552              1406.1243
 Red. masses --      1.2620                 3.0194                 2.2526
 Frc consts  --      1.3892                 3.4946                 2.6242
 IR Inten    --      0.5651               162.6820               135.3728

                     70                     71                     72
                      A                      A                      A
 Frequencies --   1408.1487              1429.9172              1432.3407
 Red. masses --      1.4105                 1.7611                 1.2664
 Frc consts  --      1.6479                 2.1216                 1.5308
 IR Inten    --      4.4386                16.8080                 5.8945

                     73                     74                     75
                      A                      A                      A
 Frequencies --   1441.8371              1443.7897              1467.5608
 Red. masses --      1.4339                 1.2621                 1.5165
 Frc consts  --      1.7563                 1.5501                 1.9244
 IR Inten    --      2.3938                 8.0599                36.7280

                     76                     77                     78
                      A                      A                      A
 Frequencies --   1497.3263              1505.2675              1518.8161
 Red. masses --      2.0152                 1.6001                 1.0984
 Frc consts  --      2.6620                 2.1362                 1.4928
 IR Inten    --      8.6778                63.0103                17.4278

                     79                     80                     81
                      A                      A                      A
 Frequencies --   1521.5433              1526.9440              1534.2241
 Red. masses --      1.0755                 1.0426                 1.0584
 Frc consts  --      1.4669                 1.4322                 1.4678
 IR Inten    --      9.6137                 8.0404                 7.7973

                     82                     83                     84
                      A                      A                      A
 Frequencies --   1538.3868              1540.3314              1551.4564
 Red. masses --      1.0597                 1.0671                 1.0483
 Frc consts  --      1.4776                 1.4918                 1.4866
 IR Inten    --      2.5534                15.8961                24.2450

                     85                     86                     87
                      A                      A                      A
 Frequencies --   1556.3944              1651.3717              1678.3557
 Red. masses --      3.3914                 5.5490                 6.6455
 Frc consts  --      4.8403                 8.9156                11.0292
 IR Inten    --    244.8949                13.8037                 1.1058

                     88                     89                     90
                      A                      A                      A
 Frequencies --   1789.6707              1808.8651              3049.1998
 Red. masses --      8.5597                 6.6432                 1.0362
 Frc consts  --     16.1530                12.8068                 5.6765
 IR Inten    --    364.7251               544.5634                22.7858

                     91                     92                     93
                      A                      A                      A
 Frequencies --   3055.2757              3059.1570              3062.3247
 Red. masses --      1.0331                 1.0761                 1.0567
 Frc consts  --      5.6821                 5.9337                 5.8386
 IR Inten    --     38.9400                 4.2795                29.7408

                     94                     95                     96
                      A                      A                      A
 Frequencies --   3065.0241              3098.5786              3113.1340
 Red. masses --      1.0471                 1.0998                 1.1052
 Frc consts  --      5.7954                 6.2216                 6.3107
 IR Inten    --      8.1905                 0.9398                20.2156

                     97                     98                     99
                      A                      A                      A
 Frequencies --   3120.1845              3122.3448              3134.1911
 Red. masses --      1.1017                 1.1026                 1.1021
 Frc consts  --      6.3195                 6.3330                 6.3784
 IR Inten    --     30.4264                52.5064                21.1173

                    100                    101                    102
                      A                      A                      A
 Frequencies --   3139.7524              3140.7984              3211.6146
 Red. masses --      1.1029                 1.1035                 1.0914
 Frc consts  --      6.4061                 6.4134                 6.6328
 IR Inten    --     42.1999                18.5058                 3.1402

                    103                    104                    105
                      A                      A                      A
 Frequencies --   3214.2242              3227.6660              3524.1382
 Red. masses --      1.0884                 1.0950                 1.0743
 Frc consts  --      6.6251                 6.7210                 7.8610
 IR Inten    --      3.3526                 3.0899                21.8164

                    106                    107                    108
                      A                      A                      A
 Frequencies --   3580.4648              3623.9700              3628.4502
 Red. masses --      1.0751                 1.0763                 1.0641
 Frc consts  --      8.1202                 8.3280                 8.2540
 IR Inten    --     35.0484                41.4416                98.3442

 - Thermochemistry -
 -------------------
 Temperature   298.150 Kelvin.  Pressure   1.00000 Atm.
 Atom     1 has atomic number  6 and mass  12.00000

 Molecular mass:   265.14264 amu.
 Principal axes and moments of inertia in atomic units:
                           1         2         3
     Eigenvalues --  3251.920627620.468048259.70825
           X            0.99991  -0.01282   0.00473
           Y            0.01310   0.99775  -0.06579
           Z           -0.00388   0.06584   0.99782
 This molecule is an asymmetric top.
 Rotational symmetry number  1.
 Warning -- assumption of classical behavior for rotation
           may cause significant error
 Rotational temperatures (Kelvin)      0.02663     0.01137     0.01049
 Rotational constants (GHZ):           0.55498     0.23683     0.21850
 Zero-point vibrational energy     838482.9 (Joules/Mol)
                                  200.40221 (Kcal/Mol)
 Warning -- explicit consideration of  31 degrees of freedom as
           vibrations may cause significant error
 Vibrational temperatures:     29.97    41.68    66.09    84.74   101.27
          (Kelvin)            116.97   135.35   141.02   164.68   245.48
                              255.82   276.42   318.02   342.65   362.26
                              378.19   418.44   426.42   429.98   508.58
                              539.08   550.99   576.13   643.54   707.71
                              714.68   737.94   781.07   794.14   813.51
                              854.67   895.70   946.63   975.46  1034.41
                             1048.80  1104.77  1107.84  1131.54  1165.77
                             1189.13  1219.04  1239.02  1286.02  1311.91
                             1334.94  1377.64  1416.99  1440.15  1452.38
                             1504.73  1586.98  1610.60  1652.05  1654.80
                             1680.70  1719.20  1728.79  1735.45  1771.91
                             1845.64  1890.41  1895.72  1906.30  1931.03
                             1950.20  1966.64  2016.53  2023.10  2026.01
                             2057.33  2060.82  2074.48  2077.29  2111.49
                             2154.32  2165.74  2185.24  2189.16  2196.93
                             2207.41  2213.40  2216.19  2232.20  2239.30
                             2375.96  2414.78  2574.94  2602.55  4387.12
                             4395.86  4401.44  4406.00  4409.89  4458.16
                             4479.11  4489.25  4492.36  4509.40  4517.40
                             4518.91  4620.80  4624.55  4643.89  5070.45
                             5151.49  5214.08  5220.53

 Zero-point correction=                           0.319361 (Hartree/Particle)
 Thermal correction to Energy=                    0.339246
 Thermal correction to Enthalpy=                  0.340191
 Thermal correction to Gibbs Free Energy=         0.269499
 Sum of electronic and zero-point Energies=           -896.534288
 Sum of electronic and thermal Energies=              -896.514403
 Sum of electronic and thermal Enthalpies=            -896.513458
 Sum of electronic and thermal Free Energies=         -896.584150

                     E (Thermal)             CV                S
                      KCal/Mol        Cal/Mol-Kelvin    Cal/Mol-Kelvin
 Total                  212.880             73.728            148.783
 Electronic               0.000              0.000              0.000
 Translational            0.889              2.981             42.625
 Rotational               0.889              2.981             33.681
 Vibrational            211.103             67.767             72.478
 Vibration     1          0.593              1.986              6.553
 Vibration     2          0.593              1.984              5.899
 Vibration     3          0.595              1.979              4.985
 Vibration     4          0.596              1.974              4.494
 Vibration     5          0.598              1.968              4.143
 Vibration     6          0.600              1.962              3.859
 Vibration     7          0.603              1.953              3.574
 Vibration     8          0.603              1.951              3.493
 Vibration     9          0.607              1.937              3.192
 Vibration    10          0.626              1.879              2.429
 Vibration    11          0.628              1.870              2.351
 Vibration    12          0.634              1.851              2.207
 Vibration    13          0.648              1.809              1.951
 Vibration    14          0.656              1.782              1.817
 Vibration    15          0.664              1.760              1.718
 Vibration    16          0.670              1.741              1.643
 Vibration    17          0.687              1.691              1.469
 Vibration    18          0.690              1.680              1.437
 Vibration    19          0.692              1.676              1.423
 Vibration    20          0.730              1.568              1.151
 Vibration    21          0.746              1.524              1.061
 Vibration    22          0.752              1.507              1.027
 Vibration    23          0.766              1.469              0.961
 Vibration    24          0.806              1.367              0.804
 Vibration    25          0.848              1.268              0.679
 Vibration    26          0.852              1.257              0.666
 Vibration    27          0.868              1.221              0.627
 Vibration    28          0.898              1.155              0.559
 Vibration    29          0.907              1.135              0.540
 Vibration    30          0.921              1.106              0.513
 Vibration    31          0.952              1.044              0.460

 Optimization completed.
    -- Stationary point found.
 Normal termination of Gaussian 16 at Sat Dec 12 10:26:21 2020.

 ----------------------------------------------------------------------
 # B3LYP/6-311++G(d,p) empiricaldispersion=gd3bj scf=xqc pop=npa geom=c
 heck
 ----------------------------------------------------------------------

 --------------------------------------
 CID_54458195_JID_9451_Energie_neutraal
 --------------------------------------
 Structure from the checkpoint file:  "JID_9451.chk"
 Charge =  0 Multiplicity = 1

 SCF Done:  E(RB3LYP) =  -897.124737481     A.U. after   16 cycles
 Normal termination of Gaussian 16 at Sat Dec 12 10:36:46 2020.

 ----------------------------------------------------------------------
 # B3LYP/6-311++G(d,p) empiricaldispersion=gd3bj scf=xqc pop=npa geom=c
 heck
 ----------------------------------------------------------------------

 ------------------------------------
 CID_54458195_JID_9451_Energie_kation
 ------------------------------------
 Structure from the checkpoint file:  "JID_9451.chk"
 Charge =  1 Multiplicity = 2

 SCF Done:  E(UB3LYP) =  -896.824115859     A.U. after   26 cycles
 Normal termination of Gaussian 16 at Sat Dec 12 11:00:55 2020.
 Gaussian 16:  ES64L-G16RevA.03 25-Dec-2016

 ----------------------------------------------------------------------
 # B3LYP/6-311++G(d,p) empiricaldispersion=gd3bj scf=xqc pop=npa geom=c
 heck
 ----------------------------------------------------------------------

 -----------------------------------
 CID_54458195_JID_9451_Energie_anion
 -----------------------------------
 Structure from the checkpoint file:  "JID_9451.chk"
 Charge = -1 Multiplicity = 2

                         Standard orientation:
 ---------------------------------------------------------------------
 Center     Atomic      Atomic             Coordinates (Angstroms)
 Number     Number       Type             X           Y           Z
 ---------------------------------------------------------------------
      1          6           0        2.458937   -2.175536    2.086399
      2          6           0        2.141861   -0.985837    1.174790
      3          6           0        2.591907   -1.230687   -0.279180
      4          6           0        1.649730   -2.191205   -1.031986
      5          6           0        2.866131    0.005195   -1.142506
      6          8           0        3.763161   -0.000944   -1.970176
      7          7           0        2.111919    1.170462   -0.974809
      8          6           0        0.792384    1.263466   -0.426464
      9          6           0        0.649513    1.927670    0.802673
     10          6           0       -0.611731    2.016430    1.395897
     11          6           0       -1.718232    1.462127    0.761133
     12          6           0       -1.583584    0.794210   -0.464288
     13          6           0       -0.321393    0.709014   -1.054298
     14          7           0       -2.698357    0.207238   -1.129098
     15          6           0       -3.795501   -0.387084   -0.504672
     16          8           0       -4.923150   -0.296912   -0.973999
     17          7           0       -3.529232   -1.096843    0.648745
     18          6           0       -2.273197   -1.779587    0.946752
     19          8           0        1.727942    2.454802    1.434896
     20          1           0        1.951098   -3.087847    1.754325
     21          1           0        2.136669   -1.974034    3.113532
     22          1           0        3.535432   -2.382321    2.106849
     23          1           0        1.066674   -0.783482    1.205742
     24          1           0        2.634073   -0.091564    1.574641
     25          1           0        3.578831   -1.707443   -0.250662
     26          1           0        0.625426   -1.806444   -1.050960
     27          1           0        1.988613   -2.338402   -2.062000
     28          1           0        1.633149   -3.168664   -0.540184
     29          1           0        2.355054    1.849493   -1.692121
     30          1           0       -0.709027    2.525572    2.348722
     31          1           0       -2.697442    1.529219    1.222958
     32          1           0       -0.201393    0.189727   -1.999593
     33          1           0       -2.989567    0.654155   -1.990813
     34          1           0       -4.372915   -1.543199    0.980869
     35          1           0       -1.596299   -1.154537    1.538540
     36          1           0       -2.497433   -2.682886    1.519794
     37          1           0       -1.753262   -2.074129    0.029091
     38          1           0        2.497432    2.256174    0.866124
 ---------------------------------------------------------------------

 SCF Done:  E(UB3LYP) =  -897.121871346     A.U. after   33 cycles
 SCF Done:  E(UB3LYP) =  -897.121871346     a.u. after    1 cycles

 The electronic state is 2-A.
 Alpha  occ. eigenvalues --  -19.05644 -19.00215 -18.98778 -14.24967 -14.23804
 Alpha  occ. eigenvalues --  -14.23660 -10.19881 -10.18331 -10.13006 -10.10495
 Alpha  occ. eigenvalues --  -10.10289 -10.09949 -10.08951 -10.06955 -10.06747
 Alpha  occ. eigenvalues --  -10.06672 -10.06207 -10.06043 -10.05893  -0.97084
 Alpha  occ. eigenvalues --   -0.95384  -0.95329  -0.84079  -0.83219  -0.81139
 Alpha  occ. eigenvalues --   -0.73550  -0.71334  -0.64560  -0.63607  -0.63093
 Alpha  occ. eigenvalues --   -0.60607  -0.56499  -0.54315  -0.52208  -0.50562
 Alpha  occ. eigenvalues --   -0.50225  -0.47451  -0.45576  -0.44358  -0.40223
 Alpha  occ. eigenvalues --   -0.39139  -0.38714  -0.38334  -0.37962  -0.36499
 Alpha  occ. eigenvalues --   -0.35433  -0.34305  -0.33129  -0.32853  -0.32683
 Alpha  occ. eigenvalues --   -0.32256  -0.31685  -0.31022  -0.30385  -0.29672
 Alpha  occ. eigenvalues --   -0.29376  -0.29260  -0.28180  -0.26946  -0.25706
 Alpha  occ. eigenvalues --   -0.25060  -0.24542  -0.23313  -0.23162  -0.19094
 Alpha  occ. eigenvalues --   -0.18762  -0.17135  -0.16687  -0.15776  -0.15619
 Alpha  occ. eigenvalues --   -0.11716   0.04200
 Alpha virt. eigenvalues --    0.06105   0.07140   0.07732   0.08101   0.08424
 Alpha virt. eigenvalues --    0.09056   0.09395   0.09800   0.09840   0.10307
 Alpha virt. eigenvalues --    0.10950   0.11478   0.12100   0.12520   0.12906

  Beta  occ. eigenvalues --  -19.05650 -19.00211 -18.98776 -14.24979 -14.23807
  Beta  occ. eigenvalues --  -14.23650 -10.19876 -10.18309 -10.13044 -10.10513
  Beta  occ. eigenvalues --  -10.10261 -10.09810 -10.08949 -10.06953 -10.06711
  Beta  occ. eigenvalues --  -10.06571 -10.06002 -10.05976 -10.05710  -0.97085
  Beta  occ. eigenvalues --   -0.95376  -0.95312  -0.84042  -0.83128  -0.81111
  Beta  occ. eigenvalues --   -0.73334  -0.71307  -0.64179  -0.63527  -0.62948
  Beta  occ. eigenvalues --   -0.60554  -0.56426  -0.54147  -0.52008  -0.50435
  Beta  occ. eigenvalues --   -0.50180  -0.47352  -0.45485  -0.44235  -0.40172
  Beta  occ. eigenvalues --   -0.39050  -0.38654  -0.38284  -0.37891  -0.36464
  Beta  occ. eigenvalues --   -0.35393  -0.34249  -0.33046  -0.32803  -0.32563
  Beta  occ. eigenvalues --   -0.32193  -0.31530  -0.30955  -0.30324  -0.29622
  Beta  occ. eigenvalues --   -0.29333  -0.29201  -0.28128  -0.26896  -0.25657
  Beta  occ. eigenvalues --   -0.24911  -0.24309  -0.23225  -0.23019  -0.18988
  Beta  occ. eigenvalues --   -0.18697  -0.17048  -0.16584  -0.15747  -0.14502
  Beta  occ. eigenvalues --   -0.11205
  Beta virt. eigenvalues --    0.06636   0.07301   0.07385   0.08233   0.08506
  Beta virt. eigenvalues --    0.08901   0.09220   0.09659   0.09856   0.10038
  Beta virt. eigenvalues --    0.10395   0.11172   0.11678   0.12175   0.12527

 Mulliken charges and spin densities:
               1          2
     1  C    1.123647  -1.760989
     2  C   -1.750527   1.389458
     3  C    0.453369   0.219142
     4  C   -0.057784  -0.536333
     5  C   -0.279896  -0.068215
     6  O   -0.293933   0.001636
     7  N   -0.389463   0.020201
     8  C    0.223814  -0.072579
     9  C   -0.612965   0.190000
    10  C   -0.523108   0.386591
    11  C    0.397886  -0.269691
    12  C   -0.272351  -0.276319
    13  C    0.062122   0.397554
    14  N   -0.148140   0.003951
    15  C    0.109611   0.010103
    16  O   -0.380826   0.000809
    17  N   -0.329056   0.084454
    18  C    0.224338  -0.703810
    19  O   -0.188089  -0.000317
    20  H   -0.104225   0.255858
    21  H   -0.364313   0.513207
    22  H   -0.122652   0.253952
    23  H    0.964883  -0.810911
    24  H   -0.025930   0.116034
    25  H    0.182858   0.043705
    26  H    0.142403   0.011071
    27  H    0.133773   0.018575
    28  H   -0.165536   0.303253
    29  H    0.268916   0.055958
    30  H    0.094135   0.062775
    31  H    0.175199   0.007051
    32  H    0.184184  -0.022384
    33  H    0.302631   0.012831
    34  H    0.287012   0.018008
    35  H   -0.149237   0.337402
    36  H   -0.590138   0.751637
    37  H    0.142834   0.051274
    38  H    0.274554   0.005058
 Sum of Mulliken charges =  -1.00000   1.00000

 Dipole moment (field-independent basis, Debye):
    X=              0.4904    Y=              3.7234    Z=             -2.0604  Tot=              4.2836
 Quadrupole moment (field-independent basis, Debye-Ang):
   XX=           -187.5459   YY=           -154.6845   ZZ=           -153.0032
   XY=              5.0573   XZ=             -3.0747   YZ=              6.7143

 Summary of Natural Population Analysis:

                                       Natural Population
                Natural  -----------------------------------------------
    Atom  No    Charge         Core      Valence    Rydberg      Total
 -----------------------------------------------------------------------
      C    1   -0.28218      0.99967     2.27729    0.00523     3.28218
      C    2   -0.19702      0.99962     2.18881    0.00859     3.19702
      C    3   -0.15036      0.99955     2.14113    0.00968     3.15036
      C    4   -0.28237      0.99964     2.27691    0.00582     3.28237
      C    5    0.36178      0.99963     1.61371    0.02488     2.63822
      O    6   -0.32247      0.99987     3.31658    0.00602     4.32247
      N    7   -0.34199      0.99965     2.83177    0.01057     3.84199
      C    8    0.04943      0.99939     1.94031    0.01087     2.95057
      C    9    0.15114      0.99934     1.83552    0.01400     2.84886
      C   10   -0.09505      0.99953     2.08565    0.00987     3.09505
      C   11   -0.08385      0.99953     2.07619    0.00814     3.08385
      C   12    0.04851      0.99946     1.94075    0.01128     2.95149
      C   13   -0.06374      0.99948     2.05489    0.00937     3.06374
      N   14   -0.33233      0.99965     2.82349    0.00919     3.83233
      C   15    0.40723      0.99970     1.56918    0.02390     2.59277
      O   16   -0.34325      0.99987     3.33801    0.00536     4.34325
      N   17   -0.33026      0.99968     2.82161    0.00897     3.83026
      C   18   -0.18341      0.99965     2.17558    0.00819     3.18341
      O   19   -0.34413      0.99988     3.33822    0.00604     4.34413
      H   20    0.09852      0.00000     0.40001    0.00147     0.40148
      H   21    0.10269      0.00000     0.39621    0.00111     0.39731
      H   22    0.09282      0.00000     0.40618    0.00100     0.40718
      H   23    0.10416      0.00000     0.39280    0.00305     0.39584
      H   24    0.09593      0.00000     0.40196    0.00211     0.40407
      H   25    0.10655      0.00000     0.39168    0.00177     0.39345
      H   26    0.10380      0.00000     0.39504    0.00116     0.39620
      H   27    0.10093      0.00000     0.39830    0.00078     0.39907
      H   28    0.10237      0.00000     0.39674    0.00089     0.39763
      H   29    0.19716      0.00000     0.30098    0.00186     0.30284
      H   30    0.10213      0.00000     0.39703    0.00084     0.39787
      H   31    0.10155      0.00000     0.39716    0.00129     0.39845
      H   32    0.10222      0.00000     0.39681    0.00097     0.39778
      H   33    0.19621      0.00000     0.30236    0.00143     0.30379
      H   34    0.19242      0.00000     0.30580    0.00179     0.30758
      H   35    0.09992      0.00000     0.39808    0.00200     0.40008
      H   36    0.09822      0.00000     0.40076    0.00102     0.40178
      H   37    0.09826      0.00000     0.40037    0.00137     0.40174
      H   38    0.23849      0.00000     0.25892    0.00259     0.26151
 =======================================================================
   * Total *    0.00001     18.99277    51.78275    0.22447    70.99999

 Normal termination of Gaussian 16 at Sat Dec 12 11:31:34 2020.
