 Gaussian 16, Revision A.03,

 -----------------------------------------------------------
 # opt freq B3LYP/6-31G(d) empiricaldispersion=gd3bj scf=xqc
 -----------------------------------------------------------

 -------------------------------
 CID_130859097_JID_3382_neutraal
 -------------------------------
 Symbolic Z-matrix:
 Charge =  0 Multiplicity = 1

 SCF Done:  E(RB3LYP) =  -966.388142420     A.U. after   16 cycles
 SCF Done:  E(RB3LYP) =  -966.393336531     A.U. after   13 cycles
 SCF Done:  E(RB3LYP) =  -966.394522015     A.U. after   13 cycles
 SCF Done:  E(RB3LYP) =  -966.394973980     A.U. after   13 cycles
 SCF Done:  E(RB3LYP) =  -966.395283681     A.U. after   12 cycles
 SCF Done:  E(RB3LYP) =  -966.395501594     A.U. after   12 cycles
 SCF Done:  E(RB3LYP) =  -966.395549157     A.U. after   12 cycles
 SCF Done:  E(RB3LYP) =  -966.395580131     A.U. after   11 cycles
 SCF Done:  E(RB3LYP) =  -966.395586048     A.U. after   11 cycles
 SCF Done:  E(RB3LYP) =  -966.395588160     A.U. after    9 cycles
 SCF Done:  E(RB3LYP) =  -966.395588970     A.U. after    9 cycles
 SCF Done:  E(RB3LYP) =  -966.395589153     A.U. after    8 cycles
 SCF Done:  E(RB3LYP) =  -966.395589196     A.U. after    8 cycles
 Optimization completed.
    -- Stationary point found.
 Normal termination of Gaussian 16 at Wed Dec  9 23:05:02 2020.

 --------------------------------------------------------------------
 #N Geom=AllCheck Guess=TCheck SCRF=Check GenChk RB3LYP/6-31G(d) Freq
 --------------------------------------------------------------------

 Structure from the checkpoint file:  "JID_3382.chk"
 -------------------------------
 CID_130859097_JID_3382_neutraal
 -------------------------------
 Charge =  0 Multiplicity = 1

 SCF Done:  E(RB3LYP) =  -966.395589196     A.U. after    1 cycles

  Exact polarizability: 131.151  14.571 109.646   4.100  -9.815 101.758
 Approx polarizability: 186.025  36.059 187.261   5.121 -37.453 190.060

                      1                      2                      3
                      A                      A                      A
 Frequencies --     26.4405                39.9805                50.8317
 Red. masses --      5.0058                 5.4945                 4.6504
 Frc consts  --      0.0021                 0.0052                 0.0071
 IR Inten    --      0.1591                 1.7745                 3.3504

                      4                      5                      6
                      A                      A                      A
 Frequencies --     71.7030                96.7768               187.5950
 Red. masses --      5.3014                 3.8717                 6.4749
 Frc consts  --      0.0161                 0.0214                 0.1343
 IR Inten    --      0.5012                 0.5061                 2.1971

                      7                      8                      9
                      A                      A                      A
 Frequencies --    197.7484               228.1672               246.1838
 Red. masses --      4.0021                 1.0551                 1.4462
 Frc consts  --      0.0922                 0.0324                 0.0516
 IR Inten    --      2.1129                 0.8881                 0.2774

                     10                     11                     12
                      A                      A                      A
 Frequencies --    282.5810               296.5888               313.1720
 Red. masses --      2.6452                 2.1049                 1.3947
 Frc consts  --      0.1244                 0.1091                 0.0806
 IR Inten    --      3.2061                 2.8852                26.7928

                     13                     14                     15
                      A                      A                      A
 Frequencies --    337.6039               360.8788               399.0488
 Red. masses --      2.7436                 3.5389                 4.1838
 Frc consts  --      0.1842                 0.2715                 0.3925
 IR Inten    --      5.9002                 5.5125                18.4669

                     16                     17                     18
                      A                      A                      A
 Frequencies --    429.5738               476.0589               512.1512
 Red. masses --     10.0457                 3.7827                 4.5558
 Frc consts  --      1.0922                 0.5051                 0.7041
 IR Inten    --     27.7734                 8.1438                 3.1202

                     19                     20                     21
                      A                      A                      A
 Frequencies --    566.8254               597.1315               632.7010
 Red. masses --      5.0489                 1.9924                 3.1379
 Frc consts  --      0.9557                 0.4186                 0.7401
 IR Inten    --      6.0137                37.3492                21.9498

                     22                     23                     24
                      A                      A                      A
 Frequencies --    659.6757               726.9726               768.8392
 Red. masses --      2.8828                 2.6460                 4.4240
 Frc consts  --      0.7391                 0.8239                 1.5408
 IR Inten    --     44.5516                44.6880                34.2842

                     25                     26                     27
                      A                      A                      A
 Frequencies --    779.1578               785.2908               833.4849
 Red. masses --      3.9829                 3.3744                 1.5429
 Frc consts  --      1.4246                 1.2261                 0.6315
 IR Inten    --     36.3500                46.0130                26.4567

                     28                     29                     30
                      A                      A                      A
 Frequencies --    860.5198               893.5405               929.0198
 Red. masses --      1.4577                 4.3258                 2.0310
 Frc consts  --      0.6360                 2.0349                 1.0328
 IR Inten    --    157.9624                17.3920                 4.6383

                     31                     32                     33
                      A                      A                      A
 Frequencies --    952.8107               983.6048              1009.4484
 Red. masses --      2.1770                 3.1736                 1.3906
 Frc consts  --      1.1644                 1.8090                 0.8349
 IR Inten    --     21.4144                16.2094                 0.6120

                     34                     35                     36
                      A                      A                      A
 Frequencies --   1040.1096              1053.1530              1116.9592
 Red. masses --      1.7484                 1.5664                 1.6905
 Frc consts  --      1.1144                 1.0236                 1.2427
 IR Inten    --      6.7956                 3.4508                10.2354

                     37                     38                     39
                      A                      A                      A
 Frequencies --   1140.3832              1184.4595              1201.2294
 Red. masses --      2.1054                 2.3453                 2.7045
 Frc consts  --      1.6132                 1.9386                 2.2993
 IR Inten    --     27.4784                19.2982                18.9386

                     40                     41                     42
                      A                      A                      A
 Frequencies --   1275.1837              1279.1273              1339.8686
 Red. masses --      2.5392                 2.0838                 1.3504
 Frc consts  --      2.4327                 2.0087                 1.4284
 IR Inten    --     44.1237                13.1424                16.5421

                     43                     44                     45
                      A                      A                      A
 Frequencies --   1357.4363              1362.4790              1382.4438
 Red. masses --      2.2762                 2.0226                 1.3179
 Frc consts  --      2.4712                 2.2122                 1.4840
 IR Inten    --    100.8928                69.0815                 2.6648

                     46                     47                     48
                      A                      A                      A
 Frequencies --   1433.2006              1439.3639              1439.9996
 Red. masses --      1.2233                 2.4964                 2.0165
 Frc consts  --      1.4805                 3.0472                 2.4637
 IR Inten    --      6.4642                62.5177                39.7518

                     49                     50                     51
                      A                      A                      A
 Frequencies --   1448.9714              1481.6097              1518.5054
 Red. masses --      1.3955                 1.4681                 1.0512
 Frc consts  --      1.7263                 1.8988                 1.4281
 IR Inten    --      8.0921                46.4597                 1.3954

                     52                     53                     54
                      A                      A                      A
 Frequencies --   1521.0407              1524.5293              1534.6154
 Red. masses --      3.1933                 1.2729                 1.0727
 Frc consts  --      4.3528                 1.7430                 1.4885
 IR Inten    --     47.2903                20.1454                 1.8441

                     55                     56                     57
                      A                      A                      A
 Frequencies --   1537.7084              1692.5278              1787.4809
 Red. masses --      1.0475                 1.0983                 9.0482
 Frc consts  --      1.4593                 1.8537                17.0332
 IR Inten    --      2.3378                24.1948               340.0456

                     58                     59                     60
                      A                      A                      A
 Frequencies --   3044.2723              3051.2768              3053.0197
 Red. masses --      1.0782                 1.0454                 1.0418
 Frc consts  --      5.8873                 5.7343                 5.7212
 IR Inten    --     16.4333                14.3015                24.2751

                     61                     62                     63
                      A                      A                      A
 Frequencies --   3087.7085              3112.3873              3122.3013
 Red. masses --      1.0837                 1.1009                 1.0952
 Frc consts  --      6.0876                 6.2831                 6.2906
 IR Inten    --     13.7395                41.6729                26.5502

                     64                     65                     66
                      A                      A                      A
 Frequencies --   3144.3766              3151.0778              3283.5563
 Red. masses --      1.1007                 1.1017                 1.0946
 Frc consts  --      6.4118                 6.4452                 6.9536
 IR Inten    --     21.4441                15.5571                 3.5792

                     67                     68                     69
                      A                      A                      A
 Frequencies --   3472.0711              3557.7183              3566.5760
 Red. masses --      1.0482                 1.0751                 1.0934
 Frc consts  --      7.4453                 8.0179                 8.1946
 IR Inten    --      1.1225                15.4851                 0.7286

 - Thermochemistry -
 -------------------
 Temperature   298.150 Kelvin.  Pressure   1.00000 Atm.
 Atom     1 has atomic number  6 and mass  12.00000

 Molecular mass:   200.07318 amu.
 Principal axes and moments of inertia in atomic units:
                           1         2         3
     Eigenvalues --  1692.070354112.594684544.53334
           X            0.99974  -0.02254   0.00236
           Y            0.02248   0.99949   0.02255
           Z           -0.00287  -0.02249   0.99974
 This molecule is an asymmetric top.
 Rotational symmetry number  1.
 Warning -- assumption of classical behavior for rotation
           may cause significant error
 Rotational temperatures (Kelvin)      0.05119     0.02106     0.01906
 Rotational constants (GHZ):           1.06659     0.43883     0.39712
 Zero-point vibrational energy     527976.8 (Joules/Mol)
                                  126.18949 (Kcal/Mol)
 Warning -- explicit consideration of  20 degrees of freedom as
           vibrations may cause significant error
 Vibrational temperatures:     38.04    57.52    73.14   103.16   139.24
          (Kelvin)            269.91   284.52   328.28   354.20   406.57
                              426.73   450.58   485.74   519.22   574.14
                              618.06   684.94   736.87   815.54   859.14
                              910.32   949.13  1045.95  1106.19  1121.03
                             1129.86  1199.20  1238.10  1285.61  1336.65
                             1370.88  1415.19  1452.37  1496.49  1515.25
                             1607.06  1640.76  1704.17  1728.30  1834.70
                             1840.38  1927.77  1953.05  1960.30  1989.03
                             2062.06  2070.92  2071.84  2084.75  2131.71
                             2184.79  2188.44  2193.46  2207.97  2212.42
                             2435.17  2571.79  4380.03  4390.11  4392.61
                             4442.52  4478.03  4492.30  4524.06  4533.70
                             4724.31  4995.54  5118.76  5131.51

 Zero-point correction=                           0.201096 (Hartree/Particle)
 Thermal correction to Energy=                    0.214815
 Thermal correction to Enthalpy=                  0.215759
 Thermal correction to Gibbs Free Energy=         0.159003
 Sum of electronic and zero-point Energies=           -966.194493
 Sum of electronic and thermal Energies=              -966.180774
 Sum of electronic and thermal Enthalpies=            -966.179830
 Sum of electronic and thermal Free Energies=         -966.236586

                     E (Thermal)             CV                S
                      KCal/Mol        Cal/Mol-Kelvin    Cal/Mol-Kelvin
 Total                  134.799             50.104            119.453
 Electronic               0.000              0.000              0.000
 Translational            0.889              2.981             41.785
 Rotational               0.889              2.981             31.825
 Vibrational            133.021             44.143             45.843
 Vibration     1          0.593              1.985              6.080
 Vibration     2          0.594              1.981              5.260
 Vibration     3          0.595              1.977              4.785
 Vibration     4          0.598              1.967              4.106
 Vibration     5          0.603              1.951              3.518
 Vibration     6          0.632              1.857              2.251
 Vibration     7          0.637              1.843              2.154
 Vibration     8          0.651              1.798              1.893
 Vibration     9          0.661              1.769              1.758
 Vibration    10          0.682              1.706              1.518
 Vibration    11          0.690              1.680              1.436
 Vibration    12          0.701              1.649              1.346
 Vibration    13          0.718              1.600              1.223
 Vibration    14          0.735              1.553              1.118
 Vibration    15          0.765              1.472              0.966
 Vibration    16          0.791              1.406              0.860
 Vibration    17          0.833              1.303              0.721
 Vibration    18          0.867              1.223              0.628
 Vibration    19          0.923              1.103              0.510
 Vibration    20          0.955              1.038              0.455

                           ! Non-Optimized Parameters !
 Normal termination of Gaussian 16 at Wed Dec  9 23:11:24 2020.

 ----------------------------------------------------------------------
 # B3LYP/6-311++G(d,p) empiricaldispersion=gd3bj scf=xqc pop=npa geom=c
 heck
 ----------------------------------------------------------------------

 ---------------------------------------
 CID_130859097_JID_3382_Energie_neutraal
 ---------------------------------------
 Structure from the checkpoint file:  "JID_3382.chk"
 Charge =  0 Multiplicity = 1

 SCF Done:  E(RB3LYP) =  -966.592614554     A.U. after   16 cycles
 Normal termination of Gaussian 16 at Wed Dec  9 23:14:25 2020.

 ----------------------------------------------------------------------
 # B3LYP/6-311++G(d,p) empiricaldispersion=gd3bj scf=xqc pop=npa geom=c
 heck
 ----------------------------------------------------------------------

 -------------------------------------
 CID_130859097_JID_3382_Energie_kation
 -------------------------------------
 Structure from the checkpoint file:  "JID_3382.chk"
 Charge =  1 Multiplicity = 2

 SCF Done:  E(UB3LYP) =  -966.266202586     A.U. after   33 cycles
 SCF Done:  E(UB3LYP) =  -966.266202586     a.u. after    1 cycles
 Normal termination of Gaussian 16 at Wed Dec  9 23:23:19 2020.
 Gaussian 16:  ES64L-G16RevA.03 25-Dec-2016

 ----------------------------------------------------------------------
 # B3LYP/6-311++G(d,p) empiricaldispersion=gd3bj scf=xqc pop=npa geom=c
 heck
 ----------------------------------------------------------------------

 ------------------------------------
 CID_130859097_JID_3382_Energie_anion
 ------------------------------------
 Structure from the checkpoint file:  "JID_3382.chk"
 Charge = -1 Multiplicity = 2

                         Standard orientation:
 ---------------------------------------------------------------------
 Center     Atomic      Atomic             Coordinates (Angstroms)
 Number     Number       Type             X           Y           Z
 ---------------------------------------------------------------------
      1          6           0        2.441806   -2.094662   -0.758298
      2          6           0        1.934875   -0.652819   -0.719892
      3          6           0        1.564591   -0.208095    0.727333
      4          6           0        2.733301   -0.247889    1.710698
      5          7           0        1.013048    1.157284    0.733940
      6          6           0       -0.132270    1.569035    0.095953
      7          8           0       -0.284301    2.705998   -0.323944
      8          6           0       -1.243320    0.564681    0.008994
      9          6           0       -1.758140   -0.198688    1.028116
     10         16           0       -3.100545   -1.081466    0.464705
     11          7           0       -2.903009   -0.388145   -1.159036
     12          7           0       -1.928783    0.418970   -1.177460
     13          7           0        2.881937    0.214577   -1.417182
     14          1           0        3.430112   -2.182993   -0.291473
     15          1           0        2.534515   -2.426188   -1.795541
     16          1           0        1.758458   -2.771412   -0.232388
     17          1           0        1.001056   -0.607370   -1.295864
     18          1           0        0.784685   -0.884562    1.089433
     19          1           0        3.560158    0.386190    1.366433
     20          1           0        2.419480    0.114472    2.694061
     21          1           0        3.115794   -1.265261    1.824070
     22          1           0        1.705890    1.899565    0.743966
     23          1           0       -1.403754   -0.238872    2.048637
     24          1           0        2.519226    1.162597   -1.493567
     25          1           0        3.770107    0.261131   -0.920756
 ---------------------------------------------------------------------

 SCF Done:  E(UB3LYP) =  -966.608663298     A.U. after   33 cycles
 SCF Done:  E(UB3LYP) =  -966.608663298     a.u. after    1 cycles

 The electronic state is 2-A.
 Alpha  occ. eigenvalues --  -88.72635 -18.96540 -14.21763 -14.19920 -14.19762
 Alpha  occ. eigenvalues --  -14.19753 -10.14812 -10.10713 -10.09882 -10.07484
 Alpha  occ. eigenvalues --  -10.06616 -10.05965 -10.04508  -7.81247  -5.77570
 Alpha  occ. eigenvalues --   -5.77172  -5.76867  -0.91820  -0.88546  -0.81992
 Alpha  occ. eigenvalues --   -0.78219  -0.67269  -0.66426  -0.63983  -0.62778
 Alpha  occ. eigenvalues --   -0.55193  -0.50486  -0.47868  -0.47136  -0.41436
 Alpha  occ. eigenvalues --   -0.40533  -0.38931  -0.37426  -0.35845  -0.34302
 Alpha  occ. eigenvalues --   -0.32060  -0.30630  -0.30161  -0.29827  -0.28822
 Alpha  occ. eigenvalues --   -0.28159  -0.27588  -0.26754  -0.25416  -0.23879
 Alpha  occ. eigenvalues --   -0.23598  -0.19535  -0.16175  -0.15918  -0.14532
 Alpha  occ. eigenvalues --   -0.13238  -0.11852  -0.10407   0.04141
 Alpha virt. eigenvalues --    0.05805   0.08062   0.08528   0.09590   0.10569
 Alpha virt. eigenvalues --    0.11275   0.11699   0.11975   0.12134   0.12966
 Alpha virt. eigenvalues --    0.13189   0.14184   0.14571   0.14807   0.15760

  Beta  occ. eigenvalues --  -88.72540 -18.96490 -14.21753 -14.19748 -14.19686
  Beta  occ. eigenvalues --  -14.19367 -10.14745 -10.10695 -10.09879 -10.07468
  Beta  occ. eigenvalues --  -10.06608 -10.06005 -10.03976  -7.81162  -5.77528
  Beta  occ. eigenvalues --   -5.77135  -5.76546  -0.91706  -0.88019  -0.81951
  Beta  occ. eigenvalues --   -0.78185  -0.67159  -0.65814  -0.63566  -0.62668
  Beta  occ. eigenvalues --   -0.55154  -0.50195  -0.47777  -0.46328  -0.41204
  Beta  occ. eigenvalues --   -0.40499  -0.38772  -0.37312  -0.35745  -0.34275
  Beta  occ. eigenvalues --   -0.31908  -0.30292  -0.30090  -0.29711  -0.28133
  Beta  occ. eigenvalues --   -0.28050  -0.27073  -0.26657  -0.25044  -0.23815
  Beta  occ. eigenvalues --   -0.23152  -0.19041  -0.16052  -0.14359  -0.13854
  Beta  occ. eigenvalues --   -0.13017  -0.10279  -0.10016
  Beta virt. eigenvalues --    0.06108   0.08208   0.08548   0.09645   0.10156
  Beta virt. eigenvalues --    0.11060   0.11505   0.11932   0.12106   0.12469
  Beta virt. eigenvalues --    0.13177   0.13445   0.14181   0.14580   0.14768

 Mulliken charges and spin densities:
               1          2
     1  C   -0.435720  -0.342332
     2  C   -0.172086   0.160784
     3  C   -0.709923   0.522326
     4  C    0.379946  -0.961346
     5  N   -0.093164   0.013618
     6  C   -0.206877   0.039442
     7  O   -0.314352   0.020366
     8  C   -0.873722  -0.014764
     9  C    0.413341   0.345265
    10  S   -0.173923   0.189732
    11  N   -0.038300   0.219508
    12  N   -0.004887   0.035245
    13  N   -0.299085  -0.034488
    14  H   -0.039113   0.164459
    15  H    0.143141   0.012381
    16  H    0.093610   0.046962
    17  H    0.297118  -0.014757
    18  H    0.152085   0.024957
    19  H   -0.019164   0.169907
    20  H    0.088813   0.067011
    21  H   -0.088565   0.243475
    22  H    0.310659  -0.006913
    23  H    0.212989  -0.013996
    24  H    0.229626   0.044673
    25  H    0.147553   0.068485
 Sum of Mulliken charges =  -1.00000   1.00000

 Dipole moment (field-independent basis, Debye):
    X=              5.5566    Y=             -1.7970    Z=              3.5285  Tot=              6.8232
 Quadrupole moment (field-independent basis, Debye-Ang):
   XX=           -132.1279   YY=           -111.0250   ZZ=           -105.7661
   XY=              4.0143   XZ=             -4.8213   YZ=              3.7219

 Summary of Natural Population Analysis:

                                       Natural Population
                Natural  -----------------------------------------------
    Atom  No    Charge         Core      Valence    Rydberg      Total
 -----------------------------------------------------------------------
      C    1   -0.28956      0.99965     2.28361    0.00630     3.28956
      C    2   -0.02587      0.99959     2.01361    0.01267     3.02587
      C    3   -0.01799      0.99957     2.00599    0.01243     3.01799
      C    4   -0.29397      0.99965     2.28755    0.00677     3.29397
      N    5   -0.33009      0.99967     2.81877    0.01165     3.83009
      C    6    0.34528      0.99962     1.63289    0.02221     2.65472
      O    7   -0.31138      0.99988     3.30530    0.00620     4.31138
      C    8   -0.03364      0.99943     2.02028    0.01393     3.03364
      C    9   -0.10253      0.99951     2.09394    0.00908     3.10253
      S   10    0.24174      4.99950     2.73215    0.02661     7.75826
      N   11   -0.09853      0.99982     2.58092    0.01780     3.59853
      N   12   -0.09909      0.99969     2.58206    0.01734     3.59909
      N   13   -0.42643      0.99977     2.91592    0.01075     3.92643
      H   14    0.09314      0.00000     0.40599    0.00087     0.40686
      H   15    0.10389      0.00000     0.39527    0.00084     0.39611
      H   16    0.10094      0.00000     0.39830    0.00076     0.39906
      H   17    0.10316      0.00000     0.39359    0.00325     0.39684
      H   18    0.10714      0.00000     0.39021    0.00265     0.39286
      H   19    0.09268      0.00000     0.40602    0.00131     0.40732
      H   20    0.10415      0.00000     0.39491    0.00094     0.39585
      H   21    0.10310      0.00000     0.39614    0.00076     0.39690
      H   22    0.18303      0.00000     0.31405    0.00293     0.31697
      H   23    0.10219      0.00000     0.39563    0.00218     0.39781
      H   24    0.17983      0.00000     0.31844    0.00173     0.32017
      H   25    0.16881      0.00000     0.32969    0.00150     0.33119
 =======================================================================
   * Total *   -0.00000     16.99534    35.81121    0.19345    53.00000

 Normal termination of Gaussian 16 at Wed Dec  9 23:32:00 2020.
