 Gaussian 16, Revision A.03,

 -----------------------------------------------------------
 # opt freq B3LYP/6-31G(d) empiricaldispersion=gd3bj scf=xqc
 -----------------------------------------------------------

 -------------------------------
 CID_108473606_JID_6417_neutraal
 -------------------------------
 Symbolic Z-matrix:
 Charge =  0 Multiplicity = 1

 SCF Done:  E(RB3LYP) =  -715.683664355     A.U. after   14 cycles
 SCF Done:  E(RB3LYP) =  -715.686055078     A.U. after   12 cycles
 SCF Done:  E(RB3LYP) =  -715.685675842     A.U. after   12 cycles
 SCF Done:  E(RB3LYP) =  -715.687185776     A.U. after   11 cycles
 SCF Done:  E(RB3LYP) =  -715.687431633     A.U. after   11 cycles
 SCF Done:  E(RB3LYP) =  -715.687524015     A.U. after   11 cycles
 SCF Done:  E(RB3LYP) =  -715.687674866     A.U. after   11 cycles
 SCF Done:  E(RB3LYP) =  -715.687701852     A.U. after   10 cycles
 SCF Done:  E(RB3LYP) =  -715.687730438     A.U. after   10 cycles
 SCF Done:  E(RB3LYP) =  -715.687741038     A.U. after   10 cycles
 SCF Done:  E(RB3LYP) =  -715.687756636     A.U. after    9 cycles
 SCF Done:  E(RB3LYP) =  -715.687756652     A.U. after    7 cycles
 SCF Done:  E(RB3LYP) =  -715.687756936     A.U. after    8 cycles
 SCF Done:  E(RB3LYP) =  -715.687756941     A.U. after    8 cycles
 SCF Done:  E(RB3LYP) =  -715.687756902     A.U. after    6 cycles
 SCF Done:  E(RB3LYP) =  -715.687756877     A.U. after    6 cycles
 Optimization completed.
    -- Stationary point found.
 Normal termination of Gaussian 16 at Thu Dec 10 22:54:18 2020.

 --------------------------------------------------------------------
 #N Geom=AllCheck Guess=TCheck SCRF=Check GenChk RB3LYP/6-31G(d) Freq
 --------------------------------------------------------------------

 Structure from the checkpoint file:  "JID_6417.chk"
 -------------------------------
 CID_108473606_JID_6417_neutraal
 -------------------------------
 Charge =  0 Multiplicity = 1

 SCF Done:  E(RB3LYP) =  -715.687756877     A.U. after    1 cycles

  Exact polarizability: 161.002  -1.354 151.533  -1.903   9.707 125.419
 Approx polarizability: 203.872  -3.584 200.408   5.943  17.223 203.523

                      1                      2                      3
                      A                      A                      A
 Frequencies --     18.3350                29.0880                33.5573
 Red. masses --      3.3253                 4.3170                 3.8764
 Frc consts  --      0.0007                 0.0022                 0.0026
 IR Inten    --      0.8150                 1.5309                 0.5793

                      4                      5                      6
                      A                      A                      A
 Frequencies --     46.0425                55.7618                73.0606
 Red. masses --      3.1560                 3.5831                 3.2969
 Frc consts  --      0.0039                 0.0066                 0.0104
 IR Inten    --      0.5960                 2.1494                 1.8502

                      7                      8                      9
                      A                      A                      A
 Frequencies --     84.8497               101.8303               135.1493
 Red. masses --      3.2371                 3.1162                 2.8031
 Frc consts  --      0.0137                 0.0190                 0.0302
 IR Inten    --      2.0355                 1.2265                 3.6091

                     10                     11                     12
                      A                      A                      A
 Frequencies --    153.5089               162.6800               171.7485
 Red. masses --      2.2031                 2.8479                 1.9457
 Frc consts  --      0.0306                 0.0444                 0.0338
 IR Inten    --      0.1920                 2.2764                 1.0481

                     13                     14                     15
                      A                      A                      A
 Frequencies --    200.2602               218.3468               258.0777
 Red. masses --      1.9343                 1.8103                 1.4015
 Frc consts  --      0.0457                 0.0509                 0.0550
 IR Inten    --      2.4533                 1.6444                 0.5432

                     16                     17                     18
                      A                      A                      A
 Frequencies --    307.1202               312.1544               351.8961
 Red. masses --      2.0231                 3.1596                 2.4582
 Frc consts  --      0.1124                 0.1814                 0.1793
 IR Inten    --      1.4248                 2.4621                 2.5398

                     19                     20                     21
                      A                      A                      A
 Frequencies --    381.9551               387.5436               412.3243
 Red. masses --      1.9462                 2.0824                 2.0630
 Frc consts  --      0.1673                 0.1843                 0.2066
 IR Inten    --      0.5660                 2.0059                 1.6565

                     22                     23                     24
                      A                      A                      A
 Frequencies --    434.8727               447.6320               484.3433
 Red. masses --      2.4427                 2.0389                 2.3435
 Frc consts  --      0.2722                 0.2407                 0.3239
 IR Inten    --      2.0503                 4.7653                 3.6686

                     25                     26                     27
                      A                      A                      A
 Frequencies --    541.6556               600.1844               676.6209
 Red. masses --      2.4381                 3.2975                 3.2604
 Frc consts  --      0.4215                 0.6998                 0.8794
 IR Inten    --      6.4989                 9.3852                 5.2685

                     28                     29                     30
                      A                      A                      A
 Frequencies --    733.7720               767.7077               782.5339
 Red. masses --      2.0555                 1.3126                 1.7087
 Frc consts  --      0.6520                 0.4558                 0.6165
 IR Inten    --      2.7152                22.4426                 0.9037

                     31                     32                     33
                      A                      A                      A
 Frequencies --    815.4092               816.0927               819.6096
 Red. masses --      2.3404                 2.5744                 3.8890
 Frc consts  --      0.9168                 1.0102                 1.5392
 IR Inten    --      3.1547                 2.6786                 3.1406

                     34                     35                     36
                      A                      A                      A
 Frequencies --    868.3447               883.6788               893.4524
 Red. masses --      2.5622                 1.6549                 1.5260
 Frc consts  --      1.1383                 0.7614                 0.7177
 IR Inten    --      7.9798                 4.9679                 1.3004

                     37                     38                     39
                      A                      A                      A
 Frequencies --    896.9690               914.8905               948.9564
 Red. masses --      1.5932                 1.5622                 1.7845
 Frc consts  --      0.7552                 0.7704                 0.9468
 IR Inten    --      0.5978                 3.9170                 2.0113

                     40                     41                     42
                      A                      A                      A
 Frequencies --    962.8367               970.2819               981.4504
 Red. masses --      1.8808                 2.0305                 3.1193
 Frc consts  --      1.0273                 1.1263                 1.7703
 IR Inten    --      4.7331                 4.1451                16.2065

                     43                     44                     45
                      A                      A                      A
 Frequencies --    992.7856              1033.6810              1041.4107
 Red. masses --      1.5721                 1.8432                 7.5334
 Frc consts  --      0.9129                 1.1604                 4.8138
 IR Inten    --      1.4480                 5.9108                89.0787

                     46                     47                     48
                      A                      A                      A
 Frequencies --   1066.4405              1072.7030              1086.5000
 Red. masses --      2.0884                 2.2322                 2.0094
 Frc consts  --      1.3994                 1.5134                 1.3975
 IR Inten    --      0.1954                 1.6565                 1.8393

                     49                     50                     51
                      A                      A                      A
 Frequencies --   1094.8687              1129.3726              1133.8590
 Red. masses --      2.2119                 1.8969                 1.7378
 Frc consts  --      1.5622                 1.4255                 1.3164
 IR Inten    --     17.4917                16.8829                13.1942

                     52                     53                     54
                      A                      A                      A
 Frequencies --   1141.7756              1144.2033              1161.9726
 Red. masses --      1.7868                 1.8149                 1.4995
 Frc consts  --      1.3724                 1.4000                 1.1928
 IR Inten    --      2.4333                 7.4920                 4.0736

                     55                     56                     57
                      A                      A                      A
 Frequencies --   1167.4780              1177.5361              1207.1741
 Red. masses --      1.0941                 1.5165                 2.1761
 Frc consts  --      0.8786                 1.2389                 1.8684
 IR Inten    --      0.5464                 2.1207                17.4381

                     58                     59                     60
                      A                      A                      A
 Frequencies --   1234.8933              1256.1452              1275.7110
 Red. masses --      1.5779                 1.2836                 1.3258
 Frc consts  --      1.4177                 1.1933                 1.2713
 IR Inten    --     62.6322                 0.7746                 1.5986

                     61                     62                     63
                      A                      A                      A
 Frequencies --   1281.4547              1292.0077              1308.8478
 Red. masses --      1.3505                 1.3757                 1.6274
 Frc consts  --      1.3066                 1.3530                 1.6426
 IR Inten    --      2.9777                 8.7521                29.6175

                     64                     65                     66
                      A                      A                      A
 Frequencies --   1317.9765              1334.2040              1342.6186
 Red. masses --      1.2840                 1.3468                 1.1148
 Frc consts  --      1.3141                 1.4125                 1.1840
 IR Inten    --      0.5008                 0.4905                 0.1311

                     67                     68                     69
                      A                      A                      A
 Frequencies --   1348.1368              1380.0025              1384.3158
 Red. masses --      1.2891                 1.3541                 1.3652
 Frc consts  --      1.3804                 1.5194                 1.5414
 IR Inten    --     11.2724                15.2973                10.4356

                     70                     71                     72
                      A                      A                      A
 Frequencies --   1388.7599              1403.7823              1407.1408
 Red. masses --      1.3700                 1.6116                 1.4682
 Frc consts  --      1.5568                 1.8711                 1.7128
 IR Inten    --      1.2800                14.4223                 1.0745

                     73                     74                     75
                      A                      A                      A
 Frequencies --   1411.4166              1413.8087              1425.3876
 Red. masses --      1.5518                 1.3236                 1.3560
 Frc consts  --      1.8214                 1.5588                 1.6232
 IR Inten    --      5.2621                 5.9927                12.2779

                     76                     77                     78
                      A                      A                      A
 Frequencies --   1445.7879              1446.8260              1476.2210
 Red. masses --      1.2544                 1.2516                 1.8206
 Frc consts  --      1.5449                 1.5437                 2.3375
 IR Inten    --     16.4077                 1.4294               101.2148

                     79                     80                     81
                      A                      A                      A
 Frequencies --   1506.8780              1510.6142              1512.4334
 Red. masses --      1.1073                 1.1642                 1.0871
 Frc consts  --      1.4814                 1.5653                 1.4651
 IR Inten    --     11.9622                 4.4033                 1.2844

                     82                     83                     84
                      A                      A                      A
 Frequencies --   1519.2171              1519.9832              1526.4591
 Red. masses --      1.1300                 1.0778                 1.0866
 Frc consts  --      1.5366                 1.4671                 1.4918
 IR Inten    --     24.6209                 6.1715                 6.7983

                     85                     86                     87
                      A                      A                      A
 Frequencies --   1529.3864              1532.1472              1537.6929
 Red. masses --      1.0496                 1.0659                 1.0770
 Frc consts  --      1.4465                 1.4743                 1.5004
 IR Inten    --      8.6372                 6.0364                 5.4754

                     88                     89                     90
                      A                      A                      A
 Frequencies --   1541.9159              1548.4510              1555.1763
 Red. masses --      1.0890                 1.0839                 1.0515
 Frc consts  --      1.5255                 1.5313                 1.4984
 IR Inten    --      7.8483                 2.4915                 2.0612

                     91                     92                     93
                      A                      A                      A
 Frequencies --   1568.2430              1731.6227              3024.3719
 Red. masses --      1.1135                 9.4816                 1.0525
 Frc consts  --      1.6136                16.7508                 5.6721
 IR Inten    --      1.7254               258.5044               156.9370

                     94                     95                     96
                      A                      A                      A
 Frequencies --   3026.6452              3035.9557              3036.9958
 Red. masses --      1.0612                 1.0576                 1.0629
 Frc consts  --      5.7278                 5.7435                 5.7763
 IR Inten    --     15.3093                 4.4140                17.2830

                     97                     98                     99
                      A                      A                      A
 Frequencies --   3039.9024              3043.4354              3046.5759
 Red. masses --      1.0622                 1.0425                 1.0619
 Frc consts  --      5.7833                 5.6890                 5.8073
 IR Inten    --     27.3796                34.2561                12.5713

                    100                    101                    102
                      A                      A                      A
 Frequencies --   3049.2321              3059.2304              3062.8587
 Red. masses --      1.0377                 1.0892                 1.0827
 Frc consts  --      5.6849                 6.0061                 5.9841
 IR Inten    --     24.1840                23.2409                35.5775

                    103                    104                    105
                      A                      A                      A
 Frequencies --   3069.8016              3070.2582              3074.2346
 Red. masses --      1.1096                 1.1113                 1.0992
 Frc consts  --      6.1608                 6.1721                 6.1205
 IR Inten    --     32.8803                56.4435                70.7647

                    106                    107                    108
                      A                      A                      A
 Frequencies --   3075.4773              3077.5962              3079.3943
 Red. masses --      1.0889                 1.0810                 1.0748
 Frc consts  --      6.0684                 6.0327                 6.0047
 IR Inten    --     20.4115                20.9517                29.1386

                    109                    110                    111
                      A                      A                      A
 Frequencies --   3081.4470              3104.3622              3112.8641
 Red. masses --      1.0953                 1.1004                 1.1020
 Frc consts  --      6.1276                 6.2483                 6.2917
 IR Inten    --     55.3552                47.5842                73.7881

                    112                    113                    114
                      A                      A                      A
 Frequencies --   3118.7383              3128.4638              3140.8443
 Red. masses --      1.1016                 1.0881                 1.0955
 Frc consts  --      6.3129                 6.2744                 6.3675
 IR Inten    --     35.9803                 7.3684                21.8776

                    115                    116                    117
                      A                      A                      A
 Frequencies --   3147.0309              3166.0496              3169.6828
 Red. masses --      1.0998                 1.0897                 1.0927
 Frc consts  --      6.4177                 6.4359                 6.4680
 IR Inten    --      9.5786                30.8770                 4.2555

 - Thermochemistry -
 -------------------
 Temperature   298.150 Kelvin.  Pressure   1.00000 Atm.
 Atom     1 has atomic number  6 and mass  12.00000

 Molecular mass:   227.18853 amu.
 Principal axes and moments of inertia in atomic units:
                           1         2         3
     Eigenvalues --  3723.492534105.845886493.78241
           X            0.98758   0.15682  -0.00959
           Y           -0.15667   0.98754   0.01488
           Z            0.01180  -0.01320   0.99984
 This molecule is an asymmetric top.
 Rotational symmetry number  1.
 Warning -- assumption of classical behavior for rotation
           may cause significant error
 Rotational temperatures (Kelvin)      0.02326     0.02110     0.01334
 Rotational constants (GHZ):           0.48469     0.43955     0.27792
 Zero-point vibrational energy     981209.7 (Joules/Mol)
                                  234.51476 (Kcal/Mol)
 Warning -- explicit consideration of  26 degrees of freedom as
           vibrations may cause significant error
 Vibrational temperatures:     26.38    41.85    48.28    66.24    80.23
          (Kelvin)            105.12   122.08   146.51   194.45   220.87
                              234.06   247.11   288.13   314.15   371.32
                              441.88   449.12   506.30   549.55   557.59
                              593.24   625.68   644.04   696.86   779.32
                              863.53   973.51  1055.73  1104.56  1125.89
                             1173.19  1174.18  1179.24  1249.35  1271.42
                             1285.48  1290.54  1316.32  1365.34  1385.31
                             1396.02  1412.09  1428.40  1487.24  1498.36
                             1534.37  1543.38  1563.23  1575.27  1624.92
                             1631.37  1642.76  1646.25  1671.82  1679.74
                             1694.21  1736.85  1776.74  1807.31  1835.46
                             1843.73  1858.91  1883.14  1896.27  1919.62
                             1931.73  1939.67  1985.52  1991.72  1998.12
                             2019.73  2024.56  2030.71  2034.16  2050.81
                             2080.17  2081.66  2123.95  2168.06  2173.44
                             2176.05  2185.81  2186.92  2196.23  2200.45
                             2204.42  2212.40  2218.47  2227.88  2237.55
                             2256.35  2491.42  4351.40  4354.67  4368.06
                             4369.56  4373.74  4378.82  4383.34  4387.16
                             4401.55  4406.77  4416.76  4417.42  4423.14
                             4424.93  4427.97  4430.56  4433.51  4466.48
                             4478.72  4487.17  4501.16  4518.97  4527.88
                             4555.24  4560.47

 Zero-point correction=                           0.373723 (Hartree/Particle)
 Thermal correction to Energy=                    0.392195
 Thermal correction to Enthalpy=                  0.393139
 Thermal correction to Gibbs Free Energy=         0.324240
 Sum of electronic and zero-point Energies=           -715.314034
 Sum of electronic and thermal Energies=              -715.295562
 Sum of electronic and thermal Enthalpies=            -715.294618
 Sum of electronic and thermal Free Energies=         -715.363517

                     E (Thermal)             CV                S
                      KCal/Mol        Cal/Mol-Kelvin    Cal/Mol-Kelvin
 Total                  246.106             67.050            145.011
 Electronic               0.000              0.000              0.000
 Translational            0.889              2.981             42.164
 Rotational               0.889              2.981             32.962
 Vibrational            244.329             61.088             69.884
 Vibration     1          0.593              1.986              6.807
 Vibration     2          0.593              1.984              5.891
 Vibration     3          0.594              1.983              5.607
 Vibration     4          0.595              1.979              4.981
 Vibration     5          0.596              1.975              4.602
 Vibration     6          0.599              1.967              4.069
 Vibration     7          0.601              1.960              3.775
 Vibration     8          0.604              1.948              3.419
 Vibration     9          0.613              1.918              2.871
 Vibration    10          0.619              1.899              2.628
 Vibration    11          0.623              1.888              2.518
 Vibration    12          0.626              1.877              2.416
 Vibration    13          0.638              1.840              2.131
 Vibration    14          0.646              1.813              1.973
 Vibration    15          0.667              1.749              1.675
 Vibration    16          0.697              1.660              1.378
 Vibration    17          0.700              1.651              1.351
 Vibration    18          0.728              1.571              1.158
 Vibration    19          0.751              1.509              1.031
 Vibration    20          0.756              1.497              1.010
 Vibration    21          0.776              1.443              0.918
 Vibration    22          0.795              1.394              0.843
 Vibration    23          0.807              1.366              0.803
 Vibration    24          0.840              1.285              0.698
 Vibration    25          0.897              1.158              0.562
 Vibration    26          0.958              1.031              0.449

 Optimization completed.
    -- Stationary point found.
 Normal termination of Gaussian 16 at Thu Dec 10 23:10:39 2020.

 ----------------------------------------------------------------------
 # B3LYP/6-311++G(d,p) empiricaldispersion=gd3bj scf=xqc pop=npa geom=c
 heck
 ----------------------------------------------------------------------

 ---------------------------------------
 CID_108473606_JID_6417_Energie_neutraal
 ---------------------------------------
 Structure from the checkpoint file:  "JID_6417.chk"
 Charge =  0 Multiplicity = 1

 SCF Done:  E(RB3LYP) =  -715.891802262     A.U. after   15 cycles
 Normal termination of Gaussian 16 at Thu Dec 10 23:19:19 2020.

 ----------------------------------------------------------------------
 # B3LYP/6-311++G(d,p) empiricaldispersion=gd3bj scf=xqc pop=npa geom=c
 heck
 ----------------------------------------------------------------------

 -------------------------------------
 CID_108473606_JID_6417_Energie_kation
 -------------------------------------
 Structure from the checkpoint file:  "JID_6417.chk"
 Charge =  1 Multiplicity = 2

 SCF Done:  E(UB3LYP) =  -715.579974357     A.U. after   26 cycles
 Normal termination of Gaussian 16 at Thu Dec 10 23:40:34 2020.
 Gaussian 16:  ES64L-G16RevA.03 25-Dec-2016

 ----------------------------------------------------------------------
 # B3LYP/6-311++G(d,p) empiricaldispersion=gd3bj scf=xqc pop=npa geom=c
 heck
 ----------------------------------------------------------------------

 ------------------------------------
 CID_108473606_JID_6417_Energie_anion
 ------------------------------------
 Structure from the checkpoint file:  "JID_6417.chk"
 Charge = -1 Multiplicity = 2

                         Standard orientation:
 ---------------------------------------------------------------------
 Center     Atomic      Atomic             Coordinates (Angstroms)
 Number     Number       Type             X           Y           Z
 ---------------------------------------------------------------------
      1          6           0        3.897101    0.518751    0.451626
      2          6           0        3.145753    0.101438   -0.815651
      3          6           0        2.717816   -1.371800   -0.835742
      4          6           0        1.677453   -1.763880    0.224600
      5          7           0        0.414847   -1.024519    0.097336
      6          6           0       -0.482608   -1.476632   -0.967862
      7          6           0       -1.313207   -2.712987   -0.584612
      8          6           0       -2.408221   -2.455062    0.459543
      9          6           0       -3.636446   -1.733132   -0.103459
     10          6           0        0.162445   -0.029350    1.007424
     11          8           0        0.945770    0.233837    1.921318
     12          6           0       -1.082560    0.839451    0.863638
     13          6           0       -0.661432    2.275706    0.547853
     14          6           0       -0.181008    2.517936   -0.899500
     15          8           0       -1.384657    3.248874   -1.226749
     16          6           0       -1.812092    3.224498    0.154372
     17          1           0        3.250327    0.451966    1.330377
     18          1           0        4.247954    1.553977    0.371382
     19          1           0        4.776567   -0.117679    0.613499
     20          1           0        2.257930    0.735234   -0.941037
     21          1           0        3.776392    0.285459   -1.695352
     22          1           0        2.332823   -1.622140   -1.833826
     23          1           0        3.598128   -2.011787   -0.683159
     24          1           0        1.460797   -2.835355    0.142575
     25          1           0        2.055296   -1.575258    1.228617
     26          1           0       -1.128663   -0.657611   -1.284897
     27          1           0        0.140204   -1.717489   -1.835842
     28          1           0       -1.768115   -3.115191   -1.500427
     29          1           0       -0.629610   -3.487815   -0.216688
     30          1           0       -2.727409   -3.416442    0.880619
     31          1           0       -1.984672   -1.888239    1.298716
     32          1           0       -4.120038   -2.337234   -0.880362
     33          1           0       -4.376938   -1.540767    0.680395
     34          1           0       -3.380975   -0.767761   -0.554872
     35          1           0       -1.792240    0.493686    0.112117
     36          1           0       -1.594920    0.816318    1.831948
     37          1           0        0.011907    2.638008    1.326710
     38          1           0        0.717040    3.143114   -0.989495
     39          1           0       -0.056126    1.626844   -1.528943
     40          1           0       -2.829284    2.825433    0.262888
     41          1           0       -1.767175    4.221049    0.613776
 ---------------------------------------------------------------------

 SCF Done:  E(UB3LYP) =  -715.880152515     A.U. after   31 cycles

 The electronic state is 2-A.
 Alpha  occ. eigenvalues --  -19.03631 -18.99219 -14.25235 -10.18037 -10.13632
 Alpha  occ. eigenvalues --  -10.13421 -10.11469 -10.10510 -10.10055 -10.09244
 Alpha  occ. eigenvalues --  -10.07499 -10.07446 -10.07374 -10.07312 -10.06503
 Alpha  occ. eigenvalues --  -10.06061  -0.96129  -0.94577  -0.84486  -0.71436
 Alpha  occ. eigenvalues --   -0.70622  -0.69540  -0.64037  -0.63391  -0.61153
 Alpha  occ. eigenvalues --   -0.60124  -0.56515  -0.55412  -0.49321  -0.48977
 Alpha  occ. eigenvalues --   -0.47073  -0.44004  -0.43470  -0.41086  -0.40177
 Alpha  occ. eigenvalues --   -0.39084  -0.37937  -0.36450  -0.36093  -0.35920
 Alpha  occ. eigenvalues --   -0.35532  -0.33856  -0.32299  -0.31699  -0.31093
 Alpha  occ. eigenvalues --   -0.30776  -0.30253  -0.29746  -0.28853  -0.28727
 Alpha  occ. eigenvalues --   -0.28160  -0.26568  -0.24774  -0.24695  -0.24321
 Alpha  occ. eigenvalues --   -0.24031  -0.23874  -0.23485  -0.23202  -0.22290
 Alpha  occ. eigenvalues --   -0.17404  -0.16473  -0.15293   0.04080
 Alpha virt. eigenvalues --    0.05966   0.06206   0.07220   0.07623   0.07862
 Alpha virt. eigenvalues --    0.08498   0.08784   0.09287   0.10005   0.10023
 Alpha virt. eigenvalues --    0.10484   0.10988   0.11476   0.11838   0.12247

  Beta  occ. eigenvalues --  -19.03630 -18.99216 -14.25236 -10.18035 -10.13619
  Beta  occ. eigenvalues --  -10.13412 -10.11447 -10.10497 -10.10054 -10.09233
  Beta  occ. eigenvalues --  -10.07475 -10.07417 -10.07360 -10.07302 -10.06466
  Beta  occ. eigenvalues --  -10.06052  -0.96125  -0.94572  -0.84477  -0.71414
  Beta  occ. eigenvalues --   -0.70592  -0.69509  -0.64000  -0.63362  -0.61126
  Beta  occ. eigenvalues --   -0.60099  -0.56450  -0.55377  -0.49266  -0.48925
  Beta  occ. eigenvalues --   -0.47037  -0.43962  -0.43451  -0.41056  -0.40156
  Beta  occ. eigenvalues --   -0.39055  -0.37913  -0.36418  -0.36056  -0.35891
  Beta  occ. eigenvalues --   -0.35501  -0.33840  -0.32284  -0.31677  -0.31065
  Beta  occ. eigenvalues --   -0.30747  -0.30221  -0.29714  -0.28831  -0.28696
  Beta  occ. eigenvalues --   -0.28136  -0.26550  -0.24737  -0.24658  -0.24301
  Beta  occ. eigenvalues --   -0.23998  -0.23839  -0.23457  -0.23166  -0.22279
  Beta  occ. eigenvalues --   -0.17395  -0.16464  -0.15279
  Beta virt. eigenvalues --    0.06043   0.06643   0.06897   0.07692   0.08082
  Beta virt. eigenvalues --    0.08310   0.08745   0.09089   0.09490   0.10262
  Beta virt. eigenvalues --    0.10460   0.10858   0.11177   0.11782   0.12030

 Mulliken charges and spin densities:
               1          2
     1  C   -0.116753  -0.519943
     2  C   -0.446764   0.395638
     3  C    0.601815  -0.932381
     4  C   -0.092741  -0.063571
     5  N    0.182820   0.020732
     6  C   -0.430970   0.218496
     7  C    1.577041  -2.052327
     8  C   -1.190769   1.107275
     9  C    0.901521  -1.478772
    10  C   -0.441478   0.200459
    11  O   -0.270608   0.005951
    12  C   -0.449712  -0.121571
    13  C    0.398214   0.132225
    14  C   -0.128057  -0.391457
    15  O   -0.176597   0.015222
    16  C   -0.070094  -0.369001
    17  H    0.136632   0.044748
    18  H    0.043894   0.081474
    19  H    0.030082   0.087571
    20  H    0.233544  -0.127947
    21  H   -0.193352   0.367174
    22  H   -0.210972   0.354843
    23  H   -0.198578   0.350075
    24  H   -0.142928   0.301988
    25  H    0.145219   0.046876
    26  H    0.032228   0.099915
    27  H   -0.123085   0.307316
    28  H   -0.466270   0.631175
    29  H   -0.064157   0.195312
    30  H   -0.387148   0.580596
    31  H    0.112725   0.046836
    32  H   -0.212480   0.357317
    33  H   -0.231432   0.373888
    34  H   -0.361620   0.510431
    35  H    1.087890  -1.008641
    36  H   -0.101347   0.315405
    37  H    0.243955   0.042309
    38  H    0.030034   0.125349
    39  H   -0.057356   0.275666
    40  H   -0.100825   0.254406
    41  H   -0.091520   0.218944
 Sum of Mulliken charges =  -1.00000   1.00000

 Dipole moment (field-independent basis, Debye):
    X=              2.4343    Y=              4.3334    Z=              2.5911  Tot=              5.6052
 Quadrupole moment (field-independent basis, Debye-Ang):
   XX=           -174.3331   YY=           -166.1688   ZZ=           -146.5105
   XY=             -6.1782   XZ=             -0.2972   YZ=             -4.2333

 Summary of Natural Population Analysis:

                                       Natural Population
                Natural  -----------------------------------------------
    Atom  No    Charge         Core      Valence    Rydberg      Total
 -----------------------------------------------------------------------
      C    1   -0.29184      0.99966     2.28781    0.00437     3.29184
      C    2   -0.19252      0.99964     2.18479    0.00809     3.19252
      C    3   -0.19215      0.99962     2.18393    0.00860     3.19215
      C    4   -0.08945      0.99959     2.07855    0.01131     3.08945
      N    5   -0.25630      0.99964     2.74449    0.01217     3.75630
      C    6   -0.08532      0.99958     2.07386    0.01187     3.08532
      C    7   -0.19335      0.99961     2.18501    0.00873     3.19335
      C    8   -0.19387      0.99963     2.18594    0.00830     3.19387
      C    9   -0.28487      0.99966     2.28007    0.00514     3.28487
      C   10    0.34805      0.99963     1.63006    0.02227     2.65195
      O   11   -0.33770      0.99988     3.33270    0.00512     4.33770
      C   12   -0.23140      0.99957     2.22212    0.00972     3.23140
      C   13   -0.13157      0.99959     2.12154    0.01044     3.13157
      C   14   -0.00314      0.99962     1.99278    0.01074     3.00314
      O   15   -0.30514      0.99991     3.29661    0.00862     4.30514
      C   16    0.00095      0.99962     1.98912    0.01031     2.99905
      H   17    0.11199      0.00000     0.38688    0.00112     0.38801
      H   18    0.09527      0.00000     0.40388    0.00085     0.40473
      H   19    0.09121      0.00000     0.40783    0.00095     0.40879
      H   20    0.09358      0.00000     0.40479    0.00163     0.40642
      H   21    0.09505      0.00000     0.40386    0.00110     0.40495
      H   22    0.09867      0.00000     0.39958    0.00175     0.40133
      H   23    0.09751      0.00000     0.40140    0.00109     0.40249
      H   24    0.09761      0.00000     0.40112    0.00127     0.40239
      H   25    0.11288      0.00000     0.38581    0.00130     0.38712
      H   26    0.09911      0.00000     0.39908    0.00181     0.40089
      H   27    0.10283      0.00000     0.39541    0.00177     0.39717
      H   28    0.10142      0.00000     0.39668    0.00190     0.39858
      H   29    0.09965      0.00000     0.39873    0.00161     0.40035
      H   30    0.09902      0.00000     0.39984    0.00114     0.40098
      H   31    0.09289      0.00000     0.40522    0.00189     0.40711
      H   32    0.09892      0.00000     0.39979    0.00129     0.40108
      H   33    0.10023      0.00000     0.39853    0.00124     0.39977
      H   34    0.09223      0.00000     0.40635    0.00142     0.40777
      H   35    0.10342      0.00000     0.39419    0.00239     0.39658
      H   36    0.11307      0.00000     0.38569    0.00125     0.38693
      H   37    0.10891      0.00000     0.38991    0.00118     0.39109
      H   38    0.08305      0.00000     0.41558    0.00137     0.41695
      H   39    0.08537      0.00000     0.41268    0.00195     0.41463
      H   40    0.08473      0.00000     0.41355    0.00172     0.41527
      H   41    0.08098      0.00000     0.41760    0.00142     0.41902
 =======================================================================
   * Total *    0.00000     15.99444    46.81336    0.19220    63.00000

 Normal termination of Gaussian 16 at Fri Dec 11 00:05:45 2020.
