 Gaussian 16, Revision A.03,

 -----------------------------------------------------------
 # opt freq B3LYP/6-31G(d) empiricaldispersion=gd3bj scf=xqc
 -----------------------------------------------------------

 -------------------------------
 CID_151366863_JID_1139_neutraal
 -------------------------------
 Symbolic Z-matrix:
 Charge =  0 Multiplicity = 1

 SCF Done:  E(RB3LYP) =  -543.578045650     A.U. after   16 cycles
 SCF Done:  E(RB3LYP) =  -543.585105340     A.U. after   14 cycles
 SCF Done:  E(RB3LYP) =  -543.586695116     A.U. after   14 cycles
 SCF Done:  E(RB3LYP) =  -543.588150709     A.U. after   14 cycles
 SCF Done:  E(RB3LYP) =  -543.588741603     A.U. after   15 cycles
 SCF Done:  E(RB3LYP) =  -543.588972187     A.U. after   14 cycles
 SCF Done:  E(RB3LYP) =  -543.589043958     A.U. after   13 cycles
 SCF Done:  E(RB3LYP) =  -543.589073832     A.U. after   12 cycles
 SCF Done:  E(RB3LYP) =  -543.589080692     A.U. after   11 cycles
 SCF Done:  E(RB3LYP) =  -543.589082130     A.U. after    9 cycles
 SCF Done:  E(RB3LYP) =  -543.589082275     A.U. after    8 cycles
 Optimization completed.
    -- Stationary point found.
 Normal termination of Gaussian 16 at Tue Dec  8 19:13:28 2020.

 --------------------------------------------------------------------
 #N Geom=AllCheck Guess=TCheck SCRF=Check GenChk RB3LYP/6-31G(d) Freq
 --------------------------------------------------------------------

 Structure from the checkpoint file:  "JID_1139.chk"
 -------------------------------
 CID_151366863_JID_1139_neutraal
 -------------------------------
 Charge =  0 Multiplicity = 1

 SCF Done:  E(RB3LYP) =  -543.589082275     A.U. after    1 cycles

  Exact polarizability: 106.971 -11.883  79.977  -2.811   6.032  70.739
 Approx polarizability: 183.605 -32.571 124.716 -18.592  17.398 129.409

                      1                      2                      3
                      A                      A                      A
 Frequencies --     35.3038                63.8425                94.8774
 Red. masses --      8.8333                 3.7125                 4.0282
 Frc consts  --      0.0065                 0.0089                 0.0214
 IR Inten    --      0.9337                 1.1133                 3.4526

                      4                      5                      6
                      A                      A                      A
 Frequencies --    106.3239               169.3557               191.4958
 Red. masses --      4.4683                 7.9020                 1.1506
 Frc consts  --      0.0298                 0.1335                 0.0249
 IR Inten    --      1.4886                 0.4027                 0.1203

                      7                      8                      9
                      A                      A                      A
 Frequencies --    277.8229               348.7411               418.3337
 Red. masses --      4.6008                 4.1158                 6.1107
 Frc consts  --      0.2092                 0.2949                 0.6301
 IR Inten    --      2.2978                 4.4437                 4.2013

                     10                     11                     12
                      A                      A                      A
 Frequencies --    426.2852               472.3393               561.8785
 Red. masses --      4.5617                 7.4536                 4.5939
 Frc consts  --      0.4884                 0.9798                 0.8545
 IR Inten    --     18.6212                13.6295                 8.1888

                     13                     14                     15
                      A                      A                      A
 Frequencies --    578.0725               584.9315               602.4601
 Red. masses --      5.6836                 8.1461                 7.1728
 Frc consts  --      1.1190                 1.6421                 1.5339
 IR Inten    --      7.9117                 5.7450                14.2252

                     16                     17                     18
                      A                      A                      A
 Frequencies --    732.4230               767.6756               804.3178
 Red. masses --      1.2878                 8.8486                 6.0811
 Frc consts  --      0.4070                 3.0724                 2.3179
 IR Inten    --     28.0400                30.5297                14.9669

                     19                     20                     21
                      A                      A                      A
 Frequencies --    832.3087               937.5368               974.2231
 Red. masses --      7.9714                 1.3097                 3.8913
 Frc consts  --      3.2535                 0.6783                 2.1760
 IR Inten    --    253.4067                 9.7577                13.0788

                     22                     23                     24
                      A                      A                      A
 Frequencies --    985.0248              1007.8576              1052.7204
 Red. masses --      1.4201                 5.4533                 3.3624
 Frc consts  --      0.8119                 3.2637                 2.1955
 IR Inten    --     16.1637                89.9169                43.1850

                     25                     26                     27
                      A                      A                      A
 Frequencies --   1081.3262              1127.2829              1177.6509
 Red. masses --      4.0329                 2.1526                 2.1861
 Frc consts  --      2.7783                 1.6117                 1.7863
 IR Inten    --     24.5302                 9.1863                22.0049

                     28                     29                     30
                      A                      A                      A
 Frequencies --   1185.1563              1222.6782              1265.7306
 Red. masses --      1.2835                 1.4986                 3.0461
 Frc consts  --      1.0622                 1.3200                 2.8753
 IR Inten    --      1.9280                 1.0500               167.1330

                     31                     32                     33
                      A                      A                      A
 Frequencies --   1279.1445              1361.6539              1403.4587
 Red. masses --      1.8470                 1.3935                 1.5098
 Frc consts  --      1.7805                 1.5222                 1.7521
 IR Inten    --     81.4890                20.8813                33.7912

                     34                     35                     36
                      A                      A                      A
 Frequencies --   1426.9959              1484.4207              1504.2008
 Red. masses --      1.3875                 1.1465                 1.5955
 Frc consts  --      1.6647                 1.4884                 2.1269
 IR Inten    --      2.9809                 3.8031                 1.4020

                     37                     38                     39
                      A                      A                      A
 Frequencies --   1508.8696              1531.2362              1583.8766
 Red. masses --      1.3801                 1.0592                 5.5832
 Frc consts  --      1.8512                 1.4633                 8.2523
 IR Inten    --     20.2274                16.0866               144.3657

                     40                     41                     42
                      A                      A                      A
 Frequencies --   1689.9484              2255.9901              3044.6786
 Red. masses --      5.8458                13.9381                 1.0309
 Frc consts  --      9.8365                41.7953                 5.6303
 IR Inten    --     82.4026               460.1702                40.5465

                     43                     44                     45
                      A                      A                      A
 Frequencies --   3113.7538              3139.2247              3147.8169
 Red. masses --      1.1081                 1.0885                 1.0904
 Frc consts  --      6.3301                 6.3200                 6.3658
 IR Inten    --     29.9741                31.4439                31.0001

                     46                     47                     48
                      A                      A                      A
 Frequencies --   3163.7564              3233.8233              3254.9023
 Red. masses --      1.1035                 1.0898                 1.0980
 Frc consts  --      6.5074                 6.7150                 6.8537
 IR Inten    --     18.5674                 0.0681                 2.9429

 - Thermochemistry -
 -------------------
 Temperature   298.150 Kelvin.  Pressure   1.00000 Atm.
 Atom     1 has atomic number  6 and mass  12.00000

 Molecular mass:   153.06506 amu.
 Principal axes and moments of inertia in atomic units:
                           1         2         3
     Eigenvalues --  1022.691861840.176012241.80104
           X            0.99910  -0.04216  -0.00350
           Y            0.04227   0.99804   0.04621
           Z            0.00154  -0.04632   0.99893
 This molecule is an asymmetric top.
 Rotational symmetry number  1.
 Warning -- assumption of classical behavior for rotation
           may cause significant error
 Rotational temperatures (Kelvin)      0.08469     0.04707     0.03864
 Rotational constants (GHZ):           1.76470     0.98074     0.80504
 Zero-point vibrational energy     354176.7 (Joules/Mol)
                                   84.65027 (Kcal/Mol)
 Warning -- explicit consideration of  15 degrees of freedom as
           vibrations may cause significant error
 Vibrational temperatures:     50.79    91.86   136.51   152.98   243.67
          (Kelvin)            275.52   399.73   501.76   601.89   613.33
                              679.59   808.42   831.72   841.59   866.81
                             1053.79  1104.51  1157.23  1197.51  1348.91
                             1401.69  1417.23  1450.08  1514.63  1555.79
                             1621.91  1694.38  1705.18  1759.16  1821.10
                             1840.40  1959.12  2019.26  2053.13  2135.75
                             2164.21  2170.93  2203.11  2278.85  2431.46
                             3245.87  4380.61  4480.00  4516.64  4529.01
                             4551.94  4652.75  4683.08

 Zero-point correction=                           0.134899 (Hartree/Particle)
 Thermal correction to Energy=                    0.145071
 Thermal correction to Enthalpy=                  0.146015
 Thermal correction to Gibbs Free Energy=         0.097953
 Sum of electronic and zero-point Energies=           -543.454183
 Sum of electronic and thermal Energies=              -543.444011
 Sum of electronic and thermal Enthalpies=            -543.443067
 Sum of electronic and thermal Free Energies=         -543.491130

                     E (Thermal)             CV                S
                      KCal/Mol        Cal/Mol-Kelvin    Cal/Mol-Kelvin
 Total                   91.033             36.150            101.156
 Electronic               0.000              0.000              0.000
 Translational            0.889              2.981             40.987
 Rotational               0.889              2.981             29.824
 Vibrational             89.256             30.189             30.345
 Vibration     1          0.594              1.982              5.507
 Vibration     2          0.597              1.972              4.335
 Vibration     3          0.603              1.953              3.557
 Vibration     4          0.605              1.944              3.335
 Vibration     5          0.625              1.880              2.443
 Vibration     6          0.634              1.852              2.213
 Vibration     7          0.679              1.715              1.547
 Vibration     8          0.726              1.578              1.172
 Vibration     9          0.781              1.430              0.898
 Vibration    10          0.788              1.413              0.871
 Vibration    11          0.829              1.311              0.731
 Vibration    12          0.918              1.114              0.520
 Vibration    13          0.935              1.079              0.489
 Vibration    14          0.942              1.064              0.476
 Vibration    15          0.961              1.027              0.445

 Optimization completed.
    -- Stationary point found.
 Normal termination of Gaussian 16 at Tue Dec  8 19:16:57 2020.

 ----------------------------------------------------------------------
 # B3LYP/6-311++G(d,p) empiricaldispersion=gd3bj scf=xqc pop=npa geom=c
 heck
 ----------------------------------------------------------------------

 ---------------------------------------
 CID_151366863_JID_1139_Energie_neutraal
 ---------------------------------------
 Structure from the checkpoint file:  "JID_1139.chk"
 Charge =  0 Multiplicity = 1

 SCF Done:  E(RB3LYP) =  -543.740798739     A.U. after   16 cycles
 Normal termination of Gaussian 16 at Tue Dec  8 19:18:09 2020.

 ----------------------------------------------------------------------
 # B3LYP/6-311++G(d,p) empiricaldispersion=gd3bj scf=xqc pop=npa geom=c
 heck
 ----------------------------------------------------------------------

 -------------------------------------
 CID_151366863_JID_1139_Energie_kation
 -------------------------------------
 Structure from the checkpoint file:  "JID_1139.chk"
 Charge =  1 Multiplicity = 2

 SCF Done:  E(UB3LYP) =  -543.437223977     A.U. after   23 cycles
 Normal termination of Gaussian 16 at Tue Dec  8 19:21:15 2020.
 Gaussian 16:  ES64L-G16RevA.03 25-Dec-2016

 ----------------------------------------------------------------------
 # B3LYP/6-311++G(d,p) empiricaldispersion=gd3bj scf=xqc pop=npa geom=c
 heck
 ----------------------------------------------------------------------

 ------------------------------------
 CID_151366863_JID_1139_Energie_anion
 ------------------------------------
 Structure from the checkpoint file:  "JID_1139.chk"
 Charge = -1 Multiplicity = 2

                         Standard orientation:
 ---------------------------------------------------------------------
 Center     Atomic      Atomic             Coordinates (Angstroms)
 Number     Number       Type             X           Y           Z
 ---------------------------------------------------------------------
      1          6           0       -3.157610    0.430496    0.157015
      2          8           0       -1.932237    0.709367   -0.531151
      3          7           0       -0.933815   -0.165533   -0.088998
      4          6           0       -0.532390   -1.128456   -0.962033
      5          6           0        0.536372   -1.906600   -0.638332
      6          6           0        1.146360   -1.641130    0.636812
      7          7           0        0.871180   -0.636446    1.411269
      8          6           0       -0.000865    0.381542    0.884865
      9          7           0        0.769093    1.548992    0.321598
     10          7           0        1.796784    1.259108   -0.300244
     11          7           0        2.769204    1.112630   -0.879229
     12          1           0       -3.870176    1.162826   -0.228408
     13          1           0       -3.043426    0.559262    1.239451
     14          1           0       -3.507007   -0.585889   -0.057814
     15          1           0       -1.140984   -1.233640   -1.853159
     16          1           0        0.863188   -2.718667   -1.273959
     17          1           0        1.882640   -2.348665    1.021743
     18          1           0       -0.584668    0.843466    1.680632
 ---------------------------------------------------------------------

 SCF Done:  E(UB3LYP) =  -543.742212256     A.U. after   30 cycles

 The electronic state is 2-A.
 Alpha  occ. eigenvalues --  -19.04842 -14.34239 -14.24681 -14.24015 -14.21541
 Alpha  occ. eigenvalues --  -14.13496 -10.13823 -10.10437 -10.05782 -10.05026
 Alpha  occ. eigenvalues --  -10.01536  -1.00135  -0.97576  -0.84906  -0.79647
 Alpha  occ. eigenvalues --   -0.72741  -0.64599  -0.58514  -0.54055  -0.49783
 Alpha  occ. eigenvalues --   -0.44586  -0.41615  -0.38533  -0.38113  -0.35846
 Alpha  occ. eigenvalues --   -0.35363  -0.34686  -0.32728  -0.31990  -0.29996
 Alpha  occ. eigenvalues --   -0.28389  -0.26477  -0.24513  -0.22117  -0.18312
 Alpha  occ. eigenvalues --   -0.17546  -0.17011  -0.12728  -0.10733  -0.07344
 Alpha  occ. eigenvalues --    0.05076
 Alpha virt. eigenvalues --    0.07391   0.09488   0.09635   0.10435   0.10921
 Alpha virt. eigenvalues --    0.11662   0.12532   0.13496   0.14179   0.15597
 Alpha virt. eigenvalues --    0.16414   0.17343   0.17927   0.18904   0.19538

  Beta  occ. eigenvalues --  -19.04841 -14.34177 -14.24573 -14.23950 -14.21554
  Beta  occ. eigenvalues --  -14.13127 -10.13797 -10.10391 -10.05335 -10.04815
  Beta  occ. eigenvalues --  -10.01598  -1.00020  -0.97473  -0.84783  -0.79322
  Beta  occ. eigenvalues --   -0.72225  -0.64197  -0.58371  -0.53892  -0.49106
  Beta  occ. eigenvalues --   -0.44379  -0.41440  -0.38287  -0.37858  -0.35692
  Beta  occ. eigenvalues --   -0.35093  -0.34529  -0.32621  -0.31842  -0.29870
  Beta  occ. eigenvalues --   -0.28096  -0.26260  -0.24306  -0.21065  -0.18133
  Beta  occ. eigenvalues --   -0.17000  -0.15876  -0.12403  -0.10334  -0.06360
  Beta virt. eigenvalues --    0.07885   0.09549   0.09704   0.10570   0.11029
  Beta virt. eigenvalues --    0.11583   0.11904   0.12503   0.13713   0.14309
  Beta virt. eigenvalues --    0.15605   0.16432   0.17276   0.17829   0.19288

 Mulliken charges and spin densities:
               1          2
     1  C    0.657187  -0.889813
     2  O    0.078987   0.000178
     3  N   -0.370325   0.183906
     4  C   -0.044908   0.090718
     5  C   -0.149816   0.129077
     6  C   -0.320886   0.143421
     7  N   -0.164195   0.180081
     8  C   -0.380827  -0.197475
     9  N    0.374027  -0.132336
    10  N    0.262326   0.090093
    11  N   -0.624303   0.089192
    12  H   -0.446850   0.591777
    13  H   -0.137611   0.271423
    14  H   -0.046245   0.184257
    15  H   -0.030201   0.127384
    16  H    0.090631   0.032003
    17  H    0.120762  -0.005044
    18  H    0.132247   0.111158
 Sum of Mulliken charges =  -1.00000   1.00000

 Dipole moment (field-independent basis, Debye):
    X=             -0.0780    Y=             -1.1940    Z=             -0.4683  Tot=              1.2850
 Quadrupole moment (field-independent basis, Debye-Ang):
   XX=           -102.4261   YY=            -84.3732   ZZ=            -82.6358
   XY=              3.4093   XZ=             -1.4929   YZ=              3.6372

 Summary of Natural Population Analysis:

                                       Natural Population
                Natural  -----------------------------------------------
    Atom  No    Charge         Core      Valence    Rydberg      Total
 -----------------------------------------------------------------------
      C    1   -0.09449      0.99961     2.08538    0.00950     3.09449
      O    2   -0.21418      0.99990     3.20252    0.01176     4.21418
      N    3   -0.07777      0.99957     2.56270    0.01549     3.57777
      C    4    0.11067      0.99953     1.87704    0.01277     2.88933
      C    5   -0.21527      0.99956     2.20509    0.01062     3.21527
      C    6    0.08297      0.99962     1.90062    0.01678     2.91703
      N    7   -0.23295      0.99971     2.72124    0.01199     3.73295
      C    8    0.15441      0.99959     1.82350    0.02250     2.84559
      N    9   -0.19557      0.99970     2.68169    0.01417     3.69557
      N   10    0.12649      0.99970     2.35631    0.01749     3.37351
      N   11   -0.05854      0.99982     2.54612    0.01260     3.55854
      H   12    0.08949      0.00000     0.40810    0.00240     0.41051
      H   13    0.08208      0.00000     0.41644    0.00148     0.41792
      H   14    0.08105      0.00000     0.41749    0.00146     0.41895
      H   15    0.09326      0.00000     0.40558    0.00116     0.40674
      H   16    0.09967      0.00000     0.39946    0.00087     0.40033
      H   17    0.07736      0.00000     0.42138    0.00127     0.42264
      H   18    0.09132      0.00000     0.40638    0.00230     0.40868
 =======================================================================
   * Total *   -0.00000     10.99631    28.83707    0.16662    40.00000

 Normal termination of Gaussian 16 at Tue Dec  8 19:25:20 2020.
