 Gaussian 16, Revision A.03,

 -----------------------------------------------------------
 # opt freq B3LYP/6-31G(d) empiricaldispersion=gd3bj scf=xqc
 -----------------------------------------------------------

 ------------------------------
 CID_20669466_JID_2378_neutraal
 ------------------------------
 Symbolic Z-matrix:
 Charge =  0 Multiplicity = 1

 SCF Done:  E(RB3LYP) =  -522.483964294     A.U. after   14 cycles
 SCF Done:  E(RB3LYP) =  -522.489062383     A.U. after   12 cycles
 SCF Done:  E(RB3LYP) =  -522.489348217     A.U. after   12 cycles
 SCF Done:  E(RB3LYP) =  -522.490375376     A.U. after   12 cycles
 SCF Done:  E(RB3LYP) =  -522.490916329     A.U. after   11 cycles
 SCF Done:  E(RB3LYP) =  -522.492193704     A.U. after   14 cycles
 SCF Done:  E(RB3LYP) =  -522.492769338     A.U. after   13 cycles
 SCF Done:  E(RB3LYP) =  -522.493452406     A.U. after   11 cycles
 SCF Done:  E(RB3LYP) =  -522.493841454     A.U. after   10 cycles
 SCF Done:  E(RB3LYP) =  -522.494006688     A.U. after   11 cycles
 SCF Done:  E(RB3LYP) =  -522.495645297     A.U. after   10 cycles
 SCF Done:  E(RB3LYP) =  -522.495642788     A.U. after   10 cycles
 SCF Done:  E(RB3LYP) =  -522.495645924     A.U. after   10 cycles
 SCF Done:  E(RB3LYP) =  -522.495645913     A.U. after    7 cycles
 SCF Done:  E(RB3LYP) =  -522.495645995     A.U. after    8 cycles
 Optimization completed.
    -- Stationary point found.
 Normal termination of Gaussian 16 at Wed Dec  9 17:32:19 2020.

 --------------------------------------------------------------------
 #N Geom=AllCheck Guess=TCheck SCRF=Check GenChk RB3LYP/6-31G(d) Freq
 --------------------------------------------------------------------

 Structure from the checkpoint file:  "JID_2378.chk"
 ------------------------------
 CID_20669466_JID_2378_neutraal
 ------------------------------
 Charge =  0 Multiplicity = 1

 SCF Done:  E(RB3LYP) =  -522.495645995     A.U. after    1 cycles

  Exact polarizability: 128.094  -3.437 110.958  -0.315   1.426  96.398
 Approx polarizability: 154.684  -3.582 149.515  -0.249  -0.066 160.072

                      1                      2                      3
                      A                      A                      A
 Frequencies --     23.7210                37.0494                42.8412
 Red. masses --      3.8734                 3.3802                 2.7799
 Frc consts  --      0.0013                 0.0027                 0.0030
 IR Inten    --      1.3689                 1.0445                 1.0735

                      4                      5                      6
                      A                      A                      A
 Frequencies --     82.1960                93.5577               158.5301
 Red. masses --      2.7423                 4.9076                 4.1175
 Frc consts  --      0.0109                 0.0253                 0.0610
 IR Inten    --      1.8162                 4.0883                 3.1754

                      7                      8                      9
                      A                      A                      A
 Frequencies --    169.7826               185.7842               226.1225
 Red. masses --      2.5939                 1.3302                 2.1093
 Frc consts  --      0.0441                 0.0271                 0.0635
 IR Inten    --      0.2984                 0.1386                 0.2097

                     10                     11                     12
                      A                      A                      A
 Frequencies --    239.8954               265.2102               304.9765
 Red. masses --      1.0796                 1.1038                 2.8055
 Frc consts  --      0.0366                 0.0457                 0.1537
 IR Inten    --      0.0695                 0.1146                 1.8231

                     13                     14                     15
                      A                      A                      A
 Frequencies --    320.8145               371.6384               383.8792
 Red. masses --      2.2653                 2.2110                 2.3442
 Frc consts  --      0.1374                 0.1799                 0.2035
 IR Inten    --      2.9995                 1.8733                 2.6697

                     16                     17                     18
                      A                      A                      A
 Frequencies --    419.7637               429.9191               434.1433
 Red. masses --      2.3568                 1.8346                 2.6563
 Frc consts  --      0.2447                 0.1998                 0.2950
 IR Inten    --      0.5425                 0.6386                 0.2714

                     19                     20                     21
                      A                      A                      A
 Frequencies --    486.5686               530.3913               726.5139
 Red. masses --      2.7750                 2.8336                 3.2577
 Frc consts  --      0.3871                 0.4697                 1.0131
 IR Inten    --      2.4288                11.5847                 2.5685

                     22                     23                     24
                      A                      A                      A
 Frequencies --    756.4240               790.2169               805.9127
 Red. masses --      2.7388                 2.9282                 2.7695
 Frc consts  --      0.9233                 1.0773                 1.0598
 IR Inten    --      6.4613                 1.1953                 4.0406

                     25                     26                     27
                      A                      A                      A
 Frequencies --    830.7021               892.5016               905.8600
 Red. masses --      2.4576                 1.9534                 1.5231
 Frc consts  --      0.9992                 0.9168                 0.7364
 IR Inten    --      3.3944                 4.2698                 3.8337

                     28                     29                     30
                      A                      A                      A
 Frequencies --    931.7424               945.0577               967.2312
 Red. masses --      1.5107                 1.1878                 1.8038
 Frc consts  --      0.7727                 0.6250                 0.9943
 IR Inten    --      2.8459                 2.1705                 0.4506

                     31                     32                     33
                      A                      A                      A
 Frequencies --    974.6904               983.4781              1007.5041
 Red. masses --      1.8468                 1.5744                 2.5685
 Frc consts  --      1.0337                 0.8972                 1.5361
 IR Inten    --      0.7759                 0.0546                 2.6285

                     34                     35                     36
                      A                      A                      A
 Frequencies --   1046.4732              1058.8281              1097.4040
 Red. masses --      1.3512                 1.5563                 1.6718
 Frc consts  --      0.8718                 1.0280                 1.1862
 IR Inten    --      9.4705                 1.6575                19.3379

                     37                     38                     39
                      A                      A                      A
 Frequencies --   1108.4027              1124.3450              1136.8919
 Red. masses --      1.3611                 2.2192                 1.6978
 Frc consts  --      0.9852                 1.6529                 1.2929
 IR Inten    --      0.3003                31.8581                 5.7858

                     40                     41                     42
                      A                      A                      A
 Frequencies --   1148.3801              1178.8414              1195.1426
 Red. masses --      1.9088                 1.7768                 1.8078
 Frc consts  --      1.4831                 1.4548                 1.5214
 IR Inten    --      1.6228                53.1068                 7.1079

                     43                     44                     45
                      A                      A                      A
 Frequencies --   1201.2659              1218.8644              1256.8025
 Red. masses --      1.6807                 2.0530                 1.4407
 Frc consts  --      1.4289                 1.7970                 1.3408
 IR Inten    --      7.3981                27.4702                 4.1979

                     46                     47                     48
                      A                      A                      A
 Frequencies --   1272.2171              1283.6998              1308.6124
 Red. masses --      1.4064                 1.4182                 1.6545
 Frc consts  --      1.3412                 1.3769                 1.6694
 IR Inten    --      9.7335                 6.8086                15.1270

                     49                     50                     51
                      A                      A                      A
 Frequencies --   1321.5958              1372.2976              1384.8682
 Red. masses --      1.4384                 1.3485                 1.4767
 Frc consts  --      1.4803                 1.4962                 1.6686
 IR Inten    --     17.3073                 6.1380                55.3638

                     52                     53                     54
                      A                      A                      A
 Frequencies --   1389.6432              1405.6244              1428.5773
 Red. masses --      1.3861                 1.3442                 1.2599
 Frc consts  --      1.5770                 1.5648                 1.5150
 IR Inten    --      3.4899                31.2933                 3.6594

                     55                     56                     57
                      A                      A                      A
 Frequencies --   1431.9514              1450.5522              1464.4196
 Red. masses --      1.2710                 1.2328                 1.6332
 Frc consts  --      1.5355                 1.5282                 2.0636
 IR Inten    --      4.4833                 3.2383                24.8041

                     58                     59                     60
                      A                      A                      A
 Frequencies --   1498.1985              1508.4633              1516.5888
 Red. masses --      1.1109                 1.0914                 1.0522
 Frc consts  --      1.4692                 1.4632                 1.4258
 IR Inten    --      7.0981                 0.3676                 1.0557

                     61                     62                     63
                      A                      A                      A
 Frequencies --   1518.9332              1524.1358              1525.4156
 Red. masses --      1.0494                 1.0721                 1.0926
 Frc consts  --      1.4265                 1.4674                 1.4979
 IR Inten    --      0.7296                 2.0474                 9.4866

                     64                     65                     66
                      A                      A                      A
 Frequencies --   1527.4516              1535.2155              1540.4504
 Red. masses --      1.0506                 1.0540                 1.0454
 Frc consts  --      1.4441                 1.4636                 1.4616
 IR Inten    --      1.4163                 2.4444                14.6043

                     67                     68                     69
                      A                      A                      A
 Frequencies --   1542.7482              1798.4790              2982.0281
 Red. masses --      1.2517                10.3951                 1.0695
 Frc consts  --      1.7553                19.8102                 5.6033
 IR Inten    --      8.0125               110.6923                40.6011

                     70                     71                     72
                      A                      A                      A
 Frequencies --   3037.6088              3039.2982              3044.2259
 Red. masses --      1.0798                 1.0358                 1.0406
 Frc consts  --      5.8704                 5.6374                 5.6816
 IR Inten    --      2.7921                27.2564                20.4005

                     73                     74                     75
                      A                      A                      A
 Frequencies --   3051.8051              3055.5227              3063.5923
 Red. masses --      1.0367                 1.0575                 1.0642
 Frc consts  --      5.6886                 5.8168                 5.8848
 IR Inten    --     20.3925                28.4117                 7.0534

                     76                     77                     78
                      A                      A                      A
 Frequencies --   3081.0059              3103.2757              3105.4580
 Red. masses --      1.0905                 1.1021                 1.1035
 Frc consts  --      6.0993                 6.2533                 6.2701
 IR Inten    --     40.2243                 4.1714                 9.9713

                     79                     80                     81
                      A                      A                      A
 Frequencies --   3109.3957              3112.4847              3114.9653
 Red. masses --      1.0527                 1.1014                 1.1024
 Frc consts  --      5.9964                 6.2865                 6.3024
 IR Inten    --     33.4467                57.2418                46.7557

                     82                     83                     84
                      A                      A                      A
 Frequencies --   3115.4482              3118.9799              3122.4912
 Red. masses --      1.1016                 1.1018                 1.0935
 Frc consts  --      6.2996                 6.3149                 6.2819
 IR Inten    --     10.8638                46.2185                 6.4155

                     85                     86                     87
                      A                      A                      A
 Frequencies --   3127.4424              3138.6001              3193.1743
 Red. masses --      1.1014                 1.0965                 1.1181
 Frc consts  --      6.3470                 6.3640                 6.7170
 IR Inten    --     24.5774                27.0927                22.7840

 - Thermochemistry -
 -------------------
 Temperature   298.150 Kelvin.  Pressure   1.00000 Atm.
 Atom     1 has atomic number  6 and mass  12.00000

 Molecular mass:   169.14666 amu.
 Principal axes and moments of inertia in atomic units:
                           1         2         3
     Eigenvalues --  1193.153453638.988284140.51165
           X            0.99995  -0.00246   0.00968
           Y            0.00221   0.99968   0.02527
           Z           -0.00974  -0.02525   0.99963
 This molecule is an asymmetric top.
 Rotational symmetry number  1.
 Warning -- assumption of classical behavior for rotation
           may cause significant error
 Rotational temperatures (Kelvin)      0.07259     0.02380     0.02092
 Rotational constants (GHZ):           1.51258     0.49595     0.43587
 Zero-point vibrational energy     734287.0 (Joules/Mol)
                                  175.49881 (Kcal/Mol)
 Warning -- explicit consideration of  20 degrees of freedom as
           vibrations may cause significant error
 Vibrational temperatures:     34.13    53.31    61.64   118.26   134.61
          (Kelvin)            228.09   244.28   267.30   325.34   345.16
                              381.58   438.79   461.58   534.70   552.32
                              603.95   618.56   624.64   700.06   763.11
                             1045.29  1088.33  1136.95  1159.53  1195.20
                             1284.11  1303.33  1340.57  1359.73  1391.63
                             1402.36  1415.01  1449.57  1505.64  1523.42
                             1578.92  1594.74  1617.68  1635.73  1652.26
                             1696.09  1719.54  1728.35  1753.67  1808.26
                             1830.44  1846.96  1882.80  1901.48  1974.43
                             1992.52  1999.39  2022.38  2055.40  2060.26
                             2087.02  2106.97  2155.57  2170.34  2182.03
                             2185.41  2192.89  2194.73  2197.66  2208.83
                             2216.36  2219.67  2587.61  4290.47  4370.44
                             4372.87  4379.96  4390.87  4396.22  4407.83
                             4432.88  4464.92  4468.06  4473.73  4478.17
                             4481.74  4482.44  4487.52  4492.57  4499.69
                             4515.75  4594.27

 Zero-point correction=                           0.279675 (Hartree/Particle)
 Thermal correction to Energy=                    0.293879
 Thermal correction to Enthalpy=                  0.294823
 Thermal correction to Gibbs Free Energy=         0.237275
 Sum of electronic and zero-point Energies=           -522.215971
 Sum of electronic and thermal Energies=              -522.201767
 Sum of electronic and thermal Enthalpies=            -522.200823
 Sum of electronic and thermal Free Energies=         -522.258371

                     E (Thermal)             CV                S
                      KCal/Mol        Cal/Mol-Kelvin    Cal/Mol-Kelvin
 Total                  184.412             51.769            121.120
 Electronic               0.000              0.000              0.000
 Translational            0.889              2.981             41.285
 Rotational               0.889              2.981             31.264
 Vibrational            182.634             45.807             48.571
 Vibration     1          0.593              1.985              6.295
 Vibration     2          0.594              1.982              5.411
 Vibration     3          0.595              1.980              5.123
 Vibration     4          0.600              1.961              3.838
 Vibration     5          0.603              1.954              3.584
 Vibration     6          0.621              1.893              2.567
 Vibration     7          0.625              1.880              2.438
 Vibration     8          0.632              1.859              2.269
 Vibration     9          0.650              1.801              1.910
 Vibration    10          0.657              1.779              1.804
 Vibration    11          0.671              1.737              1.627
 Vibration    12          0.696              1.664              1.389
 Vibration    13          0.706              1.634              1.306
 Vibration    14          0.743              1.530              1.073
 Vibration    15          0.753              1.505              1.024
 Vibration    16          0.782              1.427              0.893
 Vibration    17          0.791              1.405              0.859
 Vibration    18          0.795              1.396              0.845
 Vibration    19          0.843              1.280              0.693
 Vibration    20          0.885              1.183              0.586

                           ! Non-Optimized Parameters !
 Normal termination of Gaussian 16 at Wed Dec  9 17:39:54 2020.

 ----------------------------------------------------------------------
 # B3LYP/6-311++G(d,p) empiricaldispersion=gd3bj scf=xqc pop=npa geom=c
 heck
 ----------------------------------------------------------------------

 --------------------------------------
 CID_20669466_JID_2378_Energie_neutraal
 --------------------------------------
 Structure from the checkpoint file:  "JID_2378.chk"
 Charge =  0 Multiplicity = 1

 SCF Done:  E(RB3LYP) =  -522.644738954     A.U. after   14 cycles
 Normal termination of Gaussian 16 at Wed Dec  9 17:44:32 2020.

 ----------------------------------------------------------------------
 # B3LYP/6-311++G(d,p) empiricaldispersion=gd3bj scf=xqc pop=npa geom=c
 heck
 ----------------------------------------------------------------------

 ------------------------------------
 CID_20669466_JID_2378_Energie_kation
 ------------------------------------
 Structure from the checkpoint file:  "JID_2378.chk"
 Charge =  1 Multiplicity = 2

 SCF Done:  E(UB3LYP) =  -522.331525349     A.U. after   21 cycles
 Normal termination of Gaussian 16 at Wed Dec  9 17:52:20 2020.
 Gaussian 16:  ES64L-G16RevA.03 25-Dec-2016

 ----------------------------------------------------------------------
 # B3LYP/6-311++G(d,p) empiricaldispersion=gd3bj scf=xqc pop=npa geom=c
 heck
 ----------------------------------------------------------------------

 -----------------------------------
 CID_20669466_JID_2378_Energie_anion
 -----------------------------------
 Structure from the checkpoint file:  "JID_2378.chk"
 Charge = -1 Multiplicity = 2

                         Standard orientation:
 ---------------------------------------------------------------------
 Center     Atomic      Atomic             Coordinates (Angstroms)
 Number     Number       Type             X           Y           Z
 ---------------------------------------------------------------------
      1          6           0       -2.079457   -2.211517    0.062666
      2          6           0       -2.436339   -0.788427   -0.289810
      3          6           0       -3.585675   -0.082517    0.341777
      4          7           0       -2.213523    0.236978    0.738669
      5          6           0       -1.715377    1.528982    0.274040
      6          6           0       -0.184134    1.579592    0.349371
      7          6           0        0.443825    0.612467   -0.651000
      8          8           0        0.283303    0.778520   -1.848476
      9          6           0        1.272915   -0.547966   -0.129295
     10          6           0        2.787738   -0.229223   -0.140773
     11          6           0        3.141991    0.955656    0.766487
     12          6           0        3.587692   -1.475844    0.252297
     13          1           0       -2.310822   -2.412746    1.113317
     14          1           0       -1.011640   -2.401310   -0.092382
     15          1           0       -2.642415   -2.917440   -0.559264
     16          1           0       -2.208994   -0.489548   -1.314184
     17          1           0       -4.124576    0.647943   -0.262528
     18          1           0       -4.188465   -0.583071    1.097121
     19          1           0       -2.024157    1.754336   -0.761235
     20          1           0       -2.136546    2.304102    0.924700
     21          1           0        0.144182    2.591779    0.084281
     22          1           0        0.139947    1.363473    1.370935
     23          1           0        0.957538   -0.818243    0.885801
     24          1           0        1.092841   -1.402866   -0.789810
     25          1           0        3.045268    0.038220   -1.174604
     26          1           0        2.847263    0.755775    1.804624
     27          1           0        4.222118    1.139675    0.756929
     28          1           0        2.646943    1.879516    0.448537
     29          1           0        3.365418   -2.318870   -0.411546
     30          1           0        4.665202   -1.280926    0.203463
     31          1           0        3.350063   -1.784012    1.278412
 ---------------------------------------------------------------------

 SCF Done:  E(UB3LYP) =  -522.627981624     A.U. after   33 cycles
 SCF Done:  E(UB3LYP) =  -522.627981624     a.u. after    1 cycles

 The electronic state is 2-A.
 Alpha  occ. eigenvalues --  -18.96810 -14.20985 -10.10806 -10.09979 -10.09624
 Alpha  occ. eigenvalues --  -10.08777 -10.06703 -10.05965 -10.05408 -10.05372
 Alpha  occ. eigenvalues --  -10.04681 -10.04589  -0.90427  -0.86630  -0.69981
 Alpha  occ. eigenvalues --   -0.67826  -0.62700  -0.59489  -0.57852  -0.55618
 Alpha  occ. eigenvalues --   -0.50487  -0.47297  -0.45846  -0.41156  -0.38679
 Alpha  occ. eigenvalues --   -0.37228  -0.36195  -0.34906  -0.33304  -0.32106
 Alpha  occ. eigenvalues --   -0.31554  -0.31020  -0.29451  -0.28901  -0.28308
 Alpha  occ. eigenvalues --   -0.27391  -0.26216  -0.25524  -0.25192  -0.24418
 Alpha  occ. eigenvalues --   -0.22795  -0.22006  -0.21580  -0.20647  -0.19941
 Alpha  occ. eigenvalues --   -0.13956  -0.11613   0.05300
 Alpha virt. eigenvalues --    0.06659   0.07498   0.08601   0.09031   0.09339
 Alpha virt. eigenvalues --    0.09394   0.10344   0.11058   0.11445   0.11647
 Alpha virt. eigenvalues --    0.12101   0.13051   0.13458   0.13778   0.14277

  Beta  occ. eigenvalues --  -18.96592 -14.20983 -10.10527 -10.09974 -10.09622
  Beta  occ. eigenvalues --  -10.08726 -10.06670 -10.05947 -10.05395 -10.05394
  Beta  occ. eigenvalues --  -10.04696 -10.04543  -0.89981  -0.86614  -0.69886
  Beta  occ. eigenvalues --   -0.67735  -0.62614  -0.59319  -0.57783  -0.55562
  Beta  occ. eigenvalues --   -0.50423  -0.47233  -0.45731  -0.40888  -0.38535
  Beta  occ. eigenvalues --   -0.37168  -0.36079  -0.34706  -0.33196  -0.31974
  Beta  occ. eigenvalues --   -0.31503  -0.30935  -0.29394  -0.28767  -0.28167
  Beta  occ. eigenvalues --   -0.27306  -0.26183  -0.25245  -0.25069  -0.24094
  Beta  occ. eigenvalues --   -0.22662  -0.21904  -0.21537  -0.20599  -0.19377
  Beta  occ. eigenvalues --   -0.13932  -0.11426
  Beta virt. eigenvalues --    0.07276   0.07711   0.08142   0.09217   0.09566
  Beta virt. eigenvalues --    0.09727   0.10200   0.10853   0.11498   0.11643
  Beta virt. eigenvalues --    0.12190   0.12416   0.13153   0.13562   0.13875

 Mulliken charges and spin densities:
               1          2
     1  C    0.211303  -0.794665
     2  C   -0.238751   0.162027
     3  C   -0.188989  -0.043592
     4  N    0.067557   0.062733
     5  C    0.380703  -0.812070
     6  C   -0.459264   0.071323
     7  C    0.310676  -0.001839
     8  O   -0.278078   0.085888
     9  C    0.026395  -0.523481
    10  C   -0.850357   1.208583
    11  C   -0.413115  -0.248597
    12  C    0.950022  -1.547118
    13  H    0.013377   0.106100
    14  H   -0.378621   0.557484
    15  H   -0.095465   0.207732
    16  H    0.168029   0.027728
    17  H    0.065443   0.028963
    18  H    0.141507   0.000551
    19  H    0.206502  -0.059856
    20  H   -0.447758   0.627040
    21  H   -0.171894   0.345040
    22  H    0.217263  -0.036030
    23  H    0.292236  -0.121298
    24  H    0.111650   0.058884
    25  H    0.180665  -0.009792
    26  H    0.061220   0.076808
    27  H    0.064719   0.073018
    28  H    0.135709   0.012588
    29  H   -0.424428   0.563458
    30  H   -0.380611   0.512500
    31  H   -0.277644   0.409888
 Sum of Mulliken charges =  -1.00000   1.00000

 Dipole moment (field-independent basis, Debye):
    X=             -3.7814    Y=              2.1221    Z=              0.9312  Tot=              4.4350
 Quadrupole moment (field-independent basis, Debye-Ang):
   XX=           -125.9816   YY=           -126.9148   ZZ=           -105.3353
   XY=             15.2759   XZ=              0.9322   YZ=             -1.0496

 Summary of Natural Population Analysis:

                                       Natural Population
                Natural  -----------------------------------------------
    Atom  No    Charge         Core      Valence    Rydberg      Total
 -----------------------------------------------------------------------
      C    1   -0.28970      0.99964     2.28405    0.00600     3.28970
      C    2   -0.02507      0.99961     2.01422    0.01124     3.02507
      C    3   -0.10705      0.99961     2.09881    0.00863     3.10705
      N    4   -0.26287      0.99972     2.75146    0.01169     3.76287
      C    5   -0.07888      0.99961     2.06631    0.01296     3.07888
      C    6   -0.23999      0.99958     2.23037    0.01005     3.23999
      C    7    0.32804      0.99966     1.64974    0.02256     2.67196
      O    8   -0.28720      0.99987     3.28086    0.00647     4.28720
      C    9   -0.23623      0.99957     2.22577    0.01089     3.23623
      C   10   -0.10563      0.99961     2.09769    0.00832     3.10563
      C   11   -0.28527      0.99965     2.28024    0.00538     3.28527
      C   12   -0.28068      0.99965     2.27512    0.00591     3.28068
      H   13    0.09993      0.00000     0.39905    0.00102     0.40007
      H   14    0.10717      0.00000     0.39143    0.00140     0.39283
      H   15    0.09697      0.00000     0.40211    0.00092     0.40303
      H   16    0.10181      0.00000     0.39688    0.00131     0.39819
      H   17    0.09073      0.00000     0.40834    0.00093     0.40927
      H   18    0.09154      0.00000     0.40756    0.00090     0.40846
      H   19    0.08671      0.00000     0.41200    0.00129     0.41329
      H   20    0.09483      0.00000     0.40287    0.00230     0.40517
      H   21    0.11097      0.00000     0.38744    0.00158     0.38903
      H   22    0.10050      0.00000     0.39867    0.00083     0.39950
      H   23    0.09958      0.00000     0.39900    0.00142     0.40042
      H   24    0.11068      0.00000     0.38778    0.00155     0.38932
      H   25    0.09455      0.00000     0.40376    0.00169     0.40545
      H   26    0.09547      0.00000     0.40384    0.00069     0.40453
      H   27    0.09644      0.00000     0.40285    0.00071     0.40356
      H   28    0.09937      0.00000     0.39995    0.00069     0.40063
      H   29    0.10187      0.00000     0.39643    0.00171     0.39813
      H   30    0.09509      0.00000     0.40389    0.00102     0.40491
      H   31    0.09632      0.00000     0.40221    0.00147     0.40368
 =======================================================================
   * Total *   -0.00000     11.99578    34.86070    0.14353    47.00000

 Normal termination of Gaussian 16 at Wed Dec  9 18:06:04 2020.
