 Gaussian 16, Revision A.03,

 -----------------------------------------------------------
 # opt freq B3LYP/6-31G(d) empiricaldispersion=gd3bj scf=xqc
 -----------------------------------------------------------

 -------------------------------
 CID_144842850_JID_2784_neutraal
 -------------------------------
 Symbolic Z-matrix:
 Charge =  0 Multiplicity = 1

 SCF Done:  E(RB3LYP) =  -569.399443702     A.U. after   14 cycles
 SCF Done:  E(RB3LYP) =  -569.403699433     A.U. after   13 cycles
 SCF Done:  E(RB3LYP) =  -569.404818622     A.U. after   12 cycles
 SCF Done:  E(RB3LYP) =  -569.404924310     A.U. after   12 cycles
 SCF Done:  E(RB3LYP) =  -569.405115460     A.U. after   11 cycles
 SCF Done:  E(RB3LYP) =  -569.405139836     A.U. after   10 cycles
 SCF Done:  E(RB3LYP) =  -569.405154257     A.U. after    9 cycles
 SCF Done:  E(RB3LYP) =  -569.405160177     A.U. after    8 cycles
 SCF Done:  E(RB3LYP) =  -569.405167896     A.U. after   10 cycles
 SCF Done:  E(RB3LYP) =  -569.405176463     A.U. after    9 cycles
 SCF Done:  E(RB3LYP) =  -569.405194648     A.U. after    8 cycles
 SCF Done:  E(RB3LYP) =  -569.405194815     A.U. after    7 cycles
 SCF Done:  E(RB3LYP) =  -569.405194905     A.U. after    7 cycles
 SCF Done:  E(RB3LYP) =  -569.405194981     A.U. after    7 cycles
 SCF Done:  E(RB3LYP) =  -569.405195018     A.U. after    7 cycles
 SCF Done:  E(RB3LYP) =  -569.405195025     A.U. after    6 cycles
 Optimization completed.
    -- Stationary point found.
 Normal termination of Gaussian 16 at Wed Dec  9 18:04:01 2020.

 --------------------------------------------------------------------
 #N Geom=AllCheck Guess=TCheck SCRF=Check GenChk RB3LYP/6-31G(d) Freq
 --------------------------------------------------------------------

 Structure from the checkpoint file:  "JID_2784.chk"
 -------------------------------
 CID_144842850_JID_2784_neutraal
 -------------------------------
 Charge =  0 Multiplicity = 1

 SCF Done:  E(RB3LYP) =  -569.405195025     A.U. after    1 cycles

  Exact polarizability: 115.060   0.668  95.834   1.639   7.773  86.215
 Approx polarizability: 157.452  -0.276 141.295  -0.466  21.671 131.541

                      1                      2                      3
                      A                      A                      A
 Frequencies --     45.5780                72.5446                85.7861
 Red. masses --      3.4488                 2.1037                 1.8206
 Frc consts  --      0.0042                 0.0065                 0.0079
 IR Inten    --      1.8401                 0.3377                 0.6389

                      4                      5                      6
                      A                      A                      A
 Frequencies --    109.4810               121.9847               156.0585
 Red. masses --      1.2703                 2.0623                 2.1885
 Frc consts  --      0.0090                 0.0181                 0.0314
 IR Inten    --      0.1192                 0.8002                 0.7321

                      7                      8                      9
                      A                      A                      A
 Frequencies --    167.5245               211.5717               226.8990
 Red. masses --      2.2885                 3.5996                 1.1596
 Frc consts  --      0.0378                 0.0949                 0.0352
 IR Inten    --      5.1588                 2.2253                 2.0801

                     10                     11                     12
                      A                      A                      A
 Frequencies --    239.8176               276.7707               306.4509
 Red. masses --      1.2994                 2.7069                 3.5292
 Frc consts  --      0.0440                 0.1222                 0.1953
 IR Inten    --      2.5446                 2.7973                 2.0461

                     13                     14                     15
                      A                      A                      A
 Frequencies --    352.1482               360.0546               401.6186
 Red. masses --      3.3720                 2.8127                 5.4690
 Frc consts  --      0.2464                 0.2148                 0.5197
 IR Inten    --      3.0951                 3.7572                 8.0781

                     16                     17                     18
                      A                      A                      A
 Frequencies --    433.0157               511.7559               599.6400
 Red. masses --      2.6816                 3.4620                 4.2458
 Frc consts  --      0.2962                 0.5342                 0.8995
 IR Inten    --      3.9186                 3.7791                 4.9378

                     19                     20                     21
                      A                      A                      A
 Frequencies --    671.0440               697.6192               751.7919
 Red. masses --      5.2396                 4.4911                 6.6565
 Frc consts  --      1.3901                 1.2878                 2.2166
 IR Inten    --      4.8608                14.4701                12.1002

                     22                     23                     24
                      A                      A                      A
 Frequencies --    881.6463               885.3179               912.0419
 Red. masses --      3.6096                 1.5294                 4.6546
 Frc consts  --      1.6531                 0.7062                 2.2812
 IR Inten    --     10.7460                10.6171                16.6273

                     25                     26                     27
                      A                      A                      A
 Frequencies --    944.9832               999.2238              1038.1008
 Red. masses --      4.0233                 9.0722                 2.3881
 Frc consts  --      2.1168                 5.3369                 1.5163
 IR Inten    --     29.9054                 5.8351                41.5654

                     28                     29                     30
                      A                      A                      A
 Frequencies --   1069.5682              1077.0832              1110.5255
 Red. masses --      2.1259                 1.5680                 6.3807
 Frc consts  --      1.4329                 1.0717                 4.6364
 IR Inten    --     88.2502                15.8296               152.3388

                     31                     32                     33
                      A                      A                      A
 Frequencies --   1140.0742              1162.5963              1172.7356
 Red. masses --      1.2936                 1.3218                 1.7177
 Frc consts  --      0.9906                 1.0526                 1.3919
 IR Inten    --      2.2074                 2.9176                22.6604

                     34                     35                     36
                      A                      A                      A
 Frequencies --   1192.4135              1202.8397              1224.4325
 Red. masses --      1.2907                 1.5608                 1.7003
 Frc consts  --      1.0812                 1.3305                 1.5019
 IR Inten    --      1.8888                12.2662                21.0976

                     37                     38                     39
                      A                      A                      A
 Frequencies --   1226.4091              1249.8725              1315.0794
 Red. masses --      2.1745                 3.1695                 3.3118
 Frc consts  --      1.9270                 2.9172                 3.3745
 IR Inten    --     11.8650                36.9008                30.4030

                     40                     41                     42
                      A                      A                      A
 Frequencies --   1317.1010              1327.0526              1392.9026
 Red. masses --      2.7960                 3.8411                 1.4314
 Frc consts  --      2.8577                 3.9855                 1.6363
 IR Inten    --     19.8933                 2.6781                35.1435

                     43                     44                     45
                      A                      A                      A
 Frequencies --   1397.2541              1430.9893              1462.1004
 Red. masses --      1.4409                 2.9701                 1.1855
 Frc consts  --      1.6574                 3.5834                 1.4931
 IR Inten    --     17.4068                24.0545                 1.0720

                     46                     47                     48
                      A                      A                      A
 Frequencies --   1468.9479              1486.3655              1492.8988
 Red. masses --      1.4277                 1.1404                 1.3942
 Frc consts  --      1.8151                 1.4844                 1.8308
 IR Inten    --      0.8411                 4.0598                11.1804

                     49                     50                     51
                      A                      A                      A
 Frequencies --   1510.7581              1513.6297              1517.3689
 Red. masses --      1.4863                 1.0560                 1.0854
 Frc consts  --      1.9988                 1.4255                 1.4724
 IR Inten    --     17.7378                 1.6357                 3.0187

                     52                     53                     54
                      A                      A                      A
 Frequencies --   1524.9109              1527.2335              1534.6311
 Red. masses --      1.1207                 1.1176                 1.2931
 Frc consts  --      1.5355                 1.5358                 1.7942
 IR Inten    --      8.6442                 4.4316                29.4660

                     55                     56                     57
                      A                      A                      A
 Frequencies --   1536.1767              1542.5147              1548.6852
 Red. masses --      1.1042                 1.0575                 1.0555
 Frc consts  --      1.5352                 1.4824                 1.4916
 IR Inten    --      1.4381                15.3789                12.4852

                     58                     59                     60
                      A                      A                      A
 Frequencies --   1563.9490              2920.4061              2938.5988
 Red. masses --      3.8582                 1.0804                 1.0622
 Frc consts  --      5.5601                 5.4288                 5.4043
 IR Inten    --     10.4792                40.6358                33.0114

                     61                     62                     63
                      A                      A                      A
 Frequencies --   2949.0928              3047.1641              3071.8062
 Red. masses --      1.0633                 1.0353                 1.0401
 Frc consts  --      5.4486                 5.6637                 5.7824
 IR Inten    --    162.8159                35.9385                31.0789

                     64                     65                     66
                      A                      A                      A
 Frequencies --   3101.7769              3105.9213              3118.4002
 Red. masses --      1.0770                 1.0737                 1.0996
 Frc consts  --      6.1047                 6.1029                 6.3001
 IR Inten    --      9.4977                60.9433                31.3735

                     67                     68                     69
                      A                      A                      A
 Frequencies --   3153.3788              3158.3195              3169.1241
 Red. masses --      1.0964                 1.1060                 1.0997
 Frc consts  --      6.4233                 6.5000                 6.5075
 IR Inten    --      6.0644                22.9534                13.6744

                     70                     71                     72
                      A                      A                      A
 Frequencies --   3187.9423              3193.3405              3276.9351
 Red. masses --      1.0967                 1.1061                 1.0970
 Frc consts  --      6.5669                 6.6456                 6.9405
 IR Inten    --      3.2520                 1.1463                 8.4264

 - Thermochemistry -
 -------------------
 Temperature   298.150 Kelvin.  Pressure   1.00000 Atm.
 Atom     1 has atomic number  6 and mass  12.00000

 Molecular mass:   170.11676 amu.
 Principal axes and moments of inertia in atomic units:
                           1         2         3
     Eigenvalues --  1228.870952476.240802888.84984
           X            0.99962  -0.02764  -0.00083
           Y            0.02762   0.99936  -0.02288
           Z            0.00146   0.02284   0.99974
 This molecule is an asymmetric top.
 Rotational symmetry number  1.
 Warning -- assumption of classical behavior for rotation
           may cause significant error
 Rotational temperatures (Kelvin)      0.07048     0.03498     0.02998
 Rotational constants (GHZ):           1.46862     0.72882     0.62473
 Zero-point vibrational energy     586719.1 (Joules/Mol)
                                  140.22923 (Kcal/Mol)
 Warning -- explicit consideration of  18 degrees of freedom as
           vibrations may cause significant error
 Vibrational temperatures:     65.58   104.38   123.43   157.52   175.51
          (Kelvin)            224.53   241.03   304.40   326.46   345.04
                              398.21   440.91   506.66   518.04   577.84
                              623.01   736.30   862.75   965.48  1003.72
                             1081.66  1268.49  1273.78  1312.22  1359.62
                             1437.66  1493.60  1538.87  1549.68  1597.80
                             1640.31  1672.72  1687.30  1715.62  1730.62
                             1761.69  1764.53  1798.29  1892.11  1895.01
                             1909.33  2004.08  2010.34  2058.87  2103.64
                             2113.49  2138.55  2147.95  2173.64  2177.78
                             2183.16  2194.01  2197.35  2207.99  2210.22
                             2219.33  2228.21  2250.17  4201.81  4227.99
                             4243.09  4384.19  4419.64  4462.77  4468.73
                             4486.68  4537.01  4544.12  4559.66  4586.74
                             4594.50  4714.78

 Zero-point correction=                           0.223470 (Hartree/Particle)
 Thermal correction to Energy=                    0.236397
 Thermal correction to Enthalpy=                  0.237341
 Thermal correction to Gibbs Free Energy=         0.183946
 Sum of electronic and zero-point Energies=           -569.181726
 Sum of electronic and thermal Energies=              -569.168798
 Sum of electronic and thermal Enthalpies=            -569.167854
 Sum of electronic and thermal Free Energies=         -569.221249

                     E (Thermal)             CV                S
                      KCal/Mol        Cal/Mol-Kelvin    Cal/Mol-Kelvin
 Total                  148.341             45.953            112.380
 Electronic               0.000              0.000              0.000
 Translational            0.889              2.981             41.302
 Rotational               0.889              2.981             30.553
 Vibrational            146.564             39.991             40.525
 Vibration     1          0.595              1.979              5.001
 Vibration     2          0.599              1.967              4.083
 Vibration     3          0.601              1.959              3.754
 Vibration     4          0.606              1.942              3.278
 Vibration     5          0.609              1.931              3.069
 Vibration     6          0.620              1.896              2.597
 Vibration     7          0.624              1.882              2.463
 Vibration     8          0.643              1.823              2.030
 Vibration     9          0.651              1.800              1.903
 Vibration    10          0.657              1.780              1.804
 Vibration    11          0.678              1.716              1.554
 Vibration    12          0.697              1.661              1.381
 Vibration    13          0.729              1.571              1.157
 Vibration    14          0.735              1.555              1.122
 Vibration    15          0.767              1.467              0.957
 Vibration    16          0.794              1.398              0.849
 Vibration    17          0.867              1.224              0.629
 Vibration    18          0.958              1.033              0.450

 Optimization completed.
    -- Stationary point found.
 Normal termination of Gaussian 16 at Wed Dec  9 18:11:04 2020.

 ----------------------------------------------------------------------
 # B3LYP/6-311++G(d,p) empiricaldispersion=gd3bj scf=xqc pop=npa geom=c
 heck
 ----------------------------------------------------------------------

 ---------------------------------------
 CID_144842850_JID_2784_Energie_neutraal
 ---------------------------------------
 Structure from the checkpoint file:  "JID_2784.chk"
 Charge =  0 Multiplicity = 1

 SCF Done:  E(RB3LYP) =  -569.563355088     A.U. after   15 cycles
 Normal termination of Gaussian 16 at Wed Dec  9 18:14:20 2020.

 ----------------------------------------------------------------------
 # B3LYP/6-311++G(d,p) empiricaldispersion=gd3bj scf=xqc pop=npa geom=c
 heck
 ----------------------------------------------------------------------

 -------------------------------------
 CID_144842850_JID_2784_Energie_kation
 -------------------------------------
 Structure from the checkpoint file:  "JID_2784.chk"
 Charge =  1 Multiplicity = 2

 SCF Done:  E(UB3LYP) =  -569.252938558     A.U. after   23 cycles
 Normal termination of Gaussian 16 at Wed Dec  9 18:21:18 2020.
 Gaussian 16:  ES64L-G16RevA.03 25-Dec-2016

 ----------------------------------------------------------------------
 # B3LYP/6-311++G(d,p) empiricaldispersion=gd3bj scf=xqc pop=npa geom=c
 heck
 ----------------------------------------------------------------------

 ------------------------------------
 CID_144842850_JID_2784_Energie_anion
 ------------------------------------
 Structure from the checkpoint file:  "JID_2784.chk"
 Charge = -1 Multiplicity = 2

                         Standard orientation:
 ---------------------------------------------------------------------
 Center     Atomic      Atomic             Coordinates (Angstroms)
 Number     Number       Type             X           Y           Z
 ---------------------------------------------------------------------
      1          6           0       -1.954375    1.357842    1.402965
      2          7           0       -1.769230    0.245703    0.485880
      3          6           0       -0.618621   -0.299646    0.014754
      4          7           0       -0.907395   -1.284712   -0.828825
      5          6           0       -2.268331   -1.307741   -0.820393
      6          7           0       -2.842046   -0.399557   -0.043200
      7          6           0        0.725713    0.291239    0.375907
      8          7           0        1.848912   -0.547710    0.004574
      9          6           0        3.105293    0.081459    0.406445
     10          6           0        1.762610   -1.905351    0.539696
     11          8           0        0.839224    1.589290   -0.198024
     12          6           0        0.784998    1.608732   -1.626155
     13          1           0       -2.961414    1.744820    1.248728
     14          1           0       -1.848468    1.028658    2.442084
     15          1           0       -1.215530    2.129207    1.180644
     16          1           0       -2.851573   -2.006333   -1.404279
     17          1           0        0.728249    0.504485    1.463081
     18          1           0        3.210854    0.151374    1.506716
     19          1           0        3.937828   -0.513502    0.019885
     20          1           0        3.168857    1.088891   -0.005919
     21          1           0        1.717393   -1.923415    1.646212
     22          1           0        0.889674   -2.413678    0.133297
     23          1           0        2.658501   -2.453972    0.234002
     24          1           0        1.534499    0.939109   -2.058258
     25          1           0       -0.205655    1.313239   -1.993471
     26          1           0        0.987579    2.641528   -1.916854
 ---------------------------------------------------------------------

 SCF Done:  E(UB3LYP) =  -569.547169992     A.U. after   32 cycles

 The electronic state is 2-A.
 Alpha  occ. eigenvalues --  -19.03593 -14.30504 -14.24446 -14.21291 -14.21111
 Alpha  occ. eigenvalues --  -10.16632 -10.14582 -10.12454 -10.10962 -10.10955
 Alpha  occ. eigenvalues --  -10.08279 -10.08230  -0.98674  -0.95111  -0.82633
 Alpha  occ. eigenvalues --   -0.80876  -0.75142  -0.64660  -0.62022  -0.60532
 Alpha  occ. eigenvalues --   -0.56861  -0.53933  -0.50766  -0.47143  -0.43485
 Alpha  occ. eigenvalues --   -0.41319  -0.39901  -0.38386  -0.37489  -0.34829
 Alpha  occ. eigenvalues --   -0.34573  -0.33242  -0.32638  -0.31350  -0.31300
 Alpha  occ. eigenvalues --   -0.29291  -0.28891  -0.28441  -0.26747  -0.23786
 Alpha  occ. eigenvalues --   -0.22948  -0.19617  -0.18922  -0.18218  -0.16750
 Alpha  occ. eigenvalues --   -0.12944   0.04725
 Alpha virt. eigenvalues --    0.07031   0.07478   0.07894   0.08259   0.09296
 Alpha virt. eigenvalues --    0.09451   0.10608   0.10964   0.11516   0.12339
 Alpha virt. eigenvalues --    0.12366   0.12833   0.13093   0.13473   0.14364

  Beta  occ. eigenvalues --  -19.03587 -14.30502 -14.24438 -14.21276 -14.21107
  Beta  occ. eigenvalues --  -10.16616 -10.14581 -10.12453 -10.10930 -10.10904
  Beta  occ. eigenvalues --  -10.08246 -10.08206  -0.98665  -0.95094  -0.82609
  Beta  occ. eigenvalues --   -0.80864  -0.75128  -0.64617  -0.61969  -0.60483
  Beta  occ. eigenvalues --   -0.56817  -0.53914  -0.50719  -0.47088  -0.43435
  Beta  occ. eigenvalues --   -0.41293  -0.39865  -0.38357  -0.37448  -0.34798
  Beta  occ. eigenvalues --   -0.34532  -0.33211  -0.32602  -0.31310  -0.31251
  Beta  occ. eigenvalues --   -0.29250  -0.28860  -0.28406  -0.26717  -0.23762
  Beta  occ. eigenvalues --   -0.22915  -0.19603  -0.18908  -0.18203  -0.16737
  Beta  occ. eigenvalues --   -0.12858
  Beta virt. eigenvalues --    0.07074   0.07993   0.08043   0.08356   0.08506
  Beta virt. eigenvalues --    0.09778   0.10185   0.11284   0.11390   0.11944
  Beta virt. eigenvalues --    0.12590   0.12725   0.13037   0.13763   0.13897

 Mulliken charges and spin densities:
               1          2
     1  C    1.665047  -1.952111
     2  N   -0.025480   0.217103
     3  C   -0.117218   0.219973
     4  N   -0.101635   0.056914
     5  C    0.044993   0.113683
     6  N   -0.107450  -0.036176
     7  C   -1.410938  -0.157813
     8  N    0.053071   0.142773
     9  C    0.788040  -1.059094
    10  C    0.307662  -0.656781
    11  O   -0.046393   0.016977
    12  C    0.609034  -0.825308
    13  H   -0.285394   0.460373
    14  H   -0.813442   1.009182
    15  H   -0.249874   0.455503
    16  H    0.037260   0.119133
    17  H   -0.072478   0.295675
    18  H   -0.356805   0.484236
    19  H   -0.220795   0.364268
    20  H   -0.206991   0.342853
    21  H   -0.202513   0.328824
    22  H    0.032065   0.129000
    23  H   -0.090970   0.218250
    24  H    0.036193   0.119318
    25  H    0.006060   0.153632
    26  H   -0.271050   0.439614
 Sum of Mulliken charges =  -1.00000   1.00000

 Dipole moment (field-independent basis, Debye):
    X=             -1.3954    Y=             -2.9419    Z=             -4.5761  Tot=              5.6163
 Quadrupole moment (field-independent basis, Debye-Ang):
   XX=           -129.2042   YY=           -113.5522   ZZ=           -118.5052
   XY=              5.4470   XZ=              4.5865   YZ=             -2.8423

 Summary of Natural Population Analysis:

                                       Natural Population
                Natural  -----------------------------------------------
    Atom  No    Charge         Core      Valence    Rydberg      Total
 -----------------------------------------------------------------------
      C    1   -0.17991      0.99963     2.17172    0.00857     3.17991
      N    2   -0.10861      0.99961     2.59495    0.01405     3.60861
      C    3    0.18658      0.99956     1.79589    0.01796     2.81342
      N    4   -0.26448      0.99969     2.75587    0.00891     3.76448
      C    5    0.08482      0.99969     1.89715    0.01835     2.91518
      N    6   -0.15598      0.99973     2.64548    0.01077     3.65598
      C    7    0.13957      0.99951     1.84223    0.01868     2.86043
      N    8   -0.27957      0.99971     2.76724    0.01262     3.77957
      C    9   -0.17987      0.99964     2.17146    0.00876     3.17987
      C   10   -0.18299      0.99964     2.17493    0.00841     3.18299
      O   11   -0.29952      0.99989     3.28925    0.01038     4.29952
      C   12   -0.10555      0.99959     2.09668    0.00928     3.10555
      H   13    0.10923      0.00000     0.38895    0.00182     0.39077
      H   14    0.10586      0.00000     0.39055    0.00359     0.39414
      H   15    0.11229      0.00000     0.38555    0.00215     0.38771
      H   16    0.09071      0.00000     0.40850    0.00079     0.40929
      H   17    0.09266      0.00000     0.40389    0.00346     0.40734
      H   18    0.08457      0.00000     0.41365    0.00178     0.41543
      H   19    0.09550      0.00000     0.40328    0.00122     0.40450
      H   20    0.10334      0.00000     0.39519    0.00147     0.39666
      H   21    0.08229      0.00000     0.41633    0.00138     0.41771
      H   22    0.10904      0.00000     0.38912    0.00184     0.39096
      H   23    0.09531      0.00000     0.40368    0.00101     0.40469
      H   24    0.09044      0.00000     0.40811    0.00146     0.40956
      H   25    0.08281      0.00000     0.41586    0.00133     0.41719
      H   26    0.09148      0.00000     0.40736    0.00117     0.40852
 =======================================================================
   * Total *   -0.00000     11.99589    33.83287    0.17123    46.00000

 Normal termination of Gaussian 16 at Wed Dec  9 18:30:29 2020.
