 Gaussian 16, Revision A.03,

 -----------------------------------------------------------
 # opt freq B3LYP/6-31G(d) empiricaldispersion=gd3bj scf=xqc
 -----------------------------------------------------------

 -------------------------------
 CID_123979612_JID_3936_neutraal
 -------------------------------
 Symbolic Z-matrix:
 Charge =  0 Multiplicity = 1

 SCF Done:  E(RB3LYP) =  -511.103808466     A.U. after   13 cycles
 SCF Done:  E(RB3LYP) =  -511.103955777     A.U. after   11 cycles
 SCF Done:  E(RB3LYP) =  -511.104308131     A.U. after   11 cycles
 SCF Done:  E(RB3LYP) =  -511.105119289     A.U. after   11 cycles
 SCF Done:  E(RB3LYP) =  -511.105496571     A.U. after   10 cycles
 SCF Done:  E(RB3LYP) =  -511.105562976     A.U. after   10 cycles
 SCF Done:  E(RB3LYP) =  -511.105597956     A.U. after    9 cycles
 SCF Done:  E(RB3LYP) =  -511.105608075     A.U. after   10 cycles
 SCF Done:  E(RB3LYP) =  -511.105612533     A.U. after    8 cycles
 SCF Done:  E(RB3LYP) =  -511.105616245     A.U. after    9 cycles
 SCF Done:  E(RB3LYP) =  -511.105617870     A.U. after    9 cycles
 SCF Done:  E(RB3LYP) =  -511.105618510     A.U. after    8 cycles
 SCF Done:  E(RB3LYP) =  -511.105618876     A.U. after    8 cycles
 SCF Done:  E(RB3LYP) =  -511.105618903     A.U. after    7 cycles
 SCF Done:  E(RB3LYP) =  -511.105618869     A.U. after    7 cycles
 SCF Done:  E(RB3LYP) =  -511.105618928     A.U. after    7 cycles
 Optimization completed.
    -- Stationary point found.
 Normal termination of Gaussian 16 at Mon Dec 14 13:14:42 2020.

 --------------------------------------------------------------------
 #N Geom=AllCheck Guess=TCheck SCRF=Check GenChk RB3LYP/6-31G(d) Freq
 --------------------------------------------------------------------

 Structure from the checkpoint file:  "JID_3936.chk"
 -------------------------------
 CID_123979612_JID_3936_neutraal
 -------------------------------
 Charge =  0 Multiplicity = 1

 SCF Done:  E(RB3LYP) =  -511.105618928     A.U. after    1 cycles

  Exact polarizability: 140.571   4.267 147.279  -2.200   3.649 122.217
 Approx polarizability: 176.008   2.720 207.226  -2.930  11.305 183.605

                      1                      2                      3
                      A                      A                      A
 Frequencies --     22.8869                40.1519                45.1448
 Red. masses --      2.9026                 2.8786                 3.2502
 Frc consts  --      0.0009                 0.0027                 0.0039
 IR Inten    --      0.0130                 0.0108                 0.0054

                      4                      5                      6
                      A                      A                      A
 Frequencies --     62.9987                96.4171               132.5458
 Red. masses --      1.9885                 2.0620                 1.9967
 Frc consts  --      0.0046                 0.0113                 0.0207
 IR Inten    --      0.0241                 0.0092                 0.6969

                      7                      8                      9
                      A                      A                      A
 Frequencies --    157.0724               186.2375               201.4108
 Red. masses --      2.5221                 2.3756                 1.4572
 Frc consts  --      0.0367                 0.0485                 0.0348
 IR Inten    --      0.1180                 0.6722                 1.2420

                     10                     11                     12
                      A                      A                      A
 Frequencies --    217.2399               225.4207               245.7047
 Red. masses --      1.0390                 1.7891                 1.4044
 Frc consts  --      0.0289                 0.0536                 0.0500
 IR Inten    --      0.0427                 0.0508                 0.0111

                     13                     14                     15
                      A                      A                      A
 Frequencies --    270.5175               282.0190               296.7938
 Red. masses --      1.4707                 1.6094                 2.1439
 Frc consts  --      0.0634                 0.0754                 0.1113
 IR Inten    --      0.0354                 0.0721                 0.3643

                     16                     17                     18
                      A                      A                      A
 Frequencies --    304.3094               326.6860               349.9244
 Red. masses --      1.2324                 1.6822                 2.3605
 Frc consts  --      0.0672                 0.1058                 0.1703
 IR Inten    --      0.0509                 0.1733                 0.0497

                     19                     20                     21
                      A                      A                      A
 Frequencies --    363.2223               383.7820               413.8906
 Red. masses --      2.4378                 2.2210                 2.1990
 Frc consts  --      0.1895                 0.1927                 0.2219
 IR Inten    --      0.3132                 0.0636                 0.1716

                     22                     23                     24
                      A                      A                      A
 Frequencies --    437.1707               451.9698               484.3079
 Red. masses --      2.4148                 2.3635                 2.3404
 Frc consts  --      0.2719                 0.2845                 0.3234
 IR Inten    --      0.9380                 0.5635                 0.2050

                     25                     26                     27
                      A                      A                      A
 Frequencies --    523.6997               582.6427               720.3297
 Red. masses --      2.3311                 2.7128                 1.8095
 Frc consts  --      0.3767                 0.5426                 0.5532
 IR Inten    --      0.3394                 0.0148                 5.7749

                     28                     29                     30
                      A                      A                      A
 Frequencies --    760.7377               789.5950               807.6544
 Red. masses --      2.2469                 1.3213                 1.6193
 Frc consts  --      0.7661                 0.4854                 0.6223
 IR Inten    --      0.9839                 1.9742                 0.0964

                     31                     32                     33
                      A                      A                      A
 Frequencies --    846.6663               850.8371               899.7262
 Red. masses --      1.6627                 2.3681                 1.8025
 Frc consts  --      0.7023                 1.0101                 0.8597
 IR Inten    --      3.3862                 0.2833                 1.4067

                     34                     35                     36
                      A                      A                      A
 Frequencies --    913.0834               957.9147               969.4964
 Red. masses --      1.8523                 1.4747                 1.8293
 Frc consts  --      0.9099                 0.7973                 1.0131
 IR Inten    --      1.3703                 1.4206                 7.9997

                     37                     38                     39
                      A                      A                      A
 Frequencies --    978.1330               996.3065              1000.6026
 Red. masses --      1.4872                 1.3958                 1.6320
 Frc consts  --      0.8383                 0.8163                 0.9627
 IR Inten    --      1.7948                 3.1043                 7.4363

                     40                     41                     42
                      A                      A                      A
 Frequencies --   1012.9562              1020.6705              1029.4159
 Red. masses --      1.5744                 1.4475                 1.1912
 Frc consts  --      0.9518                 0.8885                 0.7438
 IR Inten    --      5.2934                 5.6609                25.2293

                     43                     44                     45
                      A                      A                      A
 Frequencies --   1044.4865              1060.1056              1079.0840
 Red. masses --      1.4272                 2.5857                 1.5211
 Frc consts  --      0.9173                 1.7121                 1.0435
 IR Inten    --      0.8228                 0.0719                 0.1363

                     46                     47                     48
                      A                      A                      A
 Frequencies --   1101.8042              1114.0271              1142.6083
 Red. masses --      1.9414                 2.0686                 1.6806
 Frc consts  --      1.3886                 1.5126                 1.2927
 IR Inten    --      0.6246                 1.3661                 0.6416

                     49                     50                     51
                      A                      A                      A
 Frequencies --   1146.5678              1190.3429              1201.5146
 Red. masses --      1.8513                 1.8552                 2.0961
 Frc consts  --      1.4339                 1.5488                 1.7829
 IR Inten    --      0.6849                 1.9885                 2.8132

                     52                     53                     54
                      A                      A                      A
 Frequencies --   1227.3284              1234.9322              1263.0805
 Red. masses --      2.1286                 1.9088                 1.6559
 Frc consts  --      1.8892                 1.7151                 1.5565
 IR Inten    --      8.7063                 0.7734                 1.1346

                     55                     56                     57
                      A                      A                      A
 Frequencies --   1287.2642              1323.6477              1337.7448
 Red. masses --      1.6293                 1.2414                 1.2802
 Frc consts  --      1.5907                 1.2815                 1.3498
 IR Inten    --      2.9376                 3.0156                 1.3996

                     58                     59                     60
                      A                      A                      A
 Frequencies --   1349.0123              1362.7570              1367.3945
 Red. masses --      1.3620                 1.2054                 1.2760
 Frc consts  --      1.4604                 1.3190                 1.4057
 IR Inten    --      2.4140                 0.9464                 0.8271

                     61                     62                     63
                      A                      A                      A
 Frequencies --   1372.2011              1400.6107              1407.9956
 Red. masses --      1.2974                 1.3850                 1.4638
 Frc consts  --      1.4393                 1.6008                 1.7097
 IR Inten    --      2.3196                 5.6685                 0.5145

                     64                     65                     66
                      A                      A                      A
 Frequencies --   1419.5284              1425.2318              1426.9979
 Red. masses --      1.4199                 1.2780                 1.3979
 Frc consts  --      1.6857                 1.5295                 1.6771
 IR Inten    --      4.6259                 4.8749                 1.9917

                     67                     68                     69
                      A                      A                      A
 Frequencies --   1437.4757              1441.8188              1443.5020
 Red. masses --      1.2802                 1.2501                 1.2349
 Frc consts  --      1.5586                 1.5311                 1.5161
 IR Inten    --      5.1872                 3.6388                 2.4470

                     70                     71                     72
                      A                      A                      A
 Frequencies --   1448.0722              1508.0077              1509.5322
 Red. masses --      1.2303                 1.0495                 1.0720
 Frc consts  --      1.5200                 1.4061                 1.4393
 IR Inten    --      5.3504                 6.3964                 3.0236

                     73                     74                     75
                      A                      A                      A
 Frequencies --   1514.2193              1515.6015              1520.9253
 Red. masses --      1.0644                 1.0618                 1.0583
 Frc consts  --      1.4379                 1.4371                 1.4423
 IR Inten    --      0.2317                 1.8386                 5.1467

                     76                     77                     78
                      A                      A                      A
 Frequencies --   1522.1020              1523.9735              1526.8255
 Red. masses --      1.0582                 1.0656                 1.0446
 Frc consts  --      1.4445                 1.4581                 1.4347
 IR Inten    --     10.3784                 1.2263                 5.5751

                     79                     80                     81
                      A                      A                      A
 Frequencies --   1530.8871              1531.8400              1534.9683
 Red. masses --      1.0606                 1.0610                 1.0660
 Frc consts  --      1.4645                 1.4668                 1.4798
 IR Inten    --      7.1708                 5.6583                 2.3758

                     82                     83                     84
                      A                      A                      A
 Frequencies --   1536.6517              1544.4412              1547.9575
 Red. masses --      1.0625                 1.0495                 1.0609
 Frc consts  --      1.4782                 1.4749                 1.4977
 IR Inten    --      6.8940                 1.3213                 6.7321

                     85                     86                     87
                      A                      A                      A
 Frequencies --   1751.1885              3018.5803              3020.7645
 Red. masses --      5.8671                 1.0686                 1.0660
 Frc consts  --     10.6009                 5.7370                 5.7312
 IR Inten    --      0.6944                11.1557                20.5494

                     88                     89                     90
                      A                      A                      A
 Frequencies --   3022.0313              3029.1230              3036.9456
 Red. masses --      1.0646                 1.0372                 1.0422
 Frc consts  --      5.7286                 5.6072                 5.6632
 IR Inten    --     27.4507                38.7742                25.1424

                     91                     92                     93
                      A                      A                      A
 Frequencies --   3041.0876              3043.5161              3045.0755
 Red. masses --      1.0486                 1.0480                 1.0379
 Frc consts  --      5.7135                 5.7197                 5.6700
 IR Inten    --     14.5315                34.8332                33.1912

                     94                     95                     96
                      A                      A                      A
 Frequencies --   3049.3563              3051.0475              3058.5866
 Red. masses --      1.0401                 1.0751                 1.0961
 Frc consts  --      5.6981                 5.8967                 6.0412
 IR Inten    --     27.9362                22.0776                 3.6516

                     97                     98                     99
                      A                      A                      A
 Frequencies --   3068.9677              3074.2503              3075.2173
 Red. masses --      1.0947                 1.0956                 1.1002
 Frc consts  --      6.0749                 6.1005                 6.1301
 IR Inten    --     43.8956                28.6250                28.2416

                    100                    101                    102
                      A                      A                      A
 Frequencies --   3081.7366              3100.1234              3106.9918
 Red. masses --      1.0974                 1.1002                 1.1012
 Frc consts  --      6.1406                 6.2300                 6.2635
 IR Inten    --     73.9958                52.5394                61.3999

                    103                    104                    105
                      A                      A                      A
 Frequencies --   3109.0788              3112.2850              3113.0337
 Red. masses --      1.1023                 1.1005                 1.1009
 Frc consts  --      6.2780                 6.2806                 6.2859
 IR Inten    --     10.7902                39.4854                17.8242

                    106                    107                    108
                      A                      A                      A
 Frequencies --   3115.1864              3116.0019              3121.6020
 Red. masses --      1.1014                 1.1017                 1.1026
 Frc consts  --      6.2975                 6.3024                 6.3300
 IR Inten    --     42.0676                36.0701                44.4504

                    109                    110                    111
                      A                      A                      A
 Frequencies --   3124.5464              3146.1503              3164.7038
 Red. masses --      1.0995                 1.0876                 1.0873
 Frc consts  --      6.3246                 6.3429                 6.4160
 IR Inten    --     40.9837                20.6515                33.1678

 - Thermochemistry -
 -------------------
 Temperature   298.150 Kelvin.  Pressure   1.00000 Atm.
 Atom     1 has atomic number  6 and mass  12.00000

 Molecular mass:   182.20345 amu.
 Principal axes and moments of inertia in atomic units:
                           1         2         3
     Eigenvalues --  2015.742163656.105864467.11752
           X            0.99990   0.01442   0.00115
           Y           -0.01442   0.99989  -0.00386
           Z           -0.00121   0.00384   0.99999
 This molecule is an asymmetric top.
 Rotational symmetry number  1.
 Warning -- assumption of classical behavior for rotation
           may cause significant error
 Rotational temperatures (Kelvin)      0.04297     0.02369     0.01939
 Rotational constants (GHZ):           0.89532     0.49362     0.40401
 Zero-point vibrational energy     962279.3 (Joules/Mol)
                                  229.99028 (Kcal/Mol)
 Warning -- explicit consideration of  26 degrees of freedom as
           vibrations may cause significant error
 Vibrational temperatures:     32.93    57.77    64.95    90.64   138.72
          (Kelvin)            190.70   225.99   267.95   289.79   312.56
                              324.33   353.51   389.21   405.76   427.02
                              437.83   470.03   503.46   522.60   552.18
                              595.50   628.99   650.28   696.81   753.49
                              838.29  1036.39  1094.53  1136.05  1162.03
                             1218.16  1224.16  1294.51  1313.72  1378.23
                             1394.89  1407.32  1433.46  1439.64  1457.42
                             1468.52  1481.10  1502.78  1525.26  1552.56
                             1585.25  1602.84  1643.96  1649.66  1712.64
                             1728.71  1765.85  1776.79  1817.29  1852.09
                             1904.43  1924.72  1940.93  1960.70  1967.38
                             1974.29  2015.17  2025.79  2042.38  2050.59
                             2053.13  2068.21  2074.46  2076.88  2083.45
                             2169.69  2171.88  2178.62  2180.61  2188.27
                             2189.97  2192.66  2196.76  2202.61  2203.98
                             2208.48  2210.90  2222.11  2227.17  2519.57
                             4343.06  4346.21  4348.03  4358.23  4369.49
                             4375.45  4378.94  4381.18  4387.34  4389.78
                             4400.62  4415.56  4423.16  4424.55  4433.93
                             4460.39  4470.27  4473.27  4477.88  4478.96
                             4482.06  4483.23  4491.29  4495.53  4526.61
                             4553.30

 Zero-point correction=                           0.366513 (Hartree/Particle)
 Thermal correction to Energy=                    0.383425
 Thermal correction to Enthalpy=                  0.384370
 Thermal correction to Gibbs Free Energy=         0.321804
 Sum of electronic and zero-point Energies=           -510.739106
 Sum of electronic and thermal Energies=              -510.722193
 Sum of electronic and thermal Enthalpies=            -510.721249
 Sum of electronic and thermal Free Energies=         -510.783815

                     E (Thermal)             CV                S
                      KCal/Mol        Cal/Mol-Kelvin    Cal/Mol-Kelvin
 Total                  240.603             63.197            131.680
 Electronic               0.000              0.000              0.000
 Translational            0.889              2.981             41.506
 Rotational               0.889              2.981             31.865
 Vibrational            238.826             57.235             58.308
 Vibration     1          0.593              1.985              6.367
 Vibration     2          0.594              1.981              5.252
 Vibration     3          0.595              1.979              5.019
 Vibration     4          0.597              1.972              4.361
 Vibration     5          0.603              1.952              3.525
 Vibration     6          0.613              1.921              2.909
 Vibration     7          0.621              1.895              2.585
 Vibration     8          0.632              1.859              2.265
 Vibration     9          0.638              1.838              2.120
 Vibration    10          0.646              1.815              1.982
 Vibration    11          0.650              1.802              1.915
 Vibration    12          0.660              1.770              1.761
 Vibration    13          0.674              1.728              1.593
 Vibration    14          0.681              1.707              1.521
 Vibration    15          0.690              1.680              1.435
 Vibration    16          0.695              1.666              1.393
 Vibration    17          0.710              1.622              1.276
 Vibration    18          0.727              1.575              1.167
 Vibration    19          0.737              1.548              1.108
 Vibration    20          0.753              1.505              1.024
 Vibration    21          0.777              1.440              0.913
 Vibration    22          0.797              1.389              0.836
 Vibration    23          0.811              1.357              0.790
 Vibration    24          0.840              1.285              0.699
 Vibration    25          0.879              1.198              0.601
 Vibration    26          0.939              1.069              0.480

 Optimization completed.
    -- Stationary point found.
 Normal termination of Gaussian 16 at Mon Dec 14 13:26:03 2020.

 ----------------------------------------------------------------------
 # B3LYP/6-311++G(d,p) empiricaldispersion=gd3bj scf=xqc pop=npa geom=c
 heck
 ----------------------------------------------------------------------

 ---------------------------------------
 CID_123979612_JID_3936_Energie_neutraal
 ---------------------------------------
 Structure from the checkpoint file:  "JID_3936.chk"
 Charge =  0 Multiplicity = 1

 SCF Done:  E(RB3LYP) =  -511.247901451     A.U. after   13 cycles
 Normal termination of Gaussian 16 at Mon Dec 14 13:30:53 2020.

 ----------------------------------------------------------------------
 # B3LYP/6-311++G(d,p) empiricaldispersion=gd3bj scf=xqc pop=npa geom=c
 heck
 ----------------------------------------------------------------------

 -------------------------------------
 CID_123979612_JID_3936_Energie_kation
 -------------------------------------
 Structure from the checkpoint file:  "JID_3936.chk"
 Charge =  1 Multiplicity = 2

 SCF Done:  E(UB3LYP) =  -510.933139000     A.U. after   19 cycles
 Normal termination of Gaussian 16 at Mon Dec 14 13:40:06 2020.
 Gaussian 16:  ES64L-G16RevA.03 25-Dec-2016

 ----------------------------------------------------------------------
 # B3LYP/6-311++G(d,p) empiricaldispersion=gd3bj scf=xqc pop=npa geom=c
 heck
 ----------------------------------------------------------------------

 ------------------------------------
 CID_123979612_JID_3936_Energie_anion
 ------------------------------------
 Structure from the checkpoint file:  "JID_3936.chk"
 Charge = -1 Multiplicity = 2

                         Standard orientation:
 ---------------------------------------------------------------------
 Center     Atomic      Atomic             Coordinates (Angstroms)
 Number     Number       Type             X           Y           Z
 ---------------------------------------------------------------------
      1          6           0        3.559507    0.135473    1.554386
      2          6           0        2.804393   -0.776981    0.583050
      3          6           0        1.831522   -0.040405   -0.354118
      4          6           0        2.553768    0.959553   -1.266340
      5          6           0        1.012260   -1.022498   -1.211317
      6          6           0        0.110531   -2.007301   -0.447660
      7          6           0       -0.838798   -1.432961    0.617572
      8          6           0       -2.014112   -0.506340    0.177773
      9          6           0       -2.824725   -1.168797   -0.953194
     10          6           0       -2.930952   -0.330524    1.401792
     11          6           0       -1.501504    0.833027   -0.319753
     12          6           0       -1.447970    1.984604    0.353848
     13          6           0       -0.888854    3.263384   -0.201275
     14          1           0        4.231684    0.824443    1.032254
     15          1           0        4.167536   -0.450505    2.252781
     16          1           0        2.860514    0.739093    2.146884
     17          1           0        3.523541   -1.346668   -0.024373
     18          1           0        2.246361   -1.518657    1.167886
     19          1           0        1.131600    0.530794    0.269722
     20          1           0        3.284438    0.449235   -1.907900
     21          1           0        1.839261    1.474009   -1.919859
     22          1           0        3.087353    1.725986   -0.695368
     23          1           0        0.406894   -0.443867   -1.918868
     24          1           0        1.707334   -1.608180   -1.831439
     25          1           0       -0.469720   -2.583164   -1.179675
     26          1           0        0.745138   -2.745457    0.059546
     27          1           0       -1.292154   -2.291638    1.132944
     28          1           0       -0.257878   -0.897256    1.378775
     29          1           0       -3.151142   -2.174582   -0.662327
     30          1           0       -3.716491   -0.576061   -1.186217
     31          1           0       -2.236533   -1.258342   -1.872937
     32          1           0       -2.378334    0.051058    2.267665
     33          1           0       -3.747591    0.366407    1.185332
     34          1           0       -3.368746   -1.292976    1.689458
     35          1           0       -1.132231    0.834711   -1.345239
     36          1           0       -1.813938    2.031882    1.378725
     37          1           0       -0.036278    3.615255    0.395390
     38          1           0       -0.545561    3.134189   -1.233436
     39          1           0       -1.635445    4.068889   -0.188301
 ---------------------------------------------------------------------

 SCF Done:  E(UB3LYP) =  -511.231387521     A.U. after   31 cycles

 The electronic state is 2-A.
 Alpha  occ. eigenvalues --  -10.08809 -10.06788 -10.06740 -10.06573 -10.06568
 Alpha  occ. eigenvalues --  -10.06479 -10.06351 -10.06336 -10.06331 -10.06136
 Alpha  occ. eigenvalues --  -10.05806 -10.05794 -10.05732  -0.73827  -0.71509
 Alpha  occ. eigenvalues --   -0.67830  -0.65645  -0.62589  -0.59063  -0.58319
 Alpha  occ. eigenvalues --   -0.57693  -0.53652  -0.50536  -0.47396  -0.44910
 Alpha  occ. eigenvalues --   -0.42404  -0.37986  -0.37199  -0.36204  -0.34769
 Alpha  occ. eigenvalues --   -0.33554  -0.33301  -0.32859  -0.31543  -0.31056
 Alpha  occ. eigenvalues --   -0.30315  -0.29559  -0.28571  -0.28137  -0.27730
 Alpha  occ. eigenvalues --   -0.26950  -0.26532  -0.25814  -0.25585  -0.24473
 Alpha  occ. eigenvalues --   -0.23206  -0.22569  -0.22333  -0.21239  -0.20914
 Alpha  occ. eigenvalues --   -0.20490  -0.14569   0.04461
 Alpha virt. eigenvalues --    0.06518   0.06743   0.07208   0.08389   0.08654
 Alpha virt. eigenvalues --    0.08764   0.09260   0.09422   0.10503   0.10647
 Alpha virt. eigenvalues --    0.11064   0.11422   0.11594   0.11880   0.12097

  Beta  occ. eigenvalues --  -10.08806 -10.06776 -10.06736 -10.06563 -10.06538
  Beta  occ. eigenvalues --  -10.06465 -10.06337 -10.06331 -10.06324 -10.06112
  Beta  occ. eigenvalues --  -10.05783 -10.05765 -10.05713  -0.73811  -0.71490
  Beta  occ. eigenvalues --   -0.67802  -0.65617  -0.62556  -0.59020  -0.58276
  Beta  occ. eigenvalues --   -0.57657  -0.53597  -0.50490  -0.47345  -0.44872
  Beta  occ. eigenvalues --   -0.42363  -0.37961  -0.37175  -0.36178  -0.34746
  Beta  occ. eigenvalues --   -0.33524  -0.33275  -0.32824  -0.31512  -0.31022
  Beta  occ. eigenvalues --   -0.30274  -0.29534  -0.28544  -0.28108  -0.27702
  Beta  occ. eigenvalues --   -0.26918  -0.26501  -0.25780  -0.25551  -0.24446
  Beta  occ. eigenvalues --   -0.23182  -0.22546  -0.22308  -0.21216  -0.20895
  Beta  occ. eigenvalues --   -0.20465  -0.14546
  Beta virt. eigenvalues --    0.06414   0.07190   0.07351   0.07709   0.08713
  Beta virt. eigenvalues --    0.08976   0.09209   0.09777   0.09833   0.10700
  Beta virt. eigenvalues --    0.10880   0.11427   0.11640   0.11874   0.12076

 Mulliken charges and spin densities:
               1          2
     1  C    0.703291  -1.354303
     2  C   -0.844896   0.592272
     3  C   -0.010279   0.420225
     4  C    0.121930  -0.845339
     5  C   -0.307423   0.206395
     6  C   -0.303913  -0.368746
     7  C   -0.099016  -0.250565
     8  C   -0.304063   1.131090
     9  C    0.186048  -0.895995
    10  C    0.676133  -1.091348
    11  C    1.325038  -1.426393
    12  C   -2.181452   1.972810
    13  C    1.047337  -1.802889
    14  H   -0.085176   0.217353
    15  H   -0.256275   0.396624
    16  H   -0.418464   0.566867
    17  H   -0.057646   0.188188
    18  H    0.055502   0.072400
    19  H    1.391573  -1.297586
    20  H   -0.079582   0.214858
    21  H    0.087796   0.032098
    22  H   -0.082104   0.211369
    23  H   -0.145677   0.277618
    24  H    0.147203  -0.006605
    25  H    0.020729   0.143216
    26  H   -0.149796   0.309040
    27  H   -0.168561   0.340953
    28  H   -0.071667   0.249692
    29  H   -0.125315   0.283695
    30  H   -0.028995   0.170883
    31  H   -0.058703   0.193310
    32  H   -0.115808   0.243716
    33  H    0.031242   0.120323
    34  H   -0.194814   0.343005
    35  H    0.187575  -0.038857
    36  H   -0.221879   0.377623
    37  H   -0.150080   0.309109
    38  H   -0.197481   0.324042
    39  H   -0.322330   0.469853
 Sum of Mulliken charges =  -1.00000   1.00000

 Dipole moment (field-independent basis, Debye):
    X=             -0.0608    Y=             -1.7717    Z=             -2.6175  Tot=              3.1613
 Quadrupole moment (field-independent basis, Debye-Ang):
   XX=           -154.8858   YY=           -143.1029   ZZ=           -129.4451
   XY=             -3.1259   XZ=             -4.3675   YZ=              1.6423

 Summary of Natural Population Analysis:

                                       Natural Population
                Natural  -----------------------------------------------
    Atom  No    Charge         Core      Valence    Rydberg      Total
 -----------------------------------------------------------------------
      C    1   -0.28492      0.99967     2.28044    0.00482     3.28492
      C    2   -0.18798      0.99962     2.17981    0.00855     3.18798
      C    3   -0.12199      0.99959     2.11284    0.00955     3.12199
      C    4   -0.28295      0.99965     2.27701    0.00629     3.28295
      C    5   -0.18501      0.99961     2.17731    0.00809     3.18501
      C    6   -0.19053      0.99962     2.18232    0.00859     3.19053
      C    7   -0.18275      0.99959     2.17290    0.01027     3.18275
      C    8   -0.06226      0.99956     2.05019    0.01251     3.06226
      C    9   -0.28249      0.99963     2.27547    0.00739     3.28249
      C   10   -0.28384      0.99964     2.27667    0.00753     3.28384
      C   11   -0.09161      0.99948     2.07996    0.01217     3.09161
      C   12   -0.08881      0.99950     2.08076    0.00854     3.08881
      C   13   -0.29799      0.99965     2.29217    0.00617     3.29799
      H   14    0.09538      0.00000     0.40362    0.00100     0.40462
      H   15    0.09762      0.00000     0.40147    0.00090     0.40238
      H   16    0.09827      0.00000     0.40041    0.00131     0.40173
      H   17    0.09055      0.00000     0.40838    0.00107     0.40945
      H   18    0.09688      0.00000     0.40175    0.00138     0.40312
      H   19    0.10130      0.00000     0.39592    0.00279     0.39870
      H   20    0.09363      0.00000     0.40550    0.00087     0.40637
      H   21    0.09863      0.00000     0.40030    0.00107     0.40137
      H   22    0.10014      0.00000     0.39894    0.00092     0.39986
      H   23    0.09451      0.00000     0.40409    0.00140     0.40549
      H   24    0.09455      0.00000     0.40438    0.00108     0.40545
      H   25    0.09688      0.00000     0.40204    0.00108     0.40312
      H   26    0.09709      0.00000     0.40173    0.00118     0.40291
      H   27    0.09906      0.00000     0.39970    0.00124     0.40094
      H   28    0.09954      0.00000     0.39869    0.00177     0.40046
      H   29    0.09975      0.00000     0.39926    0.00099     0.40025
      H   30    0.10096      0.00000     0.39815    0.00089     0.39904
      H   31    0.09868      0.00000     0.40029    0.00103     0.40132
      H   32    0.10102      0.00000     0.39776    0.00122     0.39898
      H   33    0.10088      0.00000     0.39815    0.00097     0.39912
      H   34    0.10026      0.00000     0.39868    0.00106     0.39974
      H   35    0.09095      0.00000     0.40695    0.00209     0.40905
      H   36    0.09314      0.00000     0.40546    0.00139     0.40686
      H   37    0.10330      0.00000     0.39548    0.00122     0.39670
      H   38    0.09901      0.00000     0.39991    0.00108     0.40099
      H   39    0.10115      0.00000     0.39768    0.00117     0.39885
 =======================================================================
   * Total *   -0.00000     12.99481    38.86256    0.14263    52.00000

 Normal termination of Gaussian 16 at Mon Dec 14 13:55:16 2020.
