 Gaussian 16, Revision A.03,

 -----------------------------------------------------------
 # opt freq B3LYP/6-31G(d) empiricaldispersion=gd3bj scf=xqc
 -----------------------------------------------------------

 -----------------------------
 CID_82410677_JID_888_neutraal
 -----------------------------
 Symbolic Z-matrix:
 Charge =  0 Multiplicity = 1

 SCF Done:  E(RB3LYP) =  -1145.58533453     A.U. after   13 cycles
 SCF Done:  E(RB3LYP) =  -1145.58995975     A.U. after   11 cycles
 SCF Done:  E(RB3LYP) =  -1145.59053900     A.U. after   11 cycles
 SCF Done:  E(RB3LYP) =  -1145.59075236     A.U. after   10 cycles
 SCF Done:  E(RB3LYP) =  -1145.59084688     A.U. after   10 cycles
 SCF Done:  E(RB3LYP) =  -1145.59102729     A.U. after   11 cycles
 SCF Done:  E(RB3LYP) =  -1145.57791884     A.U. after   12 cycles
 SCF Done:  E(RB3LYP) =  -1145.59141295     A.U. after   11 cycles
 SCF Done:  E(RB3LYP) =  -1145.59219654     A.U. after   12 cycles
 SCF Done:  E(RB3LYP) =  -1145.58601785     A.U. after   12 cycles
 SCF Done:  E(RB3LYP) =  -1145.59231407     A.U. after   10 cycles
 SCF Done:  E(RB3LYP) =  -1145.59233348     A.U. after   10 cycles
 SCF Done:  E(RB3LYP) =  -1145.59234731     A.U. after    9 cycles
 SCF Done:  E(RB3LYP) =  -1145.59234896     A.U. after    8 cycles
 SCF Done:  E(RB3LYP) =  -1145.59234976     A.U. after    8 cycles
 SCF Done:  E(RB3LYP) =  -1145.59234995     A.U. after    7 cycles
 Optimization completed.
    -- Stationary point found.
 Normal termination of Gaussian 16 at Tue Dec  8 13:17:27 2020.

 --------------------------------------------------------------------
 #N Geom=AllCheck Guess=TCheck SCRF=Check GenChk RB3LYP/6-31G(d) Freq
 --------------------------------------------------------------------

 Structure from the checkpoint file:  "JID_888.chk"
 -----------------------------
 CID_82410677_JID_888_neutraal
 -----------------------------
 Charge =  0 Multiplicity = 1

 SCF Done:  E(RB3LYP) =  -1145.59234995     A.U. after    1 cycles

  Exact polarizability: 122.735   8.168  99.244   1.842  -1.099  90.206
 Approx polarizability: 167.183  13.625 151.639   4.038  -5.660 149.249

                      1                      2                      3
                      A                      A                      A
 Frequencies --     76.3973                93.4083               146.8914
 Red. masses --      5.0875                 4.3807                 3.4099
 Frc consts  --      0.0175                 0.0225                 0.0433
 IR Inten    --      0.4374                 3.0194                 4.0977

                      4                      5                      6
                      A                      A                      A
 Frequencies --    226.0626               250.9820               286.0312
 Red. masses --      2.7370                 2.3499                 1.7874
 Frc consts  --      0.0824                 0.0872                 0.0862
 IR Inten    --      4.0010                 1.3386                26.0275

                      7                      8                      9
                      A                      A                      A
 Frequencies --    289.3709               337.2283               355.5976
 Red. masses --      2.9099                 1.9541                 3.9204
 Frc consts  --      0.1436                 0.1309                 0.2921
 IR Inten    --     14.2963                51.2189                 5.3155

                     10                     11                     12
                      A                      A                      A
 Frequencies --    377.6070               417.1405               477.9110
 Red. masses --      6.3611                 2.9174                 3.1322
 Frc consts  --      0.5344                 0.2991                 0.4215
 IR Inten    --      4.7716                 6.7414                 1.8264

                     13                     14                     15
                      A                      A                      A
 Frequencies --    481.1631               573.0090               644.0888
 Red. masses --      2.1985                 3.2984                 4.4319
 Frc consts  --      0.2999                 0.6381                 1.0833
 IR Inten    --      4.0406                 0.9805                 9.4234

                     16                     17                     18
                      A                      A                      A
 Frequencies --    679.0525               699.8085               787.3579
 Red. masses --      4.8542                 5.8625                 3.0681
 Frc consts  --      1.3188                 1.6916                 1.1206
 IR Inten    --      2.5009                 1.0191                 0.4742

                     19                     20                     21
                      A                      A                      A
 Frequencies --    824.0873               868.1327               899.2353
 Red. masses --      2.2636                 2.0379                 1.5490
 Frc consts  --      0.9057                 0.9049                 0.7380
 IR Inten    --      4.4368                 0.8651                 1.3124

                     22                     23                     24
                      A                      A                      A
 Frequencies --    905.4019               925.5043               984.4903
 Red. masses --      2.0087                 1.7775                 1.6810
 Frc consts  --      0.9702                 0.8970                 0.9599
 IR Inten    --      3.3230                 4.0277                17.8938

                     25                     26                     27
                      A                      A                      A
 Frequencies --   1012.1783              1020.5914              1048.9383
 Red. masses --      2.3760                 1.4120                 2.6169
 Frc consts  --      1.4342                 0.8666                 1.6964
 IR Inten    --      1.5134                 0.8707                50.1602

                     28                     29                     30
                      A                      A                      A
 Frequencies --   1084.6755              1105.9974              1109.2503
 Red. masses --      1.2854                 1.9500                 2.1201
 Frc consts  --      0.8910                 1.4054                 1.5370
 IR Inten    --     10.7946                34.4243                55.5155

                     31                     32                     33
                      A                      A                      A
 Frequencies --   1132.1417              1179.0694              1223.9177
 Red. masses --      1.9486                 1.3973                 1.3329
 Frc consts  --      1.4715                 1.1445                 1.1764
 IR Inten    --     10.0023                11.4708                13.1395

                     34                     35                     36
                      A                      A                      A
 Frequencies --   1235.6551              1255.8009              1258.8477
 Red. masses --      1.3334                 1.6523                 1.4851
 Frc consts  --      1.1995                 1.5353                 1.3866
 IR Inten    --     11.9420                 8.1225                 1.3617

                     37                     38                     39
                      A                      A                      A
 Frequencies --   1278.3825              1312.2691              1340.0742
 Red. masses --      1.4129                 1.3822                 1.2419
 Frc consts  --      1.3604                 1.4024                 1.3140
 IR Inten    --      7.1361                31.5685                 3.8814

                     40                     41                     42
                      A                      A                      A
 Frequencies --   1346.9177              1402.7449              1411.3142
 Red. masses --      1.3679                 1.4699                 1.4513
 Frc consts  --      1.4621                 1.7041                 1.7032
 IR Inten    --      4.0946                 4.8675                 4.4428

                     43                     44                     45
                      A                      A                      A
 Frequencies --   1447.7324              1500.6013              1503.6655
 Red. masses --      1.2563                 1.0855                 1.0868
 Frc consts  --      1.5514                 1.4401                 1.4478
 IR Inten    --     56.1372                 1.3479                10.1046

                     46                     47                     48
                      A                      A                      A
 Frequencies --   1508.7628              1520.1456              1524.3904
 Red. masses --      1.0912                 1.0963                 1.1003
 Frc consts  --      1.4635                 1.4926                 1.5064
 IR Inten    --      1.3694                 3.6150                 8.7995

                     49                     50                     51
                      A                      A                      A
 Frequencies --   3033.4186              3036.6027              3057.9676
 Red. masses --      1.0618                 1.0636                 1.0800
 Frc consts  --      5.7564                 5.7785                 5.9501
 IR Inten    --     11.3967                21.8763                13.6296

                     52                     53                     54
                      A                      A                      A
 Frequencies --   3059.4750              3086.4676              3088.0776
 Red. masses --      1.0679                 1.1002                 1.0569
 Frc consts  --      5.8895                 6.1749                 5.9385
 IR Inten    --     21.5425                23.7388                18.6895

                     55                     56                     57
                      A                      A                      A
 Frequencies --   3091.4122              3098.0510              3122.4605
 Red. masses --      1.0969                 1.0593                 1.1016
 Frc consts  --      6.1761                 5.9904                 6.3280
 IR Inten    --     32.1740                34.0987                11.4992

                     58                     59                     60
                      A                      A                      A
 Frequencies --   3147.0266              3156.6152              3721.7473
 Red. masses --      1.1114                 1.1119                 1.0658
 Frc consts  --      6.4853                 6.5278                 8.6981
 IR Inten    --      9.2247                 7.0606                 9.3840

 - Thermochemistry -
 -------------------
 Temperature   298.150 Kelvin.  Pressure   1.00000 Atm.
 Atom     1 has atomic number  6 and mass  12.00000

 Molecular mass:   176.03296 amu.
 Principal axes and moments of inertia in atomic units:
                           1         2         3
     Eigenvalues --  1212.307592421.968273139.91730
           X            0.99997  -0.00257   0.00760
           Y            0.00236   0.99961   0.02770
           Z           -0.00767  -0.02768   0.99959
 This molecule is an asymmetric top.
 Rotational symmetry number  1.
 Warning -- assumption of classical behavior for rotation
           may cause significant error
 Rotational temperatures (Kelvin)      0.07145     0.03576     0.02758
 Rotational constants (GHZ):           1.48868     0.74515     0.57477
 Zero-point vibrational energy     484902.4 (Joules/Mol)
                                  115.89445 (Kcal/Mol)
 Warning -- explicit consideration of  14 degrees of freedom as
           vibrations may cause significant error
 Vibrational temperatures:    109.92   134.39   211.34   325.25   361.11
          (Kelvin)            411.54   416.34   485.20   511.63   543.29
                              600.17   687.61   692.29   824.43   926.70
                              977.01  1006.87  1132.83  1185.68  1249.05
                             1293.80  1302.67  1331.59  1416.46  1456.30
                             1468.40  1509.19  1560.61  1591.28  1595.96
                             1628.90  1696.42  1760.94  1777.83  1806.82
                             1811.20  1839.31  1888.06  1928.07  1937.91
                             2018.24  2030.57  2082.96  2159.03  2163.44
                             2170.77  2187.15  2193.26  4364.41  4368.99
                             4399.73  4401.90  4440.74  4443.05  4447.85
                             4457.40  4492.52  4527.87  4541.67  5354.76

 Zero-point correction=                           0.184690 (Hartree/Particle)
 Thermal correction to Energy=                    0.194725
 Thermal correction to Enthalpy=                  0.195669
 Thermal correction to Gibbs Free Energy=         0.149058
 Sum of electronic and zero-point Energies=          -1145.407660
 Sum of electronic and thermal Energies=             -1145.397625
 Sum of electronic and thermal Enthalpies=           -1145.396681
 Sum of electronic and thermal Free Energies=        -1145.443292

                     E (Thermal)             CV                S
                      KCal/Mol        Cal/Mol-Kelvin    Cal/Mol-Kelvin
 Total                  122.192             39.148             98.102
 Electronic               0.000              0.000              0.000
 Translational            0.889              2.981             41.404
 Rotational               0.889              2.981             30.601
 Vibrational            120.414             33.186             26.097
 Vibration     1          0.599              1.965              3.981
 Vibration     2          0.602              1.954              3.587
 Vibration     3          0.617              1.906              2.712
 Vibration     4          0.650              1.801              1.910
 Vibration     5          0.663              1.761              1.724
 Vibration     6          0.684              1.700              1.497
 Vibration     7          0.686              1.693              1.478
 Vibration     8          0.718              1.601              1.225
 Vibration     9          0.731              1.564              1.141
 Vibration    10          0.748              1.518              1.049
 Vibration    11          0.780              1.433              0.902
 Vibration    12          0.834              1.299              0.716
 Vibration    13          0.837              1.292              0.707
 Vibration    14          0.929              1.090              0.498

 Optimization completed.
    -- Stationary point found.
 Normal termination of Gaussian 16 at Tue Dec  8 13:27:00 2020.

 ----------------------------------------------------------------------
 # B3LYP/6-311++G(d,p) empiricaldispersion=gd3bj scf=xqc pop=npa geom=c
 heck
 ----------------------------------------------------------------------

 -------------------------------------
 CID_82410677_JID_888_Energie_neutraal
 -------------------------------------
 Structure from the checkpoint file:  "JID_888.chk"
 Charge =  0 Multiplicity = 1

 SCF Done:  E(RB3LYP) =  -1145.75214861     A.U. after   14 cycles
 Normal termination of Gaussian 16 at Tue Dec  8 13:29:16 2020.

 ----------------------------------------------------------------------
 # B3LYP/6-311++G(d,p) empiricaldispersion=gd3bj scf=xqc pop=npa geom=c
 heck
 ----------------------------------------------------------------------

 -----------------------------------
 CID_82410677_JID_888_Energie_kation
 -----------------------------------
 Structure from the checkpoint file:  "JID_888.chk"
 Charge =  1 Multiplicity = 2

 SCF Done:  E(UB3LYP) =  -1145.44686300     A.U. after   24 cycles
 Normal termination of Gaussian 16 at Tue Dec  8 13:35:19 2020.
 Gaussian 16:  ES64L-G16RevA.03 25-Dec-2016

 ----------------------------------------------------------------------
 # B3LYP/6-311++G(d,p) empiricaldispersion=gd3bj scf=xqc pop=npa geom=c
 heck
 ----------------------------------------------------------------------

 ----------------------------------
 CID_82410677_JID_888_Energie_anion
 ----------------------------------
 Structure from the checkpoint file:  "JID_888.chk"
 Charge = -1 Multiplicity = 2

                         Standard orientation:
 ---------------------------------------------------------------------
 Center     Atomic      Atomic             Coordinates (Angstroms)
 Number     Number       Type             X           Y           Z
 ---------------------------------------------------------------------
      1          6           0        2.485042    0.242044    0.137226
      2          6           0        1.734608    1.480988    0.624674
      3         16           0        0.226736    1.828151   -0.361763
      4          6           0       -0.600505    0.190569   -0.207974
      5          6           0        0.353665   -0.945390   -0.603440
      6          6           0        1.638043   -1.029817    0.229039
      7          8           0        2.394365   -2.182701   -0.130397
      8          6           0       -1.892962    0.162557   -1.058363
      9         16           0       -2.831287   -0.683802    0.301202
     10          6           0       -1.299737   -0.076486    1.154471
     11          1           0        3.391824    0.098799    0.737686
     12          1           0        2.798236    0.393430   -0.905091
     13          1           0        1.456393    1.375241    1.679871
     14          1           0        2.354388    2.377965    0.538853
     15          1           0        0.624614   -0.813508   -1.660005
     16          1           0       -0.179588   -1.899893   -0.514774
     17          1           0        1.375497   -1.197618    1.280772
     18          1           0        2.635232   -2.087482   -1.066306
     19          1           0       -2.302944    1.154596   -1.264669
     20          1           0       -1.823834   -0.409414   -1.986574
     21          1           0       -0.827106   -0.822686    1.797185
     22          1           0       -1.493757    0.835801    1.721406
 ---------------------------------------------------------------------

 SCF Done:  E(UB3LYP) =  -1145.73842232     A.U. after   29 cycles

 The electronic state is 2-A.
 Alpha  occ. eigenvalues --  -88.73071 -88.72958 -19.02064 -10.11962 -10.11764
 Alpha  occ. eigenvalues --  -10.09986 -10.09086 -10.08743 -10.07143 -10.06274
 Alpha  occ. eigenvalues --   -7.81626  -7.81591  -5.77966  -5.77959  -5.77749
 Alpha  occ. eigenvalues --   -5.77637  -5.76991  -5.76970  -0.92362  -0.76943
 Alpha  occ. eigenvalues --   -0.70501  -0.64277  -0.62573  -0.58531  -0.52830
 Alpha  occ. eigenvalues --   -0.51950  -0.48186  -0.43630  -0.39595  -0.37855
 Alpha  occ. eigenvalues --   -0.35551  -0.34923  -0.33497  -0.31312  -0.30900
 Alpha  occ. eigenvalues --   -0.30054  -0.29229  -0.26370  -0.25628  -0.24454
 Alpha  occ. eigenvalues --   -0.23318  -0.22411  -0.20125  -0.18920  -0.16981
 Alpha  occ. eigenvalues --   -0.12128  -0.12014   0.04921
 Alpha virt. eigenvalues --    0.06912   0.07957   0.08230   0.09634   0.10225
 Alpha virt. eigenvalues --    0.10466   0.11008   0.11634   0.11735   0.12468
 Alpha virt. eigenvalues --    0.13360   0.14009   0.14196   0.14927   0.15321

  Beta  occ. eigenvalues --  -88.73046 -88.72956 -19.02037 -10.11951 -10.11747
  Beta  occ. eigenvalues --  -10.09921 -10.08988 -10.08669 -10.07137 -10.06238
  Beta  occ. eigenvalues --   -7.81603  -7.81588  -5.77947  -5.77883  -5.77736
  Beta  occ. eigenvalues --   -5.77636  -5.76978  -5.76970  -0.92310  -0.76847
  Beta  occ. eigenvalues --   -0.70410  -0.64205  -0.62475  -0.58399  -0.52709
  Beta  occ. eigenvalues --   -0.51855  -0.48050  -0.43577  -0.39504  -0.37788
  Beta  occ. eigenvalues --   -0.35466  -0.34860  -0.33428  -0.31223  -0.30772
  Beta  occ. eigenvalues --   -0.29946  -0.29155  -0.26279  -0.25535  -0.24280
  Beta  occ. eigenvalues --   -0.23215  -0.22331  -0.20040  -0.18828  -0.16928
  Beta  occ. eigenvalues --   -0.12078  -0.11956
  Beta virt. eigenvalues --    0.07486   0.07710   0.08592   0.09220   0.10274
  Beta virt. eigenvalues --    0.10368   0.10691   0.11559   0.11818   0.12461
  Beta virt. eigenvalues --    0.12770   0.13951   0.14190   0.14476   0.15162

 Mulliken charges and spin densities:
               1          2
     1  C    0.166277  -0.266234
     2  C    0.916763  -1.407216
     3  S    0.194083  -0.281318
     4  C    0.485276   1.150285
     5  C   -0.335995  -0.719411
     6  C    0.020667  -0.452030
     7  O   -0.226385   0.034623
     8  C   -0.736604   0.091149
     9  S   -0.185857   0.114046
    10  C    0.594313  -1.445889
    11  H   -0.507560   0.702219
    12  H   -0.181318   0.295005
    13  H   -0.121681   0.303027
    14  H   -0.981289   1.221949
    15  H   -0.171267   0.331390
    16  H    0.220105  -0.043400
    17  H   -0.093112   0.289802
    18  H    0.056074   0.191927
    19  H    0.151611   0.025356
    20  H    0.194516  -0.000151
    21  H   -0.342301   0.536659
    22  H   -0.116315   0.328212
 Sum of Mulliken charges =  -1.00000   1.00000

 Dipole moment (field-independent basis, Debye):
    X=             -4.8278    Y=             -1.4003    Z=             -3.9973  Tot=              6.4224
 Quadrupole moment (field-independent basis, Debye-Ang):
   XX=           -135.0188   YY=           -116.8248   ZZ=           -106.8810
   XY=             -8.1148   XZ=              0.2998   YZ=             -0.2899

 Summary of Natural Population Analysis:

                                       Natural Population
                Natural  -----------------------------------------------
    Atom  No    Charge         Core      Valence    Rydberg      Total
 -----------------------------------------------------------------------
      C    1   -0.20511      0.99960     2.19482    0.01069     3.20511
      C    2   -0.25001      0.99959     2.23816    0.01226     3.25001
      S    3    0.09912      4.99955     2.88467    0.01666     7.90088
      C    4   -0.10800      0.99950     2.09070    0.01780     3.10800
      C    5   -0.20921      0.99954     2.19652    0.01314     3.20921
      C    6    0.06416      0.99953     1.92223    0.01409     2.93584
      O    7   -0.36808      0.99990     3.36173    0.00645     4.36808
      C    8   -0.22366      0.99955     2.21438    0.00973     3.22366
      S    9    0.07448      4.99967     2.90848    0.01736     7.92552
      C   10   -0.22715      0.99953     2.21533    0.01228     3.22715
      H   11    0.10870      0.00000     0.38935    0.00195     0.39130
      H   12    0.09744      0.00000     0.40041    0.00216     0.40256
      H   13    0.10293      0.00000     0.39418    0.00290     0.39707
      H   14    0.11357      0.00000     0.38344    0.00299     0.38643
      H   15    0.09980      0.00000     0.39874    0.00146     0.40020
      H   16    0.11018      0.00000     0.38828    0.00154     0.38982
      H   17    0.08738      0.00000     0.41011    0.00251     0.41262
      H   18    0.22510      0.00000     0.27164    0.00326     0.27490
      H   19    0.10137      0.00000     0.39751    0.00113     0.39863
      H   20    0.09835      0.00000     0.40056    0.00109     0.40165
      H   21    0.10329      0.00000     0.39491    0.00180     0.39671
      H   22    0.10537      0.00000     0.39288    0.00175     0.39463
 =======================================================================
   * Total *   -0.00000     17.99597    28.84902    0.15501    47.00000

 Normal termination of Gaussian 16 at Tue Dec  8 13:44:45 2020.
