 Gaussian 16, Revision A.03,

 -----------------------------------------------------------
 # opt freq B3LYP/6-31G(d) empiricaldispersion=gd3bj scf=xqc
 -----------------------------------------------------------

 ------------------------------
 CID_146929166_JID_509_neutraal
 ------------------------------
 Symbolic Z-matrix:
 Charge =  0 Multiplicity = 1

 SCF Done:  E(RB3LYP) =  -437.555409350     A.U. after   16 cycles
 SCF Done:  E(RB3LYP) =  -437.560673502     A.U. after   14 cycles
 SCF Done:  E(RB3LYP) =  -437.561985462     A.U. after   14 cycles
 SCF Done:  E(RB3LYP) =  -437.562535162     A.U. after   13 cycles
 SCF Done:  E(RB3LYP) =  -437.563034415     A.U. after   12 cycles
 SCF Done:  E(RB3LYP) =  -437.563163880     A.U. after   13 cycles
 SCF Done:  E(RB3LYP) =  -437.563306141     A.U. after   12 cycles
 SCF Done:  E(RB3LYP) =  -437.563323656     A.U. after   11 cycles
 SCF Done:  E(RB3LYP) =  -437.563326959     A.U. after   10 cycles
 SCF Done:  E(RB3LYP) =  -437.563328761     A.U. after   10 cycles
 SCF Done:  E(RB3LYP) =  -437.563329266     A.U. after    9 cycles
 SCF Done:  E(RB3LYP) =  -437.563329426     A.U. after    7 cycles
 SCF Done:  E(RB3LYP) =  -437.563329452     A.U. after    7 cycles
 Optimization completed.
    -- Stationary point found.

 1\1\GINC-NODE376\FOpt\RB3LYP\6-31G(d)\C7H11N3\VSC10255\08-Dec-2020\0\\
 # opt freq B3LYP/6-31G(d) empiricaldispersion=gd3bj scf=xqc\\CID_14692
 9166_JID_509_neutraal\\0,1\C,1.0302350775,0.006714995,-0.1447284717\N,
 0.371695029,1.254166959,-0.5234063953\C,-1.0845263159,1.226540254,-0.2
 90532651\C,-1.8087462598,0.4650743677,-1.4179847515\C,-2.0575022802,1.
 288220506,-2.6514074731\C,-2.2086949616,2.6231498968,-2.5747655556\C,-
 2.0810521444,3.2923035259,-1.294978101\C,-1.5846319526,2.6547676564,-0
 .2078238787\N,-1.4546405,3.4285827399,0.9588269147\N,-0.8502075069,2.8

 Normal termination of Gaussian 16 at Tue Dec  8 12:26:18 2020.

 --------------------------------------------------------------------
 #N Geom=AllCheck Guess=TCheck SCRF=Check GenChk RB3LYP/6-31G(d) Freq
 --------------------------------------------------------------------

 Structure from the checkpoint file:  "JID_509.chk"
 ------------------------------
 CID_146929166_JID_509_neutraal
 ------------------------------
 Charge =  0 Multiplicity = 1

 SCF Done:  E(RB3LYP) =  -437.563329452     A.U. after    1 cycles

  Exact polarizability: 131.555  12.260  97.762   7.758  -7.938  60.823
 Approx polarizability: 228.334  25.893 145.129  20.389 -16.275  96.119

                      1                      2                      3
                      A                      A                      A
 Frequencies --     58.6897                91.6976               138.6070
 Red. masses --      2.6232                 2.6546                 3.3764
 Frc consts  --      0.0053                 0.0132                 0.0382
 IR Inten    --      1.0145                 1.4840                 0.9068

                      4                      5                      6
                      A                      A                      A
 Frequencies --    190.4286               239.8902               253.1053
 Red. masses --      2.6691                 1.5930                 3.2534
 Frc consts  --      0.0570                 0.0540                 0.1228
 IR Inten    --      0.0348                 2.6723                 0.5577

                      7                      8                      9
                      A                      A                      A
 Frequencies --    267.3261               311.0324               403.3246
 Red. masses --      3.4280                 2.6048                 2.9402
 Frc consts  --      0.1443                 0.1485                 0.2818
 IR Inten    --      3.8046                 1.3861                 6.3324

                     10                     11                     12
                      A                      A                      A
 Frequencies --    462.1146               492.7960               559.2175
 Red. masses --      4.8035                 2.9413                 3.7358
 Frc consts  --      0.6044                 0.4208                 0.6883
 IR Inten    --      1.2168                 0.8267                 7.0412

                     13                     14                     15
                      A                      A                      A
 Frequencies --    607.6249               650.5576               709.4902
 Red. masses --      3.9197                 4.8643                 1.4022
 Frc consts  --      0.8526                 1.2130                 0.4159
 IR Inten    --     10.3896                14.5483                27.5300

                     16                     17                     18
                      A                      A                      A
 Frequencies --    780.0670               803.6499               868.9816
 Red. masses --      2.1726                 2.0144                 2.3326
 Frc consts  --      0.7789                 0.7665                 1.0378
 IR Inten    --     79.2684                28.4510                 7.8770

                     19                     20                     21
                      A                      A                      A
 Frequencies --    904.1163               930.7206               970.9310
 Red. masses --      1.3416                 2.2792                 2.0718
 Frc consts  --      0.6462                 1.1633                 1.1507
 IR Inten    --      8.4029                 7.5858                 3.0997

                     22                     23                     24
                      A                      A                      A
 Frequencies --    981.3459               991.2690              1029.2159
 Red. masses --      1.5080                 1.4515                 2.6041
 Frc consts  --      0.8556                 0.8403                 1.6252
 IR Inten    --     23.8857                 2.0854                11.5400

                     25                     26                     27
                      A                      A                      A
 Frequencies --   1043.7971              1089.5790              1135.8490
 Red. masses --      2.0150                 1.6268                 3.4302
 Frc consts  --      1.2935                 1.1379                 2.6074
 IR Inten    --     12.1224                 5.2838                23.2390

                     28                     29                     30
                      A                      A                      A
 Frequencies --   1160.1632              1172.9349              1195.2901
 Red. masses --      1.4158                 2.6678                 1.1746
 Frc consts  --      1.1228                 2.1625                 0.9888
 IR Inten    --     17.2708                68.1158                 2.4246

                     31                     32                     33
                      A                      A                      A
 Frequencies --   1214.3905              1253.6118              1322.4067
 Red. masses --      1.4819                 1.1891                 1.5035
 Frc consts  --      1.2876                 1.1010                 1.5492
 IR Inten    --      9.2289                12.9894                 0.4927

                     34                     35                     36
                      A                      A                      A
 Frequencies --   1361.9526              1380.7655              1416.0649
 Red. masses --      1.7226                 1.2451                 1.7315
 Frc consts  --      1.8826                 1.3986                 2.0457
 IR Inten    --     16.5050                17.0378                 8.7105

                     37                     38                     39
                      A                      A                      A
 Frequencies --   1447.1702              1478.7046              1490.1094
 Red. masses --      1.7170                 1.1708                 1.1081
 Frc consts  --      2.1187                 1.5083                 1.4497
 IR Inten    --     10.6060                 1.1237                 5.4976

                     40                     41                     42
                      A                      A                      A
 Frequencies --   1516.1228              1519.5465              1528.9436
 Red. masses --      1.1889                 1.3530                 1.2083
 Frc consts  --      1.6102                 1.8406                 1.6641
 IR Inten    --      2.8101                13.6346                23.9129

                     43                     44                     45
                      A                      A                      A
 Frequencies --   1542.5599              1551.1602              1652.3002
 Red. masses --      2.7269                 1.3019                 6.9408
 Frc consts  --      3.8230                 1.8456                11.1645
 IR Inten    --    109.9423                23.2399                30.5562

                     46                     47                     48
                      A                      A                      A
 Frequencies --   1718.4807              2964.3649              2979.9986
 Red. masses --      5.7805                 1.0591                 1.0804
 Frc consts  --     10.0579                 5.4834                 5.6527
 IR Inten    --      1.6625                76.9647                24.3442

                     49                     50                     51
                      A                      A                      A
 Frequencies --   3005.0908              3080.0579              3096.8698
 Red. masses --      1.0743                 1.0764                 1.0861
 Frc consts  --      5.7158                 6.0162                 6.1373
 IR Inten    --     39.0941                23.7799                33.5322

                     52                     53                     54
                      A                      A                      A
 Frequencies --   3122.3689              3181.3649              3198.8074
 Red. masses --      1.1019                 1.0859                 1.0916
 Frc consts  --      6.3296                 6.4755                 6.5812
 IR Inten    --     31.0389                 3.7385                20.1397

                     55                     56                     57
                      A                      A                      A
 Frequencies --   3210.5442              3293.1794              3509.5124
 Red. masses --      1.0959                 1.0749                 1.0739
 Frc consts  --      6.6558                 6.8683                 7.7929
 IR Inten    --     23.5580                22.6627                 0.3706

 - Thermochemistry -
 -------------------
 Temperature   298.150 Kelvin.  Pressure   1.00000 Atm.
 Atom     1 has atomic number  6 and mass  12.00000

 Molecular mass:   137.09530 amu.
 Principal axes and moments of inertia in atomic units:
                           1         2         3
     Eigenvalues --  1114.933541295.766142137.95114
           X            0.99092  -0.13443  -0.00217
           Y            0.13439   0.99085  -0.01277
           Z            0.00387   0.01237   0.99992
 This molecule is an asymmetric top.
 Rotational symmetry number  1.
 Warning -- assumption of classical behavior for rotation
           may cause significant error
 Rotational temperatures (Kelvin)      0.07769     0.06684     0.04051
 Rotational constants (GHZ):           1.61870     1.39280     0.84415
 Zero-point vibrational energy     469715.3 (Joules/Mol)
                                  112.26465 (Kcal/Mol)
 Warning -- explicit consideration of  13 degrees of freedom as
           vibrations may cause significant error
 Vibrational temperatures:     84.44   131.93   199.42   273.98   345.15
          (Kelvin)            364.16   384.62   447.51   580.29   664.88
                              709.02   804.59   874.24   936.01  1020.80
                             1122.34  1156.27  1250.27  1300.82  1339.10
                             1396.95  1411.94  1426.21  1480.81  1501.79
                             1567.66  1634.23  1669.22  1687.59  1719.76
                             1747.24  1803.67  1902.65  1959.55  1986.61
                             2037.40  2082.16  2127.53  2143.94  2181.36
                             2186.29  2199.81  2219.40  2231.77  2377.29
                             2472.51  4265.06  4287.55  4323.66  4431.52
                             4455.70  4492.39  4577.27  4602.37  4619.26
                             4738.15  5049.41

 Zero-point correction=                           0.178905 (Hartree/Particle)
 Thermal correction to Energy=                    0.188484
 Thermal correction to Enthalpy=                  0.189428
 Thermal correction to Gibbs Free Energy=         0.143975
 Sum of electronic and zero-point Energies=           -437.384424
 Sum of electronic and thermal Energies=              -437.374845
 Sum of electronic and thermal Enthalpies=            -437.373901
 Sum of electronic and thermal Free Energies=         -437.419355

                     E (Thermal)             CV                S
                      KCal/Mol        Cal/Mol-Kelvin    Cal/Mol-Kelvin
 Total                  118.275             35.922             95.665
 Electronic               0.000              0.000              0.000
 Translational            0.889              2.981             40.658
 Rotational               0.889              2.981             29.514
 Vibrational            116.498             29.961             25.492
 Vibration     1          0.596              1.974              4.501
 Vibration     2          0.602              1.955              3.624
 Vibration     3          0.614              1.915              2.823
 Vibration     4          0.634              1.853              2.224
 Vibration     5          0.657              1.779              1.804
 Vibration     6          0.664              1.758              1.709
 Vibration     7          0.672              1.733              1.613
 Vibration     8          0.700              1.653              1.357
 Vibration     9          0.769              1.463              0.951
 Vibration    10          0.820              1.334              0.760
 Vibration    11          0.848              1.266              0.676
 Vibration    12          0.915              1.120              0.525
 Vibration    13          0.966              1.016              0.437

 Optimization completed.
    -- Stationary point found.

 1\1\GINC-NODE376\Freq\RB3LYP\6-31G(d)\C7H11N3\VSC10255\08-Dec-2020\0\\
 #N Geom=AllCheck Guess=TCheck SCRF=Check GenChk RB3LYP/6-31G(d) Freq\\
 CID_146929166_JID_509_neutraal\\0,1\C,1.0302350775,0.006714995,-0.1447
 284717\N,0.371695029,1.254166959,-0.5234063953\C,-1.0845263159,1.22654
 0254,-0.290532651\C,-1.8087462598,0.4650743677,-1.4179847515\C,-2.0575
 022802,1.288220506,-2.6514074731\C,-2.2086949616,2.6231498968,-2.57476
 55556\C,-2.0810521444,3.2923035259,-1.294978101\C,-1.5846319526,2.6547
 676564,-0.2078238787\N,-1.4546405,3.4285827399,0.9588269147\N,-0.85020

 Normal termination of Gaussian 16 at Tue Dec  8 12:32:36 2020.

 ----------------------------------------------------------------------
 # B3LYP/6-311++G(d,p) empiricaldispersion=gd3bj scf=xqc pop=npa geom=c
 heck
 ----------------------------------------------------------------------

 --------------------------------------
 CID_146929166_JID_509_Energie_neutraal
 --------------------------------------
 Structure from the checkpoint file:  "JID_509.chk"
 Charge =  0 Multiplicity = 1

 SCF Done:  E(RB3LYP) =  -437.690947443     A.U. after   16 cycles
 Normal termination of Gaussian 16 at Tue Dec  8 12:39:33 2020.

 ----------------------------------------------------------------------
 # B3LYP/6-311++G(d,p) empiricaldispersion=gd3bj scf=xqc pop=npa geom=c
 heck
 ----------------------------------------------------------------------

 ------------------------------------
 CID_146929166_JID_509_Energie_kation
 ------------------------------------
 Structure from the checkpoint file:  "JID_509.chk"
 Charge =  1 Multiplicity = 2

 SCF Done:  E(UB3LYP) =  -437.391761984     A.U. after   31 cycles
 Normal termination of Gaussian 16 at Tue Dec  8 12:50:24 2020.
 Gaussian 16:  ES64L-G16RevA.03 25-Dec-2016

 -----------------------------------
 CID_146929166_JID_509_Energie_anion
 -----------------------------------
 Structure from the checkpoint file:  "JID_509.chk"
 Charge = -1 Multiplicity = 2

                         Standard orientation:
 ---------------------------------------------------------------------
 Center     Atomic      Atomic             Coordinates (Angstroms)
 Number     Number       Type             X           Y           Z
 ---------------------------------------------------------------------
      1          6           0        1.498772   -2.375815   -0.366058
      2          7           0        0.813932   -1.137373   -0.727257
      3          6           0        0.262875   -0.425941    0.441407
      4          6           0       -1.063664   -1.063051    0.899511
      5          6           0       -2.262252   -0.618091    0.108199
      6          6           0       -2.296882    0.594504   -0.474196
      7          6           0       -1.145976    1.471679   -0.385351
      8          6           0        0.051943    1.026499    0.063642
      9          7           0        1.105399    1.957453    0.045854
     10          7           0        2.234792    1.465738    0.326317
     11          1           0        0.777563   -3.119984   -0.010664
     12          1           0        2.265545   -2.247862    0.419800
     13          1           0        1.980074   -2.791247   -1.257026
     14          1           0        1.500051   -0.520231   -1.155871
     15          1           0        0.972810   -0.458518    1.284231
     16          1           0       -0.972855   -2.153806    0.877032
     17          1           0       -1.238422   -0.799434    1.955661
     18          1           0       -3.130335   -1.272005    0.072506
     19          1           0       -3.183139    0.943837   -0.995792
     20          1           0       -1.223434    2.508825   -0.699726
     21          1           0        2.904392    2.251000    0.272521
 ---------------------------------------------------------------------

 SCF Done:  E(UB3LYP) =  -437.713995534     A.U. after   23 cycles

 The electronic state is 2-A.
 Alpha  occ. eigenvalues --  -14.15462 -14.15232 -14.13166 -10.05930 -10.04494
 Alpha  occ. eigenvalues --  -10.02297 -10.00969 -10.00536  -9.99958  -9.98877
 Alpha  occ. eigenvalues --   -0.82556  -0.76093  -0.67087  -0.60083  -0.58351
 Alpha  occ. eigenvalues --   -0.53342  -0.49272  -0.45014  -0.40651  -0.36069
 Alpha  occ. eigenvalues --   -0.33959  -0.31595  -0.30956  -0.29309  -0.27498
 Alpha  occ. eigenvalues --   -0.25948  -0.25298  -0.24504  -0.22490  -0.21921
 Alpha  occ. eigenvalues --   -0.21216  -0.17834  -0.17265  -0.14907  -0.08744
 Alpha  occ. eigenvalues --   -0.06321  -0.04520   0.04246
 Alpha virt. eigenvalues --    0.09102   0.10271   0.11214   0.11609   0.12435
 Alpha virt. eigenvalues --    0.13017   0.13198   0.14592   0.15061   0.15532
 Alpha virt. eigenvalues --    0.16079   0.17392   0.18914   0.19742   0.19987

  Beta  occ. eigenvalues --  -14.15236 -14.15151 -14.12503 -10.05927 -10.04486
  Beta  occ. eigenvalues --  -10.02327 -10.00935 -10.00643  -9.99519  -9.98514
  Beta  occ. eigenvalues --   -0.81615  -0.76047  -0.66678  -0.59401  -0.58167
  Beta  occ. eigenvalues --   -0.53194  -0.48280  -0.44847  -0.40237  -0.35904
  Beta  occ. eigenvalues --   -0.33724  -0.31348  -0.30778  -0.29088  -0.27300
  Beta  occ. eigenvalues --   -0.25754  -0.24926  -0.24391  -0.21871  -0.21418
  Beta  occ. eigenvalues --   -0.19306  -0.17598  -0.17041  -0.13228  -0.08695
  Beta  occ. eigenvalues --   -0.04166  -0.03866
  Beta virt. eigenvalues --    0.09062   0.10202   0.11012   0.11239   0.11744
  Beta virt. eigenvalues --    0.12465   0.13004   0.13147   0.14575   0.15071
  Beta virt. eigenvalues --    0.16198   0.16960   0.17986   0.18954   0.19881

 Mulliken charges and spin densities:
               1          2
     1  C   -0.331898  -0.000760
     2  N   -0.057459  -0.013098
     3  C    0.497639  -0.042944
     4  C   -0.746175   0.017226
     5  C    0.214559   0.274285
     6  C   -0.822889  -0.009742
     7  C    0.118998   0.298765
     8  C   -0.578064  -0.034023
     9  N   -0.131664   0.097096
    10  N   -0.465159   0.386500
    11  H    0.110805   0.000466
    12  H    0.106918  -0.001189
    13  H    0.101189   0.002996
    14  H    0.204500   0.011321
    15  H    0.073196   0.035851
    16  H    0.062279   0.008452
    17  H    0.084589   0.022096
    18  H    0.134209  -0.026981
    19  H    0.078858   0.009273
    20  H    0.124538  -0.022884
    21  H    0.221032  -0.012708
 Sum of Mulliken charges =  -1.00000   1.00000

 Dipole moment (field-independent basis, Debye):
    X=             -0.4563    Y=             -3.5406    Z=              0.1754  Tot=              3.5742
 Quadrupole moment (field-independent basis, Debye-Ang):
   XX=            -82.0710   YY=            -78.2465   ZZ=            -71.0167
   XY=             -3.4578   XZ=             -2.5531   YZ=             -2.2116

 Summary of Natural Population Analysis:

                                       Natural Population
                Natural  -----------------------------------------------
    Atom  No    Charge         Core      Valence    Rydberg      Total
 -----------------------------------------------------------------------
      C    1   -0.17814      0.99967     2.17152    0.00694     3.17814
      N    2   -0.34134      0.99973     2.82860    0.01301     3.84134
      C    3   -0.03008      0.99956     2.01264    0.01788     3.03008
      C    4   -0.20957      0.99961     2.20219    0.00777     3.20957
      C    5    0.01341      0.99956     1.97710    0.00993     2.98659
      C    6   -0.15376      0.99954     2.14430    0.00992     3.15376
      C    7   -0.02181      0.99948     2.01139    0.01094     3.02181
      C    8    0.04365      0.99943     1.93458    0.02234     2.95635
      N    9   -0.09182      0.99973     2.56858    0.02351     3.59182
      N   10   -0.13364      0.99978     2.61812    0.01575     3.63364
      H   11    0.08355      0.00000     0.41529    0.00116     0.41645
      H   12    0.07641      0.00000     0.42162    0.00197     0.42359
      H   13    0.08665      0.00000     0.41244    0.00092     0.41335
      H   14    0.17999      0.00000     0.31670    0.00331     0.32001
      H   15    0.09145      0.00000     0.40578    0.00277     0.40855
      H   16    0.09468      0.00000     0.40417    0.00114     0.40532
      H   17    0.10152      0.00000     0.39714    0.00134     0.39848
      H   18    0.07759      0.00000     0.42122    0.00119     0.42241
      H   19    0.08850      0.00000     0.41041    0.00109     0.41150
      H   20    0.09012      0.00000     0.40778    0.00211     0.40988
      H   21    0.13265      0.00000     0.36430    0.00304     0.36735
 =======================================================================
   * Total *   -0.00000      9.99610    26.84589    0.15802    37.00000

 Normal termination of Gaussian 16 at Tue Dec  8 13:04:02 2020.
