 Gaussian 16, Revision A.03,

 -----------------------------------------------------------
 # opt freq B3LYP/6-31G(d) empiricaldispersion=gd3bj scf=xqc
 -----------------------------------------------------------

 -------------------------------
 CID_104071753_JID_9625_neutraal
 -------------------------------
 Symbolic Z-matrix:
 Charge =  0 Multiplicity = 1

 SCF Done:  E(RB3LYP) =  -842.420680938     A.U. after   15 cycles
 SCF Done:  E(RB3LYP) =  -842.419751889     A.U. after   14 cycles
 SCF Done:  E(RB3LYP) =  -842.424601777     A.U. after   13 cycles
 SCF Done:  E(RB3LYP) =  -842.425440327     A.U. after   13 cycles
 SCF Done:  E(RB3LYP) =  -842.425649094     A.U. after   12 cycles
 SCF Done:  E(RB3LYP) =  -842.425700061     A.U. after   12 cycles
 SCF Done:  E(RB3LYP) =  -842.425768559     A.U. after   11 cycles
 SCF Done:  E(RB3LYP) =  -842.425810872     A.U. after   10 cycles
 SCF Done:  E(RB3LYP) =  -842.425820237     A.U. after   11 cycles
 SCF Done:  E(RB3LYP) =  -842.425824936     A.U. after   10 cycles
 SCF Done:  E(RB3LYP) =  -842.426026073     A.U. after   10 cycles
 SCF Done:  E(RB3LYP) =  -842.426034504     A.U. after   10 cycles
 SCF Done:  E(RB3LYP) =  -842.426037544     A.U. after    9 cycles
 SCF Done:  E(RB3LYP) =  -842.426037667     A.U. after    7 cycles
 SCF Done:  E(RB3LYP) =  -842.426037644     A.U. after    7 cycles
 Optimization completed.
    -- Stationary point found.
 Normal termination of Gaussian 16 at Sun Dec 13 16:54:31 2020.

 --------------------------------------------------------------------
 #N Geom=AllCheck Guess=TCheck SCRF=Check GenChk RB3LYP/6-31G(d) Freq
 --------------------------------------------------------------------

 Structure from the checkpoint file:  "JID_9625.chk"
 -------------------------------
 CID_104071753_JID_9625_neutraal
 -------------------------------
 Charge =  0 Multiplicity = 1

 SCF Done:  E(RB3LYP) =  -842.426037644     A.U. after    1 cycles

  Exact polarizability: 184.703 -13.057 177.303  30.959  18.596 136.194
 Approx polarizability: 284.127 -18.607 283.781  76.655  46.946 238.432

                      1                      2                      3
                      A                      A                      A
 Frequencies --     22.4511                32.8730                43.2994
 Red. masses --      7.2413                 2.7246                 2.8683
 Frc consts  --      0.0022                 0.0017                 0.0032
 IR Inten    --      2.8079                 0.4759                 1.4961

                      4                      5                      6
                      A                      A                      A
 Frequencies --     50.7739                68.5536                82.5610
 Red. masses --      1.2992                 5.2148                 4.4845
 Frc consts  --      0.0020                 0.0144                 0.0180
 IR Inten    --      0.1693                 0.5679                 3.1594

                      7                      8                      9
                      A                      A                      A
 Frequencies --     96.7957               115.9708               145.6368
 Red. masses --      3.2585                 3.2726                 7.0895
 Frc consts  --      0.0180                 0.0259                 0.0886
 IR Inten    --      0.9407                 2.3241                 1.1758

                     10                     11                     12
                      A                      A                      A
 Frequencies --    184.1350               204.6111               214.6477
 Red. masses --      2.6797                 2.7965                 3.3378
 Frc consts  --      0.0535                 0.0690                 0.0906
 IR Inten    --      2.6760                 0.8208                 2.4899

                     13                     14                     15
                      A                      A                      A
 Frequencies --    216.4367               262.7545               269.9135
 Red. masses --      3.5653                 3.4145                 1.7396
 Frc consts  --      0.0984                 0.1389                 0.0747
 IR Inten    --      2.0941                12.2196                 2.8024

                     16                     17                     18
                      A                      A                      A
 Frequencies --    284.5209               336.7074               347.4241
 Red. masses --      3.1428                 2.6268                 2.5924
 Frc consts  --      0.1499                 0.1755                 0.1844
 IR Inten    --      1.1252                10.4811                 2.6315

                     19                     20                     21
                      A                      A                      A
 Frequencies --    397.1877               433.3952               440.0739
 Red. masses --      2.5247                 1.9699                 3.5541
 Frc consts  --      0.2347                 0.2180                 0.4055
 IR Inten    --      1.0554                 1.5221                 1.1361

                     22                     23                     24
                      A                      A                      A
 Frequencies --    463.7882               510.0362               520.0174
 Red. masses --      3.1488                 3.0197                 5.3192
 Frc consts  --      0.3991                 0.4628                 0.8475
 IR Inten    --      2.1633                 2.3989                 4.5938

                     25                     26                     27
                      A                      A                      A
 Frequencies --    546.9772               563.3039               625.4524
 Red. masses --      4.6116                 4.3668                 3.8777
 Frc consts  --      0.8129                 0.8164                 0.8938
 IR Inten    --      4.4240                 3.8822                 2.7604

                     28                     29                     30
                      A                      A                      A
 Frequencies --    639.8759               659.0027               730.4569
 Red. masses --      5.6263                 4.6663                 4.9634
 Frc consts  --      1.3573                 1.1940                 1.5603
 IR Inten    --      2.5270                10.5542                 8.0843

                     31                     32                     33
                      A                      A                      A
 Frequencies --    740.2714               772.4772               786.1248
 Red. masses --      4.5202                 1.8408                 2.6540
 Frc consts  --      1.4595                 0.6472                 0.9663
 IR Inten    --      4.3975                16.7081                19.8447

                     34                     35                     36
                      A                      A                      A
 Frequencies --    794.7175               813.5572               828.5892
 Red. masses --      1.8223                 1.8383                 1.7000
 Frc consts  --      0.6781                 0.7169                 0.6877
 IR Inten    --     40.1399                59.4892                12.3908

                     37                     38                     39
                      A                      A                      A
 Frequencies --    839.8750               875.8631               913.6873
 Red. masses --      1.5372                 1.3621                 1.3514
 Frc consts  --      0.6389                 0.6157                 0.6647
 IR Inten    --      5.1300                 0.1562                 1.3871

                     40                     41                     42
                      A                      A                      A
 Frequencies --    918.9573               954.9953               964.0429
 Red. masses --      2.7062                 2.4342                 2.4282
 Frc consts  --      1.3465                 1.3080                 1.3296
 IR Inten    --      3.7630                 4.3405                 7.8668

                     43                     44                     45
                      A                      A                      A
 Frequencies --    990.9013               998.8431              1001.6531
 Red. masses --      3.8117                 1.3113                 3.3318
 Frc consts  --      2.2051                 0.7708                 1.9696
 IR Inten    --      6.7675                 0.8041                 5.8463

                     46                     47                     48
                      A                      A                      A
 Frequencies --   1004.2253              1012.7510              1027.2614
 Red. masses --      1.7197                 5.2781                 2.5685
 Frc consts  --      1.0218                 3.1896                 1.5970
 IR Inten    --      0.2358                14.4058                 8.8778

                     49                     50                     51
                      A                      A                      A
 Frequencies --   1047.6064              1056.3205              1073.4325
 Red. masses --      1.8329                 1.2899                 1.5822
 Frc consts  --      1.1852                 0.8480                 1.0741
 IR Inten    --      0.6045                45.5826                 4.1338

                     52                     53                     54
                      A                      A                      A
 Frequencies --   1091.7125              1129.4915              1133.2189
 Red. masses --      2.6958                 1.5848                 2.1486
 Frc consts  --      1.8930                 1.1912                 1.6257
 IR Inten    --     14.6203                 8.1070                31.4980

                     55                     56                     57
                      A                      A                      A
 Frequencies --   1169.0335              1195.0319              1196.5739
 Red. masses --      1.8290                 1.3978                 1.3652
 Frc consts  --      1.4727                 1.1761                 1.1516
 IR Inten    --     10.4096                 4.2959                 5.4840

                     58                     59                     60
                      A                      A                      A
 Frequencies --   1221.5840              1253.8960              1260.8765
 Red. masses --      1.7570                 3.8410                 2.0455
 Frc consts  --      1.5448                 3.5581                 1.9160
 IR Inten    --     27.8800                32.6880                13.9445

                     61                     62                     63
                      A                      A                      A
 Frequencies --   1292.5908              1298.6356              1321.4088
 Red. masses --      2.7370                 2.1951                 3.8173
 Frc consts  --      2.6943                 2.1811                 3.9272
 IR Inten    --      0.9211                11.1060                 2.8194

                     64                     65                     66
                      A                      A                      A
 Frequencies --   1326.3498              1357.4106              1381.3641
 Red. masses --      3.5888                 1.2915                 1.2954
 Frc consts  --      3.7197                 1.4021                 1.4564
 IR Inten    --     16.8982                10.8721                12.2089

                     67                     68                     69
                      A                      A                      A
 Frequencies --   1382.7119              1390.2883              1410.2437
 Red. masses --      1.8450                 1.3172                 1.4016
 Frc consts  --      2.0783                 1.5000                 1.6423
 IR Inten    --      0.8874                22.8958                 1.5994

                     70                     71                     72
                      A                      A                      A
 Frequencies --   1422.8870              1437.3835              1443.9474
 Red. masses --      1.2735                 1.2760                 1.4507
 Frc consts  --      1.5192                 1.5532                 1.7821
 IR Inten    --      0.4786                 2.3422                 7.5189

                     73                     74                     75
                      A                      A                      A
 Frequencies --   1449.1890              1475.1027              1487.4473
 Red. masses --      1.9034                 2.3424                 1.0824
 Frc consts  --      2.3552                 3.0029                 1.4110
 IR Inten    --     25.2336                 0.5468                12.8095

                     76                     77                     78
                      A                      A                      A
 Frequencies --   1495.7280              1502.5258              1506.8482
 Red. masses --      1.2027                 1.8914                 1.0574
 Frc consts  --      1.5853                 2.5158                 1.4146
 IR Inten    --     10.6772                43.8715                 6.0408

                     79                     80                     81
                      A                      A                      A
 Frequencies --   1523.1135              1524.7968              1537.1866
 Red. masses --      1.0547                 1.2025                 1.0483
 Frc consts  --      1.4416                 1.6472                 1.4595
 IR Inten    --      6.1742                17.0997                 3.6620

                     82                     83                     84
                      A                      A                      A
 Frequencies --   1549.8052              1560.5150              1626.0791
 Red. masses --      1.0901                 6.3163                 5.8127
 Frc consts  --      1.5427                 9.0625                 9.0554
 IR Inten    --      1.8743                93.0605                 2.0678

                     85                     86                     87
                      A                      A                      A
 Frequencies --   1638.1080              1647.7927              1780.5005
 Red. masses --      6.5296                 5.1039                 9.2238
 Frc consts  --     10.3234                 8.1650                17.2284
 IR Inten    --     47.4170                34.8775               309.2426

                     88                     89                     90
                      A                      A                      A
 Frequencies --   2915.6915              3014.5161              3050.2650
 Red. masses --      1.0833                 1.0638                 1.0613
 Frc consts  --      5.4262                 5.6956                 5.8178
 IR Inten    --    134.5710                30.8051                24.0644

                     91                     92                     93
                      A                      A                      A
 Frequencies --   3052.4018              3057.3138              3061.3379
 Red. masses --      1.0382                 1.0396                 1.0863
 Frc consts  --      5.6992                 5.7252                 5.9984
 IR Inten    --     18.5424                12.9409                40.1708

                     94                     95                     96
                      A                      A                      A
 Frequencies --   3064.5239              3100.4621              3108.8498
 Red. masses --      1.0644                 1.1055                 1.1032
 Frc consts  --      5.8896                 6.2614                 6.2823
 IR Inten    --     39.9720                12.3481                15.1512

                     97                     98                     99
                      A                      A                      A
 Frequencies --   3111.6757              3128.1308              3133.8782
 Red. masses --      1.0981                 1.1021                 1.1029
 Frc consts  --      6.2645                 6.3539                 6.3821
 IR Inten    --     17.8409                22.8497                34.6352

                    100                    101                    102
                      A                      A                      A
 Frequencies --   3138.4117              3190.6718              3207.0290
 Red. masses --      1.1033                 1.0873                 1.0941
 Frc consts  --      6.4027                 6.5216                 6.6299
 IR Inten    --     15.0002                 5.2947                19.1458

                    103                    104                    105
                      A                      A                      A
 Frequencies --   3228.1297              3266.0643              3285.6961
 Red. masses --      1.0938                 1.0941                 1.0999
 Frc consts  --      6.7155                 6.8762                 6.9963
 IR Inten    --      6.7983                 1.8883                 0.7179

 - Thermochemistry -
 -------------------
 Temperature   298.150 Kelvin.  Pressure   1.00000 Atm.
 Atom     1 has atomic number  6 and mass  12.00000

 Molecular mass:   258.13683 amu.
 Principal axes and moments of inertia in atomic units:
                           1         2         3
     Eigenvalues --  3684.988155009.402866680.19049
           X            0.99514  -0.09745   0.01442
           Y            0.09749   0.99523  -0.00245
           Z           -0.01411   0.00385   0.99989
 This molecule is an asymmetric top.
 Rotational symmetry number  1.
 Warning -- assumption of classical behavior for rotation
           may cause significant error
 Rotational temperatures (Kelvin)      0.02350     0.01729     0.01297
 Rotational constants (GHZ):           0.48975     0.36027     0.27016
 Zero-point vibrational energy     810244.0 (Joules/Mol)
                                  193.65296 (Kcal/Mol)
 Warning -- explicit consideration of  26 degrees of freedom as
           vibrations may cause significant error
 Vibrational temperatures:     32.30    47.30    62.30    73.05    98.63
          (Kelvin)            118.79   139.27   166.86   209.54   264.93
                              294.39   308.83   311.40   378.05   388.35
                              409.36   484.45   499.87   571.46   623.56
                              633.17   667.29   733.83   748.19   786.98
                              810.47   899.89   920.64   948.16  1050.96
                             1065.09  1111.42  1131.06  1143.42  1170.53
                             1192.15  1208.39  1260.17  1314.59  1322.17
                             1374.03  1387.04  1425.69  1437.11  1441.16
                             1444.86  1457.12  1478.00  1507.27  1519.81
                             1544.43  1570.73  1625.09  1630.45  1681.98
                             1719.38  1721.60  1757.59  1804.08  1814.12
                             1859.75  1868.45  1901.21  1908.32  1953.01
                             1987.47  1989.41  2000.31  2029.03  2047.22
                             2068.07  2077.52  2085.06  2122.34  2140.10
                             2152.02  2161.80  2168.02  2191.42  2193.84
                             2211.67  2229.82  2245.23  2339.57  2356.87
                             2370.81  2561.74  4195.03  4337.22  4388.65
                             4391.73  4398.79  4404.58  4409.17  4460.87
                             4472.94  4477.01  4500.68  4508.95  4515.47
                             4590.67  4614.20  4644.56  4699.14  4727.38

 Zero-point correction=                           0.308606 (Hartree/Particle)
 Thermal correction to Energy=                    0.326739
 Thermal correction to Enthalpy=                  0.327683
 Thermal correction to Gibbs Free Energy=         0.260475
 Sum of electronic and zero-point Energies=           -842.117432
 Sum of electronic and thermal Energies=              -842.099298
 Sum of electronic and thermal Enthalpies=            -842.098354
 Sum of electronic and thermal Free Energies=         -842.165563

                     E (Thermal)             CV                S
                      KCal/Mol        Cal/Mol-Kelvin    Cal/Mol-Kelvin
 Total                  205.032             67.652            141.452
 Electronic               0.000              0.000              0.000
 Translational            0.889              2.981             42.545
 Rotational               0.889              2.981             33.178
 Vibrational            203.255             61.691             65.730
 Vibration     1          0.593              1.985              6.405
 Vibration     2          0.594              1.983              5.648
 Vibration     3          0.595              1.980              5.102
 Vibration     4          0.595              1.977              4.787
 Vibration     5          0.598              1.969              4.194
 Vibration     6          0.600              1.961              3.829
 Vibration     7          0.603              1.951              3.518
 Vibration     8          0.608              1.936              3.166
 Vibration     9          0.617              1.907              2.728
 Vibration    10          0.631              1.861              2.286
 Vibration    11          0.640              1.833              2.091
 Vibration    12          0.645              1.819              2.004
 Vibration    13          0.645              1.816              1.989
 Vibration    14          0.670              1.741              1.643
 Vibration    15          0.674              1.729              1.597
 Vibration    16          0.683              1.702              1.506
 Vibration    17          0.717              1.602              1.228
 Vibration    18          0.725              1.581              1.178
 Vibration    19          0.764              1.476              0.973
 Vibration    20          0.794              1.397              0.848
 Vibration    21          0.800              1.383              0.826
 Vibration    22          0.821              1.330              0.755
 Vibration    23          0.865              1.228              0.634
 Vibration    24          0.875              1.206              0.610
 Vibration    25          0.902              1.146              0.550
 Vibration    26          0.919              1.111              0.517

 Optimization completed.
    -- Stationary point found.
 Normal termination of Gaussian 16 at Sun Dec 13 17:17:26 2020.

 ----------------------------------------------------------------------
 # B3LYP/6-311++G(d,p) empiricaldispersion=gd3bj scf=xqc pop=npa geom=c
 heck
 ----------------------------------------------------------------------

 ---------------------------------------
 CID_104071753_JID_9625_Energie_neutraal
 ---------------------------------------
 Structure from the checkpoint file:  "JID_9625.chk"
 Charge =  0 Multiplicity = 1

 SCF Done:  E(RB3LYP) =  -842.653492752     A.U. after   16 cycles
 Normal termination of Gaussian 16 at Sun Dec 13 17:27:33 2020.

 ----------------------------------------------------------------------
 # B3LYP/6-311++G(d,p) empiricaldispersion=gd3bj scf=xqc pop=npa geom=c
 heck
 ----------------------------------------------------------------------

 -------------------------------------
 CID_104071753_JID_9625_Energie_kation
 -------------------------------------
 Structure from the checkpoint file:  "JID_9625.chk"
 Charge =  1 Multiplicity = 2

 SCF Done:  E(UB3LYP) =  -842.369100878     A.U. after   27 cycles
 Normal termination of Gaussian 16 at Sun Dec 13 17:51:18 2020.
 Gaussian 16:  ES64L-G16RevA.03 25-Dec-2016

 ----------------------------------------------------------------------
 # B3LYP/6-311++G(d,p) empiricaldispersion=gd3bj scf=xqc pop=npa geom=c
 heck
 ----------------------------------------------------------------------

 ------------------------------------
 CID_104071753_JID_9625_Energie_anion
 ------------------------------------
 Structure from the checkpoint file:  "JID_9625.chk"
 Charge = -1 Multiplicity = 2

                         Standard orientation:
 ---------------------------------------------------------------------
 Center     Atomic      Atomic             Coordinates (Angstroms)
 Number     Number       Type             X           Y           Z
 ---------------------------------------------------------------------
      1          6           0        3.510230   -1.912457    0.165047
      2          6           0        2.099715   -1.857362    0.748277
      3          7           0        1.065608   -2.198156   -0.233584
      4          6           0       -0.258407   -2.490237    0.319281
      5          6           0       -1.139096   -1.297726    0.662764
      6          6           0       -0.806409   -0.398158    1.685241
      7          6           0       -1.613132    0.716654    1.880531
      8          6           0       -2.735453    0.888481    1.072192
      9          6           0       -3.016388   -0.070828    0.095387
     10          7           0       -2.226883   -1.138957   -0.104840
     11          6           0       -4.214375    0.049171   -0.811227
     12          6           0        1.038800   -1.400193   -1.457292
     13          6           0        0.714833    0.058581   -1.306488
     14          6           0       -0.304138    0.850783   -1.777027
     15          6           0       -0.086419    2.148785   -1.245390
     16          6           0        1.055645    2.075097   -0.481169
     17          8           0        1.553718    0.797775   -0.532509
     18          6           0        1.728311    3.058761    0.340501
     19          8           0        2.714927    2.849765    1.026635
     20          1           0        3.676646   -2.858266   -0.361789
     21          1           0        4.244913   -1.828697    0.972560
     22          1           0        3.696057   -1.084142   -0.525451
     23          1           0        2.013825   -2.602367    1.549085
     24          1           0        1.951567   -0.869491    1.209414
     25          1           0       -0.102347   -3.111108    1.209664
     26          1           0       -0.814397   -3.087104   -0.411965
     27          1           0        0.066237   -0.567982    2.305274
     28          1           0       -1.374079    1.440693    2.654518
     29          1           0       -3.387989    1.747146    1.198240
     30          1           0       -3.895272    0.189128   -1.851183
     31          1           0       -4.808441   -0.870117   -0.781716
     32          1           0       -4.853156    0.891692   -0.530548
     33          1           0        2.010943   -1.500150   -1.952907
     34          1           0        0.289080   -1.834569   -2.126832
     35          1           0       -1.124262    0.519363   -2.396358
     36          1           0       -0.697828    3.029379   -1.387595
     37          1           0        1.245963    4.059950    0.299775
 ---------------------------------------------------------------------

 SCF Done:  E(UB3LYP) =  -842.661828036     A.U. after   33 cycles
 SCF Done:  E(UB3LYP) =  -842.661828052     a.u. after    2 cycles

 The electronic state is 2-A.
 Alpha  occ. eigenvalues --  -19.02383 -18.91653 -14.18905 -14.18849 -10.10411
 Alpha  occ. eigenvalues --  -10.09254 -10.08449 -10.08007 -10.07820 -10.07657
 Alpha  occ. eigenvalues --  -10.07271 -10.06820 -10.06374 -10.06338 -10.05706
 Alpha  occ. eigenvalues --  -10.05668 -10.04964 -10.02543 -10.01766  -0.95771
 Alpha  occ. eigenvalues --   -0.85264  -0.83352  -0.80513  -0.68973  -0.68362
 Alpha  occ. eigenvalues --   -0.65604  -0.64461  -0.63357  -0.60120  -0.57545
 Alpha  occ. eigenvalues --   -0.54966  -0.50508  -0.49323  -0.47979  -0.45611
 Alpha  occ. eigenvalues --   -0.44339  -0.40596  -0.39824  -0.38594  -0.37735
 Alpha  occ. eigenvalues --   -0.36196  -0.35399  -0.33835  -0.33108  -0.32230
 Alpha  occ. eigenvalues --   -0.31030  -0.30671  -0.30169  -0.29356  -0.28571
 Alpha  occ. eigenvalues --   -0.28225  -0.28079  -0.27101  -0.26312  -0.25705
 Alpha  occ. eigenvalues --   -0.24901  -0.24764  -0.24551  -0.24045  -0.23422
 Alpha  occ. eigenvalues --   -0.21956  -0.21458  -0.17584  -0.14986  -0.14430
 Alpha  occ. eigenvalues --   -0.13951  -0.09848  -0.08344  -0.08178   0.04979
 Alpha virt. eigenvalues --    0.07183   0.07617   0.07895   0.08759   0.08944
 Alpha virt. eigenvalues --    0.09482   0.09935   0.10556   0.10815   0.11479
 Alpha virt. eigenvalues --    0.12090   0.12244   0.12598   0.13078   0.13466

  Beta  occ. eigenvalues --  -19.02146 -18.91077 -14.18851 -14.18792 -10.10432
  Beta  occ. eigenvalues --  -10.09191 -10.08453 -10.08032 -10.07819 -10.07648
  Beta  occ. eigenvalues --  -10.07270 -10.06505 -10.06321 -10.06284 -10.05661
  Beta  occ. eigenvalues --  -10.05365 -10.04958 -10.02655 -10.01534  -0.95369
  Beta  occ. eigenvalues --   -0.84219  -0.83248  -0.80418  -0.68866  -0.68298
  Beta  occ. eigenvalues --   -0.65334  -0.64308  -0.63155  -0.59979  -0.57322
  Beta  occ. eigenvalues --   -0.54818  -0.50415  -0.49266  -0.47439  -0.45433
  Beta  occ. eigenvalues --   -0.43905  -0.40407  -0.39749  -0.38541  -0.37584
  Beta  occ. eigenvalues --   -0.36114  -0.35138  -0.33776  -0.33067  -0.32098
  Beta  occ. eigenvalues --   -0.30742  -0.30412  -0.29744  -0.29205  -0.28348
  Beta  occ. eigenvalues --   -0.28162  -0.27796  -0.26971  -0.26188  -0.25605
  Beta  occ. eigenvalues --   -0.24730  -0.24574  -0.24222  -0.23992  -0.23357
  Beta  occ. eigenvalues --   -0.21639  -0.18779  -0.17224  -0.14884  -0.14060
  Beta  occ. eigenvalues --   -0.13022  -0.09618  -0.07675  -0.06715
  Beta virt. eigenvalues --    0.07128   0.07735   0.07964   0.08823   0.09073
  Beta virt. eigenvalues --    0.09386   0.09855   0.10524   0.10757   0.11330
  Beta virt. eigenvalues --    0.11823   0.12035   0.12188   0.12522   0.12984

 Mulliken charges and spin densities:
               1          2
     1  C   -0.513814  -0.092166
     2  C   -0.211507   0.015035
     3  N    0.227493   0.018674
     4  C   -0.541029  -0.225603
     5  C   -0.060284   0.329264
     6  C   -0.139791  -0.118961
     7  C   -0.021803   0.000373
     8  C   -0.439298   0.025081
     9  C    0.100009   0.009308
    10  N    0.075145   0.015324
    11  C   -0.328034   0.009590
    12  C   -0.878265  -0.055269
    13  C    0.312444   0.272870
    14  C   -0.092096  -0.092300
    15  C   -0.184044   0.131254
    16  C    0.407620   0.072943
    17  O    0.052004   0.048221
    18  C   -0.627835   0.256270
    19  O   -0.383179   0.190722
    20  H    0.094911   0.043223
    21  H    0.091865   0.021668
    22  H    0.152180   0.024606
    23  H    0.078408   0.036286
    24  H    0.163312  -0.031667
    25  H    0.109367   0.022194
    26  H    0.145222   0.020321
    27  H    0.168684  -0.004432
    28  H    0.158154   0.020417
    29  H    0.136079  -0.006834
    30  H    0.150280  -0.000343
    31  H    0.150297  -0.001291
    32  H    0.123159   0.003744
    33  H    0.123012   0.055537
    34  H    0.140984   0.001293
    35  H    0.123973   0.008246
    36  H    0.129284  -0.002281
    37  H    0.007095  -0.021320
 Sum of Mulliken charges =  -1.00000   1.00000

 Dipole moment (field-independent basis, Debye):
    X=             -6.1684    Y=             -4.5642    Z=             -0.1726  Tot=              7.6753
 Quadrupole moment (field-independent basis, Debye-Ang):
   XX=           -149.6268   YY=           -150.0416   ZZ=           -126.0553
   XY=            -21.1967   XZ=             -3.5388   YZ=             -5.0551

 Summary of Natural Population Analysis:

                                       Natural Population
                Natural  -----------------------------------------------
    Atom  No    Charge         Core      Valence    Rydberg      Total
 -----------------------------------------------------------------------
      C    1   -0.29029      0.99966     2.28604    0.00459     3.29029
      C    2   -0.08706      0.99962     2.07669    0.01074     3.08706
      N    3   -0.27197      0.99973     2.75783    0.01441     3.77197
      C    4   -0.09350      0.99957     2.08075    0.01318     3.09350
      C    5    0.11241      0.99954     1.87253    0.01552     2.88759
      C    6   -0.11444      0.99950     2.10702    0.00792     3.11444
      C    7   -0.07209      0.99957     2.06381    0.00871     3.07209
      C    8   -0.10920      0.99951     2.10215    0.00753     3.10920
      C    9    0.10200      0.99955     1.88666    0.01178     2.89800
      N   10   -0.24524      0.99965     2.73336    0.01223     3.74524
      C   11   -0.29489      0.99964     2.29043    0.00482     3.29489
      C   12   -0.10973      0.99957     2.09812    0.01205     3.10973
      C   13    0.19935      0.99948     1.78588    0.01529     2.80065
      C   14   -0.18404      0.99950     2.17618    0.00835     3.18404
      C   15   -0.09018      0.99952     2.08313    0.00753     3.09018
      C   16    0.09519      0.99944     1.88902    0.01635     2.90481
      O   17   -0.21812      0.99984     3.20834    0.00993     4.21812
      C   18    0.21664      0.99967     1.76412    0.01957     2.78336
      O   19   -0.24342      0.99988     3.23568    0.00786     4.24342
      H   20    0.09250      0.00000     0.40574    0.00176     0.40750
      H   21    0.09768      0.00000     0.40155    0.00077     0.40232
      H   22    0.10532      0.00000     0.39349    0.00120     0.39468
      H   23    0.08453      0.00000     0.41441    0.00105     0.41547
      H   24    0.09403      0.00000     0.40321    0.00276     0.40597
      H   25    0.09450      0.00000     0.40449    0.00101     0.40550
      H   26    0.09960      0.00000     0.39922    0.00118     0.40040
      H   27    0.10422      0.00000     0.39470    0.00108     0.39578
      H   28    0.09927      0.00000     0.39931    0.00142     0.40073
      H   29    0.09593      0.00000     0.40309    0.00099     0.40407
      H   30    0.10480      0.00000     0.39425    0.00095     0.39520
      H   31    0.10289      0.00000     0.39613    0.00098     0.39711
      H   32    0.09505      0.00000     0.40419    0.00076     0.40495
      H   33    0.10157      0.00000     0.39724    0.00119     0.39843
      H   34    0.10109      0.00000     0.39800    0.00090     0.39891
      H   35    0.10057      0.00000     0.39821    0.00122     0.39943
      H   36    0.09601      0.00000     0.40312    0.00087     0.40399
      H   37    0.02899      0.00000     0.46811    0.00289     0.47101
 =======================================================================
   * Total *    0.00000     18.99244    49.77624    0.23132    69.00000

 Normal termination of Gaussian 16 at Sun Dec 13 18:44:52 2020.
