 Gaussian 16, Revision A.03,

 -----------------------------------------------------------
 # opt freq B3LYP/6-31G(d) empiricaldispersion=gd3bj scf=xqc
 -----------------------------------------------------------

 ------------------------------
 CID_60798545_JID_6766_neutraal
 ------------------------------
 Symbolic Z-matrix:
 Charge =  0 Multiplicity = 1

 SCF Done:  E(RB3LYP) =  -696.041517463     A.U. after   13 cycles
 SCF Done:  E(RB3LYP) =  -696.043667993     A.U. after   12 cycles
 SCF Done:  E(RB3LYP) =  -696.044427117     A.U. after   11 cycles
 SCF Done:  E(RB3LYP) =  -696.045405828     A.U. after   11 cycles
 SCF Done:  E(RB3LYP) =  -696.045483835     A.U. after   11 cycles
 SCF Done:  E(RB3LYP) =  -696.045508842     A.U. after   11 cycles
 SCF Done:  E(RB3LYP) =  -696.045521103     A.U. after    9 cycles
 SCF Done:  E(RB3LYP) =  -696.045528783     A.U. after   10 cycles
 SCF Done:  E(RB3LYP) =  -696.045532829     A.U. after    8 cycles
 SCF Done:  E(RB3LYP) =  -696.045537014     A.U. after    9 cycles
 SCF Done:  E(RB3LYP) =  -696.045553970     A.U. after    8 cycles
 SCF Done:  E(RB3LYP) =  -696.045554264     A.U. after    8 cycles
 SCF Done:  E(RB3LYP) =  -696.045554608     A.U. after    8 cycles
 SCF Done:  E(RB3LYP) =  -696.045554784     A.U. after    8 cycles
 SCF Done:  E(RB3LYP) =  -696.045554799     A.U. after    7 cycles
 Optimization completed.
    -- Stationary point found.
 Normal termination of Gaussian 16 at Fri Dec 11 00:33:20 2020.

 --------------------------------------------------------------------
 #N Geom=AllCheck Guess=TCheck SCRF=Check GenChk RB3LYP/6-31G(d) Freq
 --------------------------------------------------------------------

 Structure from the checkpoint file:  "JID_6766.chk"
 ------------------------------
 CID_60798545_JID_6766_neutraal
 ------------------------------
 Charge =  0 Multiplicity = 1

 SCF Done:  E(RB3LYP) =  -696.045554799     A.U. after    1 cycles

  Exact polarizability: 186.377  13.161 145.432 -18.643  10.974 112.289
 Approx polarizability: 239.267  23.243 225.572 -34.741  26.536 179.623

                      1                      2                      3
                      A                      A                      A
 Frequencies --     17.6584                23.2800                31.3843
 Red. masses --      1.0689                 3.2821                 2.8565
 Frc consts  --      0.0002                 0.0010                 0.0017
 IR Inten    --      0.1589                 0.3558                 0.7514

                      4                      5                      6
                      A                      A                      A
 Frequencies --     46.7408                67.2314                86.6399
 Red. masses --      3.6852                 5.1861                 3.8443
 Frc consts  --      0.0047                 0.0138                 0.0170
 IR Inten    --      0.5827                 0.5325                 0.8244

                      7                      8                      9
                      A                      A                      A
 Frequencies --    118.2716               172.9661               194.8836
 Red. masses --      3.6413                 3.0800                 4.2451
 Frc consts  --      0.0300                 0.0543                 0.0950
 IR Inten    --      0.2733                 1.6721                 1.5968

                     10                     11                     12
                      A                      A                      A
 Frequencies --    246.2369               273.7843               306.2862
 Red. masses --      2.2837                 3.6715                 2.4858
 Frc consts  --      0.0816                 0.1621                 0.1374
 IR Inten    --      1.4834                 2.2032                 0.4311

                     13                     14                     15
                      A                      A                      A
 Frequencies --    324.0937               351.7422               393.2459
 Red. masses --      3.9214                 5.0119                 2.3331
 Frc consts  --      0.2427                 0.3653                 0.2126
 IR Inten    --      0.3358                 2.0151                 0.0883

                     16                     17                     18
                      A                      A                      A
 Frequencies --    420.8012               429.8929               440.7421
 Red. masses --      2.9810                 3.0906                 2.2868
 Frc consts  --      0.3110                 0.3365                 0.2617
 IR Inten    --      0.0238                 0.2224                 1.8076

                     19                     20                     21
                      A                      A                      A
 Frequencies --    508.5801               549.6238               559.1398
 Red. masses --      3.0958                 1.8124                 3.3530
 Frc consts  --      0.4718                 0.3226                 0.6176
 IR Inten    --      8.4419                28.9923                 0.5557

                     22                     23                     24
                      A                      A                      A
 Frequencies --    572.5516               609.2335               660.8318
 Red. masses --      1.2400                 2.0271                 6.5435
 Frc consts  --      0.2395                 0.4433                 1.6836
 IR Inten    --    104.0395                 2.3819                 0.0277

                     25                     26                     27
                      A                      A                      A
 Frequencies --    681.4159               726.4393               770.4868
 Red. masses --      3.1221                 3.6045                 3.0716
 Frc consts  --      0.8541                 1.1207                 1.0743
 IR Inten    --      3.9221                 1.0914                 1.5970

                     28                     29                     30
                      A                      A                      A
 Frequencies --    803.0044               822.6542               857.4624
 Red. masses --      3.3644                 1.7661                 1.2531
 Frc consts  --      1.2782                 0.7042                 0.5428
 IR Inten    --     10.0412                28.2884                 0.1545

                     31                     32                     33
                      A                      A                      A
 Frequencies --    859.6517               867.8379               888.6926
 Red. masses --      3.8687                 2.7078                 1.9238
 Frc consts  --      1.6844                 1.2015                 0.8952
 IR Inten    --      0.1056                 6.9131                 7.7244

                     34                     35                     36
                      A                      A                      A
 Frequencies --    895.9723               925.4317               943.5616
 Red. masses --      1.5848                 1.9078                 2.2569
 Frc consts  --      0.7496                 0.9626                 1.1839
 IR Inten    --      0.6295                 6.5408                 4.2287

                     37                     38                     39
                      A                      A                      A
 Frequencies --    957.2877               964.1002               973.3006
 Red. masses --      1.4191                 1.3475                 1.9465
 Frc consts  --      0.7662                 0.7380                 1.0864
 IR Inten    --      1.0741                 1.0226                22.0924

                     40                     41                     42
                      A                      A                      A
 Frequencies --    990.0447              1019.9675              1037.6552
 Red. masses --      1.7482                 1.4593                 1.7025
 Frc consts  --      1.0096                 0.8944                 1.0801
 IR Inten    --      4.1679                 1.9469                10.2004

                     43                     44                     45
                      A                      A                      A
 Frequencies --   1044.8284              1050.9530              1076.1179
 Red. masses --      2.7574                 2.9116                 1.5145
 Frc consts  --      1.7735                 1.8947                 1.0333
 IR Inten    --      6.3780                31.6050                 6.3546

                     46                     47                     48
                      A                      A                      A
 Frequencies --   1097.4137              1105.3786              1133.1652
 Red. masses --      2.7061                 3.7950                 2.5235
 Frc consts  --      1.9202                 2.7321                 1.9091
 IR Inten    --     20.6531               174.0359                31.7405

                     49                     50                     51
                      A                      A                      A
 Frequencies --   1139.1714              1159.8766              1198.2303
 Red. masses --      1.5698                 1.4790                 1.4241
 Frc consts  --      1.2003                 1.1723                 1.2047
 IR Inten    --     60.6724                18.8807                 1.0136

                     52                     53                     54
                      A                      A                      A
 Frequencies --   1210.9514              1219.3421              1221.7551
 Red. masses --      1.4501                 1.3479                 1.1661
 Frc consts  --      1.2528                 1.1808                 1.0255
 IR Inten    --     13.1244                 3.8808                 1.0425

                     55                     56                     57
                      A                      A                      A
 Frequencies --   1236.4088              1247.5990              1262.8140
 Red. masses --      3.4221                 2.2884                 1.2467
 Frc consts  --      3.0823                 2.0986                 1.1714
 IR Inten    --      0.6013                 2.2072                17.5230

                     58                     59                     60
                      A                      A                      A
 Frequencies --   1280.1029              1298.6075              1324.3214
 Red. masses --      1.2365                 1.3746                 1.3532
 Frc consts  --      1.1938                 1.3658                 1.3983
 IR Inten    --     11.9039                 0.6111                 1.0564

                     61                     62                     63
                      A                      A                      A
 Frequencies --   1346.4759              1353.2942              1359.5674
 Red. masses --      1.4698                 1.9914                 2.1143
 Frc consts  --      1.5700                 2.1488                 2.3026
 IR Inten    --      0.2322                 0.0504                 1.4219

                     64                     65                     66
                      A                      A                      A
 Frequencies --   1365.7782              1377.6088              1384.7115
 Red. masses --      1.3129                 1.2440                 1.3425
 Frc consts  --      1.4430                 1.3910                 1.5166
 IR Inten    --      0.6271                 3.6838                 1.2871

                     67                     68                     69
                      A                      A                      A
 Frequencies --   1407.3135              1412.5629              1437.1831
 Red. masses --      1.4054                 1.3408                 1.4810
 Frc consts  --      1.6399                 1.5763                 1.8024
 IR Inten    --     21.2960                10.3877                 4.5692

                     70                     71                     72
                      A                      A                      A
 Frequencies --   1442.9677              1462.7144              1489.5753
 Red. masses --      1.2492                 2.4063                 1.1507
 Frc consts  --      1.5324                 3.0333                 1.5043
 IR Inten    --      0.1544                 1.5005                42.4479

                     73                     74                     75
                      A                      A                      A
 Frequencies --   1502.5274              1516.2086              1516.7734
 Red. masses --      1.1584                 1.0904                 1.0477
 Frc consts  --      1.5408                 1.4770                 1.4201
 IR Inten    --     51.2557                 4.0130                 5.7217

                     76                     77                     78
                      A                      A                      A
 Frequencies --   1523.6024              1526.2635              1527.5635
 Red. masses --      1.0979                 1.1025                 1.1041
 Frc consts  --      1.5016                 1.5131                 1.5180
 IR Inten    --      4.8672                10.6162                 4.1969

                     79                     80                     81
                      A                      A                      A
 Frequencies --   1558.9048              1567.8103              1633.1436
 Red. masses --      1.0976                 2.5407                 5.5575
 Frc consts  --      1.5716                 3.6795                 8.7333
 IR Inten    --      3.1976                22.2679                 0.5312

                     82                     83                     84
                      A                      A                      A
 Frequencies --   1679.4804              3019.7457              3040.8766
 Red. masses --      5.8756                 1.0701                 1.0395
 Frc consts  --      9.7645                 5.7491                 5.6633
 IR Inten    --      0.3981                76.9789                39.5047

                     85                     86                     87
                      A                      A                      A
 Frequencies --   3042.3346              3048.4387              3054.8233
 Red. masses --      1.0732                 1.0794                 1.0686
 Frc consts  --      5.8527                 5.9099                 5.8754
 IR Inten    --      7.2322                27.5197                11.4377

                     88                     89                     90
                      A                      A                      A
 Frequencies --   3055.7999              3061.2142              3067.7995
 Red. masses --      1.0673                 1.0693                 1.0630
 Frc consts  --      5.8718                 5.9037                 5.8944
 IR Inten    --     18.8294                46.3108                24.4362

                     91                     92                     93
                      A                      A                      A
 Frequencies --   3095.1674              3095.8163              3096.8554
 Red. masses --      1.0977                 1.1029                 1.1038
 Frc consts  --      6.1959                 6.2280                 6.2369
 IR Inten    --     25.8073                42.3123                27.0298

                     94                     95                     96
                      A                      A                      A
 Frequencies --   3100.5243              3120.5790              3124.0557
 Red. masses --      1.0950                 1.0984                 1.1017
 Frc consts  --      6.2023                 6.3020                 6.3353
 IR Inten    --     47.9798                17.4122                17.2901

                     97                     98                     99
                      A                      A                      A
 Frequencies --   3128.0622              3169.3543              3169.8729
 Red. masses --      1.1048                 1.0865                 1.0866
 Frc consts  --      6.3693                 6.4299                 6.4326
 IR Inten    --     48.5675                30.1296                 2.4191

                    100                    101                    102
                      A                      A                      A
 Frequencies --   3186.1251              3189.5392              3646.6700
 Red. masses --      1.0937                 1.0945                 1.0652
 Frc consts  --      6.5417                 6.5603                 8.3460
 IR Inten    --     49.9917                 0.2893               189.4876

 - Thermochemistry -
 -------------------
 Temperature   298.150 Kelvin.  Pressure   1.00000 Atm.
 Atom     1 has atomic number  6 and mass  12.00000

 Molecular mass:   220.14633 amu.
 Principal axes and moments of inertia in atomic units:
                           1         2         3
     Eigenvalues --  1865.519456676.534437792.39021
           X            0.99999  -0.00297  -0.00280
           Y            0.00297   0.99999   0.00113
           Z            0.00279  -0.00114   1.00000
 This molecule is an asymmetric top.
 Rotational symmetry number  1.
 Warning -- assumption of classical behavior for rotation
           may cause significant error
 Rotational temperatures (Kelvin)      0.04643     0.01297     0.01112
 Rotational constants (GHZ):           0.96742     0.27031     0.23160
 Zero-point vibrational energy     835014.6 (Joules/Mol)
                                  199.57327 (Kcal/Mol)
 Warning -- explicit consideration of  23 degrees of freedom as
           vibrations may cause significant error
 Vibrational temperatures:     25.41    33.49    45.16    67.25    96.73
          (Kelvin)            124.66   170.17   248.86   280.39   354.28
                              393.91   440.68   466.30   506.08   565.79
                              605.44   618.52   634.13   731.73   790.79
                              804.48   823.77   876.55   950.79   980.41
                             1045.18  1108.56  1155.34  1183.62  1233.70
                             1236.85  1248.63  1278.63  1289.10  1331.49
                             1357.57  1377.32  1387.13  1400.36  1424.45
                             1467.51  1492.95  1503.28  1512.09  1548.29
                             1578.93  1590.39  1630.37  1639.01  1668.80
                             1723.99  1742.29  1754.36  1757.83  1778.92
                             1795.02  1816.91  1841.78  1868.41  1905.40
                             1937.28  1947.09  1956.11  1965.05  1982.07
                             1992.29  2024.81  2032.36  2067.79  2076.11
                             2104.52  2143.17  2161.80  2181.49  2182.30
                             2192.12  2195.95  2197.82  2242.92  2255.73
                             2349.73  2416.40  4344.74  4375.14  4377.24
                             4386.02  4395.21  4396.61  4404.40  4413.88
                             4453.26  4454.19  4455.68  4460.96  4489.82
                             4494.82  4500.58  4559.99  4560.74  4584.12
                             4589.04  5246.74

 Zero-point correction=                           0.318040 (Hartree/Particle)
 Thermal correction to Energy=                    0.333691
 Thermal correction to Enthalpy=                  0.334635
 Thermal correction to Gibbs Free Energy=         0.271772
 Sum of electronic and zero-point Energies=           -695.727515
 Sum of electronic and thermal Energies=              -695.711864
 Sum of electronic and thermal Enthalpies=            -695.710920
 Sum of electronic and thermal Free Energies=         -695.773783

                     E (Thermal)             CV                S
                      KCal/Mol        Cal/Mol-Kelvin    Cal/Mol-Kelvin
 Total                  209.394             59.463            132.305
 Electronic               0.000              0.000              0.000
 Translational            0.889              2.981             42.070
 Rotational               0.889              2.981             32.940
 Vibrational            207.617             53.501             57.296
 Vibration     1          0.593              1.986              6.881
 Vibration     2          0.593              1.985              6.333
 Vibration     3          0.594              1.983              5.740
 Vibration     4          0.595              1.979              4.951
 Vibration     5          0.598              1.970              4.233
 Vibration     6          0.601              1.959              3.735
 Vibration     7          0.608              1.934              3.128
 Vibration     8          0.626              1.876              2.403
 Vibration     9          0.636              1.847              2.181
 Vibration    10          0.661              1.769              1.757
 Vibration    11          0.676              1.722              1.572
 Vibration    12          0.697              1.662              1.382
 Vibration    13          0.709              1.627              1.289
 Vibration    14          0.728              1.572              1.158
 Vibration    15          0.760              1.485              0.988
 Vibration    16          0.783              1.425              0.889
 Vibration    17          0.791              1.405              0.859
 Vibration    18          0.801              1.381              0.824
 Vibration    19          0.864              1.231              0.637
 Vibration    20          0.905              1.141              0.545
 Vibration    21          0.915              1.120              0.526
 Vibration    22          0.929              1.091              0.499
 Vibration    23          0.968              1.012              0.434

 Optimization completed.
    -- Stationary point found.
 Normal termination of Gaussian 16 at Fri Dec 11 00:44:49 2020.

 ----------------------------------------------------------------------
 # B3LYP/6-311++G(d,p) empiricaldispersion=gd3bj scf=xqc pop=npa geom=c
 heck
 ----------------------------------------------------------------------

 --------------------------------------
 CID_60798545_JID_6766_Energie_neutraal
 --------------------------------------
 Structure from the checkpoint file:  "JID_6766.chk"
 Charge =  0 Multiplicity = 1

 SCF Done:  E(RB3LYP) =  -696.243405088     A.U. after   15 cycles
 Normal termination of Gaussian 16 at Fri Dec 11 00:50:00 2020.

 ----------------------------------------------------------------------
 # B3LYP/6-311++G(d,p) empiricaldispersion=gd3bj scf=xqc pop=npa geom=c
 heck
 ----------------------------------------------------------------------

 ------------------------------------
 CID_60798545_JID_6766_Energie_kation
 ------------------------------------
 Structure from the checkpoint file:  "JID_6766.chk"
 Charge =  1 Multiplicity = 2

 SCF Done:  E(UB3LYP) =  -695.947534585     A.U. after   24 cycles
 Normal termination of Gaussian 16 at Fri Dec 11 01:01:08 2020.
 Gaussian 16:  ES64L-G16RevA.03 25-Dec-2016

 ----------------------------------------------------------------------
 # B3LYP/6-311++G(d,p) empiricaldispersion=gd3bj scf=xqc pop=npa geom=c
 heck
 ----------------------------------------------------------------------

 -----------------------------------
 CID_60798545_JID_6766_Energie_anion
 -----------------------------------
 Structure from the checkpoint file:  "JID_6766.chk"
 Charge = -1 Multiplicity = 2

                         Standard orientation:
 ---------------------------------------------------------------------
 Center     Atomic      Atomic             Coordinates (Angstroms)
 Number     Number       Type             X           Y           Z
 ---------------------------------------------------------------------
      1          6           0       -5.008798   -1.486144    0.377011
      2          6           0       -3.768528   -0.695703    0.037572
      3          6           0       -2.787818   -1.211529   -0.814104
      4          6           0       -1.632954   -0.484542   -1.106217
      5          6           0       -1.417689    0.784758   -0.560395
      6          6           0       -2.408310    1.306242    0.284874
      7          6           0       -3.558962    0.580448    0.578302
      8          6           0       -0.153569    1.561536   -0.838170
      9          6           0        0.733094    1.770382    0.411449
     10          6           0        1.156165    0.461859    1.102552
     11          6           0        1.851602   -0.546075    0.193651
     12          6           0        2.517198   -1.721710    0.920424
     13          6           0        3.712629   -2.044651    0.014681
     14          6           0        4.134609   -0.647319   -0.441275
     15          8           0        2.918761    0.102803   -0.551585
     16          8           0        1.860148    2.571833    0.089123
     17          1           0       -5.145116   -2.328635   -0.308401
     18          1           0       -4.956328   -1.894427    1.394865
     19          1           0       -5.908178   -0.861777    0.327346
     20          1           0       -2.929985   -2.193725   -1.259157
     21          1           0       -0.892133   -0.905810   -1.781920
     22          1           0       -2.278521    2.298177    0.711438
     23          1           0       -4.312424    1.012208    1.233569
     24          1           0        0.438464    1.059806   -1.612253
     25          1           0       -0.389155    2.560226   -1.224452
     26          1           0        0.156310    2.353104    1.140347
     27          1           0        1.828627    0.728759    1.927166
     28          1           0        0.275208   -0.026622    1.536695
     29          1           0        1.137272   -0.927907   -0.546386
     30          1           0        2.865356   -1.403001    1.910696
     31          1           0        1.832252   -2.563207    1.057460
     32          1           0        4.514964   -2.583170    0.527413
     33          1           0        3.392198   -2.644163   -0.845114
     34          1           0        4.797681   -0.173121    0.297117
     35          1           0        4.635039   -0.633021   -1.414644
     36          1           0        2.495197    1.963909   -0.334208
 ---------------------------------------------------------------------

 SCF Done:  E(UB3LYP) =  -696.230861050     A.U. after   33 cycles
 SCF Done:  E(UB3LYP) =  -696.230861050     a.u. after    1 cycles

 The electronic state is 2-A.
 Alpha  occ. eigenvalues --  -19.03690 -19.01520 -10.13059 -10.13017 -10.12557
 Alpha  occ. eigenvalues --  -10.09267 -10.09107 -10.08474 -10.08360 -10.08204
 Alpha  occ. eigenvalues --  -10.08086 -10.07940 -10.07902 -10.07857 -10.07760
 Alpha  occ. eigenvalues --  -10.07661  -0.95067  -0.92120  -0.77298  -0.71427
 Alpha  occ. eigenvalues --   -0.69831  -0.68395  -0.65689  -0.64652  -0.60721
 Alpha  occ. eigenvalues --   -0.57351  -0.52631  -0.51482  -0.50996  -0.48909
 Alpha  occ. eigenvalues --   -0.47392  -0.42150  -0.41403  -0.40241  -0.38808
 Alpha  occ. eigenvalues --   -0.38682  -0.36515  -0.35979  -0.34986  -0.33608
 Alpha  occ. eigenvalues --   -0.33170  -0.33054  -0.32751  -0.31464  -0.30358
 Alpha  occ. eigenvalues --   -0.29741  -0.28205  -0.27722  -0.26841  -0.26588
 Alpha  occ. eigenvalues --   -0.25752  -0.25547  -0.24990  -0.24730  -0.24161
 Alpha  occ. eigenvalues --   -0.21089  -0.18197  -0.17097  -0.16514  -0.14603
 Alpha  occ. eigenvalues --    0.04068
 Alpha virt. eigenvalues --    0.05550   0.06749   0.06953   0.07181   0.07394
 Alpha virt. eigenvalues --    0.07828   0.08279   0.09133   0.09471   0.09842
 Alpha virt. eigenvalues --    0.09946   0.10535   0.10877   0.11548   0.11746

  Beta  occ. eigenvalues --  -19.03689 -19.01518 -10.13052 -10.13017 -10.12534
  Beta  occ. eigenvalues --  -10.09268 -10.09107 -10.08470 -10.08349 -10.08195
  Beta  occ. eigenvalues --  -10.08069 -10.07917 -10.07899 -10.07820 -10.07726
  Beta  occ. eigenvalues --  -10.07655  -0.95058  -0.92115  -0.77287  -0.71413
  Beta  occ. eigenvalues --   -0.69798  -0.68363  -0.65668  -0.64627  -0.60686
  Beta  occ. eigenvalues --   -0.57313  -0.52605  -0.51449  -0.50917  -0.48878
  Beta  occ. eigenvalues --   -0.47362  -0.42121  -0.41366  -0.40206  -0.38786
  Beta  occ. eigenvalues --   -0.38652  -0.36480  -0.35958  -0.34965  -0.33586
  Beta  occ. eigenvalues --   -0.33142  -0.33026  -0.32724  -0.31437  -0.30331
  Beta  occ. eigenvalues --   -0.29711  -0.28182  -0.27702  -0.26801  -0.26561
  Beta  occ. eigenvalues --   -0.25732  -0.25521  -0.24965  -0.24702  -0.24125
  Beta  occ. eigenvalues --   -0.21078  -0.18190  -0.17086  -0.16502  -0.14594
  Beta virt. eigenvalues --    0.06079   0.06612   0.07071   0.07181   0.07268
  Beta virt. eigenvalues --    0.07878   0.08329   0.08716   0.09539   0.09785
  Beta virt. eigenvalues --    0.09943   0.10324   0.10935   0.11129   0.11743

 Mulliken charges and spin densities:
               1          2
     1  C    2.345257  -3.005182
     2  C   -0.164603   0.569184
     3  C   -0.113121  -0.522138
     4  C   -0.279986  -0.007117
     5  C    1.268464  -0.462938
     6  C   -1.125254   0.744158
     7  C   -0.970859   0.641488
     8  C   -0.052219  -0.007949
     9  C   -0.629849   0.020337
    10  C    0.488140  -0.694002
    11  C   -1.201592   1.122034
    12  C    0.506624  -0.980106
    13  C   -0.269267  -0.019413
    14  C    0.911814  -1.148398
    15  O   -0.152160   0.009477
    16  O   -0.180427   0.007750
    17  H   -0.251886   0.396819
    18  H   -0.099865   0.270661
    19  H   -0.144460   0.280405
    20  H   -0.557404   0.736424
    21  H   -0.328393   0.478072
    22  H    0.007883   0.118250
    23  H   -0.270371   0.446196
    24  H    0.065322   0.119719
    25  H    0.185155   0.020957
    26  H    0.183417   0.010200
    27  H    0.142368   0.069958
    28  H    0.209273  -0.087032
    29  H    0.625747  -0.497379
    30  H   -0.043782   0.186522
    31  H   -0.297634   0.470058
    32  H   -0.541324   0.718759
    33  H   -0.280169   0.440542
    34  H   -0.052644   0.190301
    35  H   -0.191888   0.356346
    36  H    0.259695   0.007038
 Sum of Mulliken charges =  -1.00000   1.00000

 Dipole moment (field-independent basis, Debye):
    X=             -0.5753    Y=              5.3710    Z=              0.6183  Tot=              5.4370
 Quadrupole moment (field-independent basis, Debye-Ang):
   XX=           -200.8778   YY=           -154.0498   ZZ=           -129.8998
   XY=              0.1488   XZ=             -0.7051   YZ=             -0.7243

 Summary of Natural Population Analysis:

                                       Natural Population
                Natural  -----------------------------------------------
    Atom  No    Charge         Core      Valence    Rydberg      Total
 -----------------------------------------------------------------------
      C    1   -0.29090      0.99964     2.28618    0.00508     3.29090
      C    2   -0.01969      0.99951     2.01002    0.01016     3.01969
      C    3   -0.09599      0.99951     2.08621    0.01028     3.09599
      C    4   -0.09737      0.99951     2.08796    0.00990     3.09737
      C    5   -0.02195      0.99950     2.01207    0.01038     3.02195
      C    6   -0.10012      0.99951     2.09144    0.00917     3.10012
      C    7   -0.09853      0.99951     2.08938    0.00964     3.09853
      C    8   -0.21132      0.99958     2.20186    0.00987     3.21132
      C    9    0.07268      0.99956     1.91460    0.01316     2.92732
      C   10   -0.21178      0.99958     2.20380    0.00840     3.21178
      C   11    0.06338      0.99955     1.92299    0.01408     2.93662
      C   12   -0.19949      0.99962     2.19104    0.00883     3.19949
      C   13   -0.20282      0.99964     2.19533    0.00785     3.20282
      C   14   -0.00567      0.99959     1.99365    0.01242     3.00567
      O   15   -0.32476      0.99988     3.31576    0.00912     4.32476
      O   16   -0.38291      0.99990     3.37643    0.00659     4.38291
      H   17    0.10370      0.00000     0.39496    0.00134     0.39630
      H   18    0.10529      0.00000     0.39330    0.00141     0.39471
      H   19    0.10229      0.00000     0.39642    0.00128     0.39771
      H   20    0.10219      0.00000     0.39648    0.00133     0.39781
      H   21    0.10072      0.00000     0.39747    0.00181     0.39928
      H   22    0.09737      0.00000     0.40123    0.00140     0.40263
      H   23    0.09876      0.00000     0.40030    0.00094     0.40124
      H   24    0.10337      0.00000     0.39500    0.00163     0.39663
      H   25    0.10635      0.00000     0.39259    0.00106     0.39365
      H   26    0.08262      0.00000     0.41557    0.00180     0.41738
      H   27    0.10146      0.00000     0.39730    0.00123     0.39854
      H   28    0.11018      0.00000     0.38868    0.00114     0.38982
      H   29    0.08847      0.00000     0.40910    0.00244     0.41153
      H   30    0.09639      0.00000     0.40233    0.00128     0.40361
      H   31    0.11000      0.00000     0.38876    0.00124     0.39000
      H   32    0.10684      0.00000     0.39080    0.00236     0.39316
      H   33    0.10059      0.00000     0.39740    0.00201     0.39941
      H   34    0.07905      0.00000     0.41948    0.00147     0.42095
      H   35    0.08992      0.00000     0.40876    0.00133     0.41008
      H   36    0.24169      0.00000     0.25523    0.00308     0.25831
 =======================================================================
   * Total *   -0.00000     15.99359    43.81988    0.18653    60.00000

 Normal termination of Gaussian 16 at Fri Dec 11 01:16:39 2020.
