 Gaussian 16, Revision A.03,

 -----------------------------------------------------------
 # opt freq B3LYP/6-31G(d) empiricaldispersion=gd3bj scf=xqc
 -----------------------------------------------------------

 ------------------------------
 CID_85790562_JID_5368_neutraal
 ------------------------------
 Symbolic Z-matrix:
 Charge =  0 Multiplicity = 1

 SCF Done:  E(RB3LYP) =  -635.595159120     A.U. after   13 cycles
 SCF Done:  E(RB3LYP) =  -635.597905807     A.U. after   12 cycles
 SCF Done:  E(RB3LYP) =  -635.598105572     A.U. after   11 cycles
 SCF Done:  E(RB3LYP) =  -635.598249128     A.U. after   11 cycles
 SCF Done:  E(RB3LYP) =  -635.598306414     A.U. after   10 cycles
 SCF Done:  E(RB3LYP) =  -635.598328163     A.U. after   10 cycles
 SCF Done:  E(RB3LYP) =  -635.598334021     A.U. after    9 cycles
 SCF Done:  E(RB3LYP) =  -635.598335796     A.U. after    8 cycles
 SCF Done:  E(RB3LYP) =  -635.598336643     A.U. after    8 cycles
 SCF Done:  E(RB3LYP) =  -635.598336928     A.U. after    8 cycles
 SCF Done:  E(RB3LYP) =  -635.598337107     A.U. after    7 cycles
 SCF Done:  E(RB3LYP) =  -635.598337203     A.U. after    7 cycles
 SCF Done:  E(RB3LYP) =  -635.598337283     A.U. after    7 cycles
 SCF Done:  E(RB3LYP) =  -635.598337324     A.U. after    7 cycles
 Optimization completed.
    -- Stationary point found.
 Normal termination of Gaussian 16 at Thu Dec 10 15:45:15 2020.

 --------------------------------------------------------------------
 #N Geom=AllCheck Guess=TCheck SCRF=Check GenChk RB3LYP/6-31G(d) Freq
 --------------------------------------------------------------------

 Structure from the checkpoint file:  "JID_5368.chk"
 ------------------------------
 CID_85790562_JID_5368_neutraal
 ------------------------------
 Charge =  0 Multiplicity = 1

 SCF Done:  E(RB3LYP) =  -635.598337324     A.U. after    1 cycles

  Exact polarizability: 215.995 -14.393 139.333 -20.894  -1.066  95.817
 Approx polarizability: 282.192 -39.276 236.246 -41.285  -3.557 156.668

                      1                      2                      3
                      A                      A                      A
 Frequencies --     17.8198                41.6733                63.7142
 Red. masses --      4.1408                 3.3849                 3.2537
 Frc consts  --      0.0008                 0.0035                 0.0078
 IR Inten    --      0.0862                 0.3030                 0.3342

                      4                      5                      6
                      A                      A                      A
 Frequencies --     73.8886                96.5657               121.7063
 Red. masses --      3.0867                 3.6866                 4.2821
 Frc consts  --      0.0099                 0.0203                 0.0374
 IR Inten    --      3.2851                 0.2308                 1.2914

                      7                      8                      9
                      A                      A                      A
 Frequencies --    169.3940               203.9607               236.7116
 Red. masses --      3.6312                 3.4938                 1.0458
 Frc consts  --      0.0614                 0.0856                 0.0345
 IR Inten    --      0.0767                 2.4183                 0.4102

                     10                     11                     12
                      A                      A                      A
 Frequencies --    256.9511               267.7192               311.3703
 Red. masses --      3.0166                 1.2679                 2.7839
 Frc consts  --      0.1173                 0.0535                 0.1590
 IR Inten    --      4.6420                 1.2411                 0.3176

                     13                     14                     15
                      A                      A                      A
 Frequencies --    333.7467               370.9255               393.3275
 Red. masses --      3.6068                 3.3896                 3.1180
 Frc consts  --      0.2367                 0.2748                 0.2842
 IR Inten    --      1.1089                 4.0321                 2.3360

                     16                     17                     18
                      A                      A                      A
 Frequencies --    423.4094               427.0096               457.5823
 Red. masses --      3.0416                 3.0639                 3.1266
 Frc consts  --      0.3213                 0.3292                 0.3857
 IR Inten    --      4.5564                 2.0356                25.1885

                     19                     20                     21
                      A                      A                      A
 Frequencies --    467.6242               511.7924               528.8466
 Red. masses --      2.0311                 2.3775                 3.3078
 Frc consts  --      0.2617                 0.3669                 0.5451
 IR Inten    --     17.1425                18.5398                 9.6982

                     22                     23                     24
                      A                      A                      A
 Frequencies --    537.5479               591.3066               632.0278
 Red. masses --      2.2424                 2.5559                 1.8616
 Frc consts  --      0.3818                 0.5265                 0.4381
 IR Inten    --      7.1677                42.3370                10.8020

                     25                     26                     27
                      A                      A                      A
 Frequencies --    656.2502               700.5523               714.0823
 Red. masses --      4.0526                 1.3392                 4.1644
 Frc consts  --      1.0283                 0.3872                 1.2511
 IR Inten    --      0.1276                 6.3319                 1.4372

                     28                     29                     30
                      A                      A                      A
 Frequencies --    750.5864               788.7000               803.7011
 Red. masses --      3.5312                 1.9881                 1.6100
 Frc consts  --      1.1721                 0.7286                 0.6127
 IR Inten    --      9.0648                14.2180                 2.4213

                     31                     32                     33
                      A                      A                      A
 Frequencies --    804.2127               830.8897               882.2262
 Red. masses --      1.4221                 1.7206                 4.3674
 Frc consts  --      0.5419                 0.6999                 2.0028
 IR Inten    --      6.2559                52.8605                 1.8831

                     34                     35                     36
                      A                      A                      A
 Frequencies --    906.8291               931.0253               936.3073
 Red. masses --      1.3098                 1.3393                 1.2815
 Frc consts  --      0.6346                 0.6840                 0.6619
 IR Inten    --      0.3981                41.5065                 3.8626

                     37                     38                     39
                      A                      A                      A
 Frequencies --    939.7344               961.1208               997.1935
 Red. masses --      1.3820                 2.1664                 1.5677
 Frc consts  --      0.7191                 1.1791                 0.9185
 IR Inten    --     25.8828                 2.1852                 0.2522

                     40                     41                     42
                      A                      A                      A
 Frequencies --   1027.8011              1031.1157              1054.7717
 Red. masses --      2.1339                 1.5936                 1.5421
 Frc consts  --      1.3281                 0.9982                 1.0109
 IR Inten    --      0.3048                 0.0697                 1.5564

                     43                     44                     45
                      A                      A                      A
 Frequencies --   1087.3418              1089.0960              1122.1394
 Red. masses --      1.5034                 5.8195                 3.2026
 Frc consts  --      1.0472                 4.0670                 2.3760
 IR Inten    --      1.0379                61.7579                18.9366

                     46                     47                     48
                      A                      A                      A
 Frequencies --   1156.7744              1188.3279              1208.9063
 Red. masses --      1.4600                 1.2727                 1.9373
 Frc consts  --      1.1511                 1.0589                 1.6681
 IR Inten    --     22.6676                 0.8017                20.1038

                     49                     50                     51
                      A                      A                      A
 Frequencies --   1213.9168              1221.3681              1271.0496
 Red. masses --      1.1798                 1.3675                 1.1952
 Frc consts  --      1.0243                 1.2019                 1.1377
 IR Inten    --      2.0631                12.4281                 4.8590

                     52                     53                     54
                      A                      A                      A
 Frequencies --   1292.2028              1296.4978              1350.9944
 Red. masses --      3.4021                 2.5454                 1.4435
 Frc consts  --      3.3470                 2.5209                 1.5523
 IR Inten    --    369.4862                34.2935                23.6196

                     55                     56                     57
                      A                      A                      A
 Frequencies --   1371.1220              1379.9205              1404.9570
 Red. masses --      3.0904                 2.6965                 2.1472
 Frc consts  --      3.4231                 3.0252                 2.4972
 IR Inten    --     19.9358                 4.7968                 7.8493

                     58                     59                     60
                      A                      A                      A
 Frequencies --   1440.1841              1457.3148              1468.0597
 Red. masses --      1.3099                 1.7071                 1.6097
 Frc consts  --      1.6007                 2.1360                 2.0440
 IR Inten    --      1.3975                22.9741                 6.1641

                     61                     62                     63
                      A                      A                      A
 Frequencies --   1483.0565              1500.6147              1512.8517
 Red. masses --      1.2398                 1.1902                 1.0449
 Frc consts  --      1.6066                 1.5791                 1.4090
 IR Inten    --     10.8665                30.8069                 6.5630

                     64                     65                     66
                      A                      A                      A
 Frequencies --   1519.1646              1533.9519              1536.5929
 Red. masses --      1.0481                 1.0750                 1.1450
 Frc consts  --      1.4251                 1.4904                 1.5928
 IR Inten    --      4.8201                21.4128                 7.8842

                     67                     68                     69
                      A                      A                      A
 Frequencies --   1542.2171              1559.7301              1574.0265
 Red. masses --      1.4174                 1.1706                 2.1829
 Frc consts  --      1.9863                 1.6779                 3.1865
 IR Inten    --    111.5044                80.6733               258.6903

                     70                     71                     72
                      A                      A                      A
 Frequencies --   1644.6295              1685.6071              1689.7245
 Red. masses --      5.1032                 3.7792                 5.8786
 Frc consts  --      8.1326                 6.3265                 9.8891
 IR Inten    --      2.9600                15.2957                 8.6239

                     73                     74                     75
                      A                      A                      A
 Frequencies --   1717.9380              2972.6430              3014.6962
 Red. masses --      4.8944                 1.0721                 1.0354
 Frc consts  --      8.5107                 5.5818                 5.5445
 IR Inten    --      0.5529                42.9036                65.8884

                     76                     77                     78
                      A                      A                      A
 Frequencies --   3046.5102              3059.4964              3068.5339
 Red. masses --      1.0380                 1.0892                 1.1061
 Frc consts  --      5.6760                 6.0070                 6.1363
 IR Inten    --     21.3286                28.8729                51.9026

                     79                     80                     81
                      A                      A                      A
 Frequencies --   3098.3383              3137.6387              3151.5713
 Red. masses --      1.1003                 1.1006                 1.0987
 Frc consts  --      6.2235                 6.3837                 6.4294
 IR Inten    --     18.7951                17.6308                34.2891

                     82                     83                     84
                      A                      A                      A
 Frequencies --   3174.2993              3177.7312              3181.4343
 Red. masses --      1.0885                 1.0606                 1.0604
 Frc consts  --      6.4622                 6.3103                 6.3233
 IR Inten    --     19.1235                 5.7431                 6.2475

                     85                     86                     87
                      A                      A                      A
 Frequencies --   3207.6428              3212.7796              3226.4399
 Red. masses --      1.0870                 1.0927                 1.0924
 Frc consts  --      6.5897                 6.6452                 6.6999
 IR Inten    --     23.1370                 7.7907                11.3004

                     88                     89                     90
                      A                      A                      A
 Frequencies --   3256.5779              3260.2612              3587.8753
 Red. masses --      1.1152                 1.1152                 1.0755
 Frc consts  --      6.9680                 6.9839                 8.1571
 IR Inten    --     10.1972                15.7340                21.5161

 - Thermochemistry -
 -------------------
 Temperature   298.150 Kelvin.  Pressure   1.00000 Atm.
 Atom     1 has atomic number  6 and mass  12.00000

 Molecular mass:   203.13101 amu.
 Principal axes and moments of inertia in atomic units:
                           1         2         3
     Eigenvalues --   992.374048123.398698501.05505
           X            0.99996   0.00746  -0.00490
           Y           -0.00753   0.99985  -0.01566
           Z            0.00478   0.01570   0.99987
 This molecule is an asymmetric top.
 Rotational symmetry number  1.
 Warning -- assumption of classical behavior for rotation
           may cause significant error
 Rotational temperatures (Kelvin)      0.08728     0.01066     0.01019
 Rotational constants (GHZ):           1.81861     0.22217     0.21230
 Zero-point vibrational energy     721398.8 (Joules/Mol)
                                  172.41846 (Kcal/Mol)
 Warning -- explicit consideration of  23 degrees of freedom as
           vibrations may cause significant error
 Vibrational temperatures:     25.64    59.96    91.67   106.31   138.94
          (Kelvin)            175.11   243.72   293.45   340.58   369.70
                              385.19   447.99   480.19   533.68   565.91
                              609.19   614.37   658.36   672.81   736.36
                              760.89   773.41   850.76   909.35   944.20
                             1007.94  1027.41  1079.93  1134.76  1156.35
                             1157.08  1195.46  1269.33  1304.72  1339.54
                             1347.14  1352.07  1382.84  1434.74  1478.78
                             1483.55  1517.58  1564.44  1566.97  1614.51
                             1664.34  1709.74  1739.35  1746.56  1757.28
                             1828.76  1859.19  1865.37  1943.78  1972.74
                             1985.40  2021.42  2072.10  2096.75  2112.21
                             2133.79  2159.05  2176.66  2185.74  2207.01
                             2210.81  2218.91  2244.10  2264.67  2366.25
                             2425.21  2431.14  2471.73  4276.97  4337.48
                             4383.25  4401.93  4414.94  4457.82  4514.36
                             4534.41  4567.11  4572.05  4577.37  4615.08
                             4622.47  4642.13  4685.49  4690.79  5162.15

 Zero-point correction=                           0.274766 (Hartree/Particle)
 Thermal correction to Energy=                    0.289908
 Thermal correction to Enthalpy=                  0.290853
 Thermal correction to Gibbs Free Energy=         0.231214
 Sum of electronic and zero-point Energies=           -635.323571
 Sum of electronic and thermal Energies=              -635.308429
 Sum of electronic and thermal Enthalpies=            -635.307485
 Sum of electronic and thermal Free Energies=         -635.367123

                     E (Thermal)             CV                S
                      KCal/Mol        Cal/Mol-Kelvin    Cal/Mol-Kelvin
 Total                  181.920             57.958            125.520
 Electronic               0.000              0.000              0.000
 Translational            0.889              2.981             41.830
 Rotational               0.889              2.981             32.594
 Vibrational            180.143             51.997             51.096
 Vibration     1          0.593              1.986              6.863
 Vibration     2          0.594              1.981              5.178
 Vibration     3          0.597              1.972              4.339
 Vibration     4          0.599              1.966              4.047
 Vibration     5          0.603              1.952              3.522
 Vibration     6          0.609              1.931              3.073
 Vibration     7          0.625              1.880              2.442
 Vibration     8          0.640              1.834              2.097
 Vibration     9          0.656              1.785              1.827
 Vibration    10          0.667              1.751              1.682
 Vibration    11          0.673              1.732              1.611
 Vibration    12          0.700              1.652              1.355
 Vibration    13          0.715              1.608              1.242
 Vibration    14          0.743              1.532              1.076
 Vibration    15          0.761              1.484              0.988
 Vibration    16          0.786              1.419              0.880
 Vibration    17          0.789              1.411              0.868
 Vibration    18          0.816              1.344              0.773
 Vibration    19          0.825              1.322              0.744
 Vibration    20          0.867              1.224              0.629
 Vibration    21          0.884              1.186              0.590
 Vibration    22          0.893              1.167              0.571
 Vibration    23          0.949              1.050              0.465

                           ! Non-Optimized Parameters !
 Normal termination of Gaussian 16 at Thu Dec 10 15:55:10 2020.

 ----------------------------------------------------------------------
 # B3LYP/6-311++G(d,p) empiricaldispersion=gd3bj scf=xqc pop=npa geom=c
 heck
 ----------------------------------------------------------------------

 --------------------------------------
 CID_85790562_JID_5368_Energie_neutraal
 --------------------------------------
 Structure from the checkpoint file:  "JID_5368.chk"
 Charge =  0 Multiplicity = 1

 SCF Done:  E(RB3LYP) =  -635.775512358     A.U. after   14 cycles
 Normal termination of Gaussian 16 at Thu Dec 10 16:00:00 2020.

 ----------------------------------------------------------------------
 # B3LYP/6-311++G(d,p) empiricaldispersion=gd3bj scf=xqc pop=npa geom=c
 heck
 ----------------------------------------------------------------------

 ------------------------------------
 CID_85790562_JID_5368_Energie_kation
 ------------------------------------
 Structure from the checkpoint file:  "JID_5368.chk"
 Charge =  1 Multiplicity = 2

 SCF Done:  E(UB3LYP) =  -635.523018681     A.U. after   23 cycles
 Normal termination of Gaussian 16 at Thu Dec 10 16:10:34 2020.
 Gaussian 16:  ES64L-G16RevA.03 25-Dec-2016

 ----------------------------------------------------------------------
 # B3LYP/6-311++G(d,p) empiricaldispersion=gd3bj scf=xqc pop=npa geom=c
 heck
 ----------------------------------------------------------------------

 -----------------------------------
 CID_85790562_JID_5368_Energie_anion
 -----------------------------------
 Structure from the checkpoint file:  "JID_5368.chk"
 Charge = -1 Multiplicity = 2

                         Standard orientation:
 ---------------------------------------------------------------------
 Center     Atomic      Atomic             Coordinates (Angstroms)
 Number     Number       Type             X           Y           Z
 ---------------------------------------------------------------------
      1          6           0       -5.062162   -0.949048   -0.293364
      2          6           0       -3.610621   -0.583607   -0.494569
      3          6           0       -2.783242   -1.433854   -1.127918
      4          6           0       -3.146483    0.725757    0.020008
      5          6           0       -3.983421    1.607778    0.588668
      6          6           0       -1.675886    1.064322   -0.103092
      7          7           0       -0.866705    0.223156    0.773394
      8          6           0        0.498811    0.068913    0.522079
      9          6           0        1.185008   -1.043110    1.050648
     10          6           0        2.545224   -1.207597    0.849094
     11          6           0        3.275131   -0.265851    0.109954
     12          6           0        2.611523    0.840244   -0.419536
     13          6           0        1.236243    1.003171   -0.215913
     14          8           0        4.615370   -0.524120   -0.032345
     15          6           0        5.382278    0.407286   -0.769179
     16          1           0       -5.272637   -1.944486   -0.692832
     17          1           0       -5.725659   -0.235135   -0.796597
     18          1           0       -5.331327   -0.942689    0.769737
     19          1           0       -1.734149   -1.219958   -1.301539
     20          1           0       -3.146518   -2.385523   -1.504472
     21          1           0       -3.619877    2.559379    0.964300
     22          1           0       -5.046077    1.421515    0.698649
     23          1           0       -1.358347    0.956721   -1.154543
     24          1           0       -1.526038    2.117383    0.162455
     25          1           0       -1.326329   -0.643459    1.021162
     26          1           0        0.634246   -1.781868    1.628782
     27          1           0        3.069014   -2.067122    1.255362
     28          1           0        3.144405    1.587901   -0.995502
     29          1           0        0.748235    1.877992   -0.631559
     30          1           0        5.031388    0.490848   -1.807412
     31          1           0        5.362977    1.404326   -0.307219
     32          1           0        6.406255    0.028618   -0.765056
 ---------------------------------------------------------------------

 SCF Done:  E(UB3LYP) =  -635.770558254     A.U. after   33 cycles
 SCF Done:  E(UB3LYP) =  -635.770558254     a.u. after    1 cycles

 The electronic state is 2-A.
 Alpha  occ. eigenvalues --  -19.05186 -14.20700 -10.12467 -10.12450 -10.10430
 Alpha  occ. eigenvalues --  -10.08644 -10.07257 -10.07222 -10.07175 -10.06690
 Alpha  occ. eigenvalues --  -10.05478 -10.05142 -10.04837 -10.02821 -10.02595
 Alpha  occ. eigenvalues --   -0.96726  -0.82481  -0.74371  -0.70141  -0.65349
 Alpha  occ. eigenvalues --   -0.64974  -0.62758  -0.59265  -0.57310  -0.55266
 Alpha  occ. eigenvalues --   -0.51163  -0.48551  -0.47148  -0.43925  -0.41788
 Alpha  occ. eigenvalues --   -0.39131  -0.37756  -0.37126  -0.36665  -0.35039
 Alpha  occ. eigenvalues --   -0.34785  -0.33150  -0.31891  -0.31111  -0.30678
 Alpha  occ. eigenvalues --   -0.30286  -0.29510  -0.28237  -0.27166  -0.26193
 Alpha  occ. eigenvalues --   -0.26038  -0.24862  -0.23115  -0.22846  -0.21103
 Alpha  occ. eigenvalues --   -0.18385  -0.16772  -0.15554  -0.11705  -0.08620
 Alpha  occ. eigenvalues --    0.04415
 Alpha virt. eigenvalues --    0.05538   0.07571   0.08053   0.08449   0.08694
 Alpha virt. eigenvalues --    0.09152   0.09707   0.10129   0.10623   0.11111
 Alpha virt. eigenvalues --    0.11341   0.11723   0.11932   0.12545   0.13237

  Beta  occ. eigenvalues --  -19.05179 -14.20698 -10.12453 -10.12427 -10.10428
  Beta  occ. eigenvalues --  -10.08648 -10.07249 -10.07207 -10.07170 -10.06684
  Beta  occ. eigenvalues --  -10.05485 -10.05033 -10.04722 -10.02579 -10.02369
  Beta  occ. eigenvalues --   -0.96712  -0.82465  -0.74340  -0.69805  -0.65314
  Beta  occ. eigenvalues --   -0.64914  -0.62562  -0.59128  -0.57086  -0.55141
  Beta  occ. eigenvalues --   -0.51088  -0.48526  -0.46562  -0.43892  -0.41716
  Beta  occ. eigenvalues --   -0.39061  -0.37587  -0.37100  -0.36559  -0.34989
  Beta  occ. eigenvalues --   -0.34682  -0.33093  -0.31834  -0.31024  -0.30531
  Beta  occ. eigenvalues --   -0.30256  -0.29480  -0.28179  -0.27067  -0.26108
  Beta  occ. eigenvalues --   -0.25957  -0.24733  -0.23086  -0.22799  -0.20955
  Beta  occ. eigenvalues --   -0.17603  -0.16440  -0.15488  -0.10212  -0.08537
  Beta virt. eigenvalues --    0.06572   0.07538   0.07993   0.08409   0.08635
  Beta virt. eigenvalues --    0.08945   0.09181   0.10162   0.10275   0.10735
  Beta virt. eigenvalues --    0.11158   0.11413   0.11768   0.12142   0.12584

 Mulliken charges and spin densities:
               1          2
     1  C   -0.747568  -0.013028
     2  C    0.182960   0.101595
     3  C   -0.718024   0.242434
     4  C    0.756969   0.137018
     5  C   -0.803355   0.253557
     6  C   -0.233601  -0.280777
     7  N    0.040039   0.018167
     8  C   -0.174271  -0.311362
     9  C   -0.063419   0.045722
    10  C   -0.414034   0.068949
    11  C   -1.115085   0.454729
    12  C    0.347715  -0.021221
    13  C    1.021552  -0.663457
    14  O   -0.218647   0.045913
    15  C    0.654700  -0.986401
    16  H    0.122724  -0.000228
    17  H    0.057003   0.075176
    18  H    0.129762   0.010099
    19  H    0.121654  -0.004980
    20  H    0.095928  -0.011767
    21  H    0.074825   0.017402
    22  H    0.132617  -0.013552
    23  H   -0.007073   0.112383
    24  H    0.162787  -0.014121
    25  H    0.184875   0.009165
    26  H    0.132515   0.009095
    27  H    0.163146   0.001428
    28  H    0.032000   0.167424
    29  H   -0.052206   0.219290
    30  H   -0.151011   0.298919
    31  H   -0.181185   0.328076
    32  H   -0.534291   0.704354
 Sum of Mulliken charges =  -1.00000   1.00000

 Dipole moment (field-independent basis, Debye):
    X=             -1.8595    Y=             -1.8005    Z=              2.2000  Tot=              3.3970
 Quadrupole moment (field-independent basis, Debye-Ang):
   XX=           -200.7128   YY=           -112.3306   ZZ=           -115.1463
   XY=              0.5640   XZ=              4.2562   YZ=             -2.2967

 Summary of Natural Population Analysis:

                                       Natural Population
                Natural  -----------------------------------------------
    Atom  No    Charge         Core      Valence    Rydberg      Total
 -----------------------------------------------------------------------
      C    1   -0.29483      0.99964     2.28982    0.00538     3.29483
      C    2   -0.01373      0.99949     2.00469    0.00955     3.01373
      C    3   -0.15850      0.99953     2.15053    0.00843     3.15850
      C    4   -0.01807      0.99947     2.00817    0.01042     3.01807
      C    5   -0.14135      0.99953     2.13354    0.00828     3.14135
      C    6   -0.09794      0.99959     2.08637    0.01199     3.09794
      N    7   -0.31287      0.99968     2.80428    0.00891     3.81287
      C    8    0.08108      0.99949     1.90913    0.01029     2.91892
      C    9   -0.11322      0.99954     2.10520    0.00848     3.11322
      C   10   -0.11266      0.99953     2.10368    0.00945     3.11266
      C   11    0.13599      0.99937     1.85105    0.01359     2.86401
      C   12   -0.13474      0.99953     2.12650    0.00870     3.13474
      C   13   -0.12551      0.99954     2.11691    0.00906     3.12551
      O   14   -0.27791      0.99986     3.26845    0.00960     4.27791
      C   15   -0.10046      0.99961     2.09135    0.00950     3.10046
      H   16    0.09633      0.00000     0.40295    0.00072     0.40367
      H   17    0.09919      0.00000     0.39922    0.00159     0.40081
      H   18    0.09905      0.00000     0.40000    0.00095     0.40095
      H   19    0.09119      0.00000     0.40787    0.00095     0.40881
      H   20    0.08453      0.00000     0.41463    0.00084     0.41547
      H   21    0.08564      0.00000     0.41351    0.00085     0.41436
      H   22    0.08716      0.00000     0.41207    0.00078     0.41284
      H   23    0.09273      0.00000     0.40537    0.00190     0.40727
      H   24    0.09153      0.00000     0.40688    0.00159     0.40847
      H   25    0.18966      0.00000     0.30840    0.00194     0.31034
      H   26    0.09768      0.00000     0.40125    0.00108     0.40232
      H   27    0.10263      0.00000     0.39649    0.00087     0.39737
      H   28    0.10410      0.00000     0.39471    0.00118     0.39590
      H   29    0.10387      0.00000     0.39516    0.00097     0.39613
      H   30    0.08318      0.00000     0.41519    0.00163     0.41682
      H   31    0.08315      0.00000     0.41518    0.00167     0.41685
      H   32    0.09309      0.00000     0.40554    0.00137     0.40691
 =======================================================================
   * Total *    0.00000     14.99339    39.84409    0.16252    55.00000

 Normal termination of Gaussian 16 at Thu Dec 10 16:25:58 2020.
