 Gaussian 16, Revision A.03,

 -----------------------------------------------------------
 # opt freq B3LYP/6-31G(d) empiricaldispersion=gd3bj scf=xqc
 -----------------------------------------------------------

 -------------------------------
 CID_152841739_JID_5606_neutraal
 -------------------------------
 Symbolic Z-matrix:
 Charge =  0 Multiplicity = 1

 SCF Done:  E(RB3LYP) =  -1037.50424490     A.U. after   15 cycles
 SCF Done:  E(RB3LYP) =  -1037.51786147     A.U. after   12 cycles
 SCF Done:  E(RB3LYP) =  -1037.52050224     A.U. after   12 cycles
 SCF Done:  E(RB3LYP) =  -1037.52082687     A.U. after   12 cycles
 SCF Done:  E(RB3LYP) =  -1037.52092254     A.U. after   11 cycles
 SCF Done:  E(RB3LYP) =  -1037.52100995     A.U. after   10 cycles
 SCF Done:  E(RB3LYP) =  -1037.52105512     A.U. after   10 cycles
 SCF Done:  E(RB3LYP) =  -1037.52107239     A.U. after   10 cycles
 SCF Done:  E(RB3LYP) =  -1037.52109241     A.U. after   10 cycles
 SCF Done:  E(RB3LYP) =  -1037.52111016     A.U. after   11 cycles
 SCF Done:  E(RB3LYP) =  -1037.52830490     A.U. after   11 cycles
 SCF Done:  E(RB3LYP) =  -1037.52832502     A.U. after   10 cycles
 SCF Done:  E(RB3LYP) =  -1037.52833027     A.U. after    9 cycles
 SCF Done:  E(RB3LYP) =  -1037.52833087     A.U. after    8 cycles
 SCF Done:  E(RB3LYP) =  -1037.52833100     A.U. after    7 cycles
 SCF Done:  E(RB3LYP) =  -1037.52833108     A.U. after    8 cycles
 Optimization completed.
    -- Stationary point found.
 Normal termination of Gaussian 16 at Thu Dec 10 16:50:31 2020.

 --------------------------------------------------------------------
 #N Geom=AllCheck Guess=TCheck SCRF=Check GenChk RB3LYP/6-31G(d) Freq
 --------------------------------------------------------------------

 Structure from the checkpoint file:  "JID_5606.chk"
 -------------------------------
 CID_152841739_JID_5606_neutraal
 -------------------------------
 Charge =  0 Multiplicity = 1

 SCF Done:  E(RB3LYP) =  -1037.52833108     A.U. after    1 cycles

  Exact polarizability: 289.852  22.927 142.663  -1.653   1.923  63.399
 Approx polarizability: 403.651  54.620 266.355  -4.873   4.804  99.536

                      1                      2                      3
                      A                      A                      A
 Frequencies --     43.3623                51.0152                75.1134
 Red. masses --      5.1298                 5.2245                 7.3015
 Frc consts  --      0.0057                 0.0080                 0.0243
 IR Inten    --      1.4211                 2.2915                 2.6496

                      4                      5                      6
                      A                      A                      A
 Frequencies --     87.3562               134.3836               154.1618
 Red. masses --      4.9027                 4.5681                 7.1852
 Frc consts  --      0.0220                 0.0486                 0.1006
 IR Inten    --      3.4197                 0.1542                 0.9687

                      7                      8                      9
                      A                      A                      A
 Frequencies --    225.3724               237.0754               256.0759
 Red. masses --      2.5937                 5.4634                 6.2457
 Frc consts  --      0.0776                 0.1809                 0.2413
 IR Inten    --      2.4788                 3.6025                 1.6863

                     10                     11                     12
                      A                      A                      A
 Frequencies --    323.2852               340.0725               363.9234
 Red. masses --      2.8744                 3.1443                 2.4785
 Frc consts  --      0.1770                 0.2142                 0.1934
 IR Inten    --      1.0858                 8.4413                43.4341

                     13                     14                     15
                      A                      A                      A
 Frequencies --    406.5320               423.8680               469.7865
 Red. masses --      2.4422                 3.2798                 2.6143
 Frc consts  --      0.2378                 0.3472                 0.3399
 IR Inten    --    162.2731                 0.2605                50.1369

                     16                     17                     18
                      A                      A                      A
 Frequencies --    489.5403               516.3723               540.5745
 Red. masses --      2.4197                 2.9852                 2.3037
 Frc consts  --      0.3416                 0.4690                 0.3966
 IR Inten    --     35.9499                17.9394                68.0645

                     19                     20                     21
                      A                      A                      A
 Frequencies --    568.5607               611.2151               623.6539
 Red. masses --      2.6095                 2.1544                 3.7743
 Frc consts  --      0.4970                 0.4742                 0.8649
 IR Inten    --    106.2394               102.0221                16.5280

                     22                     23                     24
                      A                      A                      A
 Frequencies --    652.6011               699.8004               701.0592
 Red. masses --      6.2520                 4.1781                 3.8449
 Frc consts  --      1.5688                 1.2055                 1.1134
 IR Inten    --      6.1009                63.2646               139.0562

                     25                     26                     27
                      A                      A                      A
 Frequencies --    729.6426               776.6192               806.9101
 Red. masses --      3.9827                 4.8289                 2.1622
 Frc consts  --      1.2492                 1.7160                 0.8295
 IR Inten    --     18.0418                92.4439                66.0804

                     28                     29                     30
                      A                      A                      A
 Frequencies --    827.2614               855.9411               869.8590
 Red. masses --      1.4860                 1.5829                 4.0986
 Frc consts  --      0.5992                 0.6833                 1.8272
 IR Inten    --     25.1247                19.1257                46.4973

                     31                     32                     33
                      A                      A                      A
 Frequencies --    950.2673               959.6481               975.0201
 Red. masses --      1.3041                 1.7486                 5.6464
 Frc consts  --      0.6938                 0.9488                 3.1626
 IR Inten    --      1.0085               138.9899                 9.3804

                     34                     35                     36
                      A                      A                      A
 Frequencies --    982.7597               989.7879              1031.0784
 Red. masses --      5.6473                 1.3150                 2.6315
 Frc consts  --      3.2135                 0.7590                 1.6483
 IR Inten    --     27.5738                 2.6309                 6.6049

                     37                     38                     39
                      A                      A                      A
 Frequencies --   1106.9593              1125.4105              1131.0095
 Red. masses --      3.1103                 2.7484                 3.6759
 Frc consts  --      2.2455                 2.0510                 2.7704
 IR Inten    --      2.2877                27.1941                 5.9905

                     40                     41                     42
                      A                      A                      A
 Frequencies --   1171.7634              1204.1466              1207.7741
 Red. masses --      1.4221                 1.7831                 2.2195
 Frc consts  --      1.1504                 1.5233                 1.9076
 IR Inten    --     10.0079                78.8942                86.1785

                     43                     44                     45
                      A                      A                      A
 Frequencies --   1228.8141              1262.3027              1309.0159
 Red. masses --      1.5753                 2.9571                 2.0940
 Frc consts  --      1.4015                 2.7762                 2.1141
 IR Inten    --    129.0939               473.5386                37.4183

                     46                     47                     48
                      A                      A                      A
 Frequencies --   1341.7807              1351.1610              1354.3323
 Red. masses --      1.7164                 1.4018                 1.5622
 Frc consts  --      1.8207                 1.5079                 1.6883
 IR Inten    --     14.7354                54.3222                13.0953

                     49                     50                     51
                      A                      A                      A
 Frequencies --   1368.5070              1434.3477              1455.1028
 Red. masses --      3.4952                 3.7033                 1.9641
 Frc consts  --      3.8568                 4.4890                 2.4502
 IR Inten    --    188.5003               302.9604               122.9609

                     52                     53                     54
                      A                      A                      A
 Frequencies --   1470.5538              1513.2590              1539.4739
 Red. masses --      2.0669                 1.8186                 1.1323
 Frc consts  --      2.6335                 2.4536                 1.5811
 IR Inten    --    104.3360                40.3721                62.2379

                     55                     56                     57
                      A                      A                      A
 Frequencies --   1554.8892              1608.8091              1632.2394
 Red. masses --      2.7083                 5.1605                 5.7368
 Frc consts  --      3.8579                 7.8695                 9.0051
 IR Inten    --    337.1543               146.4337                66.2844

                     58                     59                     60
                      A                      A                      A
 Frequencies --   1675.3480              1730.1403              3184.2664
 Red. masses --      5.5895                 1.0625                 1.0871
 Frc consts  --      9.2435                 1.8740                 6.4943
 IR Inten    --    324.7635                14.8531                12.7235

                     61                     62                     63
                      A                      A                      A
 Frequencies --   3201.9077              3207.6986              3231.7940
 Red. masses --      1.0943                 1.0888                 1.0935
 Frc consts  --      6.6100                 6.6004                 6.7294
 IR Inten    --     12.2290                 6.7705                 1.1427

                     64                     65                     66
                      A                      A                      A
 Frequencies --   3423.8102              3483.2653              3521.7568
 Red. masses --      1.0528                 1.0748                 1.0769
 Frc consts  --      7.2713                 7.6836                 7.8696
 IR Inten    --      4.7563                 5.2987                28.8501

                     67                     68                     69
                      A                      A                      A
 Frequencies --   3542.5304              3587.3213              3588.6661
 Red. masses --      1.0892                 1.0790                 1.0776
 Frc consts  --      8.0538                 8.1813                 8.1765
 IR Inten    --      1.0459                53.3248                51.7537

 - Thermochemistry -
 -------------------
 Temperature   298.150 Kelvin.  Pressure   1.00000 Atm.
 Atom     1 has atomic number  6 and mass  12.00000

 Molecular mass:   222.06877 amu.
 Principal axes and moments of inertia in atomic units:
                           1         2         3
     Eigenvalues --  1016.433059222.00290**********
           X            0.99995  -0.00947   0.00179
           Y            0.00946   0.99995   0.00105
           Z           -0.00180  -0.00104   1.00000
 This molecule is an asymmetric top.
 Rotational symmetry number  1.
 Warning -- assumption of classical behavior for rotation
           may cause significant error
 Rotational temperatures (Kelvin)      0.08521     0.00939     0.00855
 Rotational constants (GHZ):           1.77556     0.19570     0.17808
 Zero-point vibrational energy     511401.9 (Joules/Mol)
                                  122.22798 (Kcal/Mol)
 Warning -- explicit consideration of  20 degrees of freedom as
           vibrations may cause significant error
 Vibrational temperatures:     62.39    73.40   108.07   125.69   193.35
          (Kelvin)            221.80   324.26   341.10   368.44   465.14
                              489.29   523.60   584.91   609.85   675.92
                              704.34   742.94   777.77   818.03   879.40
                              897.30   938.95  1006.86  1008.67  1049.79
                             1117.38  1160.96  1190.24  1231.51  1251.53
                             1367.22  1380.72  1402.84  1413.97  1424.08
                             1483.49  1592.67  1619.21  1627.27  1685.91
                             1732.50  1737.72  1767.99  1816.17  1883.38
                             1930.52  1944.02  1948.58  1968.98  2063.71
                             2093.57  2115.80  2177.24  2214.96  2237.14
                             2314.72  2348.43  2410.45  2489.29  4581.45
                             4606.83  4615.16  4649.83  4926.10  5011.64
                             5067.02  5096.91  5161.36  5163.29

 Zero-point correction=                           0.194783 (Hartree/Particle)
 Thermal correction to Energy=                    0.208009
 Thermal correction to Enthalpy=                  0.208953
 Thermal correction to Gibbs Free Energy=         0.153689
 Sum of electronic and zero-point Energies=          -1037.333548
 Sum of electronic and thermal Energies=             -1037.320322
 Sum of electronic and thermal Enthalpies=           -1037.319378
 Sum of electronic and thermal Free Energies=        -1037.374643

                     E (Thermal)             CV                S
                      KCal/Mol        Cal/Mol-Kelvin    Cal/Mol-Kelvin
 Total                  130.528             50.526            116.315
 Electronic               0.000              0.000              0.000
 Translational            0.889              2.981             42.096
 Rotational               0.889              2.981             32.918
 Vibrational            128.750             44.564             41.300
 Vibration     1          0.595              1.980              5.099
 Vibration     2          0.595              1.977              4.778
 Vibration     3          0.599              1.966              4.015
 Vibration     4          0.601              1.958              3.718
 Vibration     5          0.613              1.919              2.882
 Vibration     6          0.620              1.898              2.620
 Vibration     7          0.650              1.802              1.916
 Vibration     8          0.656              1.784              1.825
 Vibration     9          0.666              1.753              1.688
 Vibration    10          0.708              1.629              1.293
 Vibration    11          0.720              1.595              1.212
 Vibration    12          0.737              1.547              1.105
 Vibration    13          0.771              1.456              0.939
 Vibration    14          0.786              1.418              0.879
 Vibration    15          0.827              1.317              0.738
 Vibration    16          0.845              1.273              0.685
 Vibration    17          0.871              1.214              0.618
 Vibration    18          0.896              1.160              0.564
 Vibration    19          0.925              1.099              0.507
 Vibration    20          0.970              1.008              0.431

 Optimization completed.
    -- Stationary point found.
 Normal termination of Gaussian 16 at Thu Dec 10 16:58:05 2020.

 ----------------------------------------------------------------------
 # B3LYP/6-311++G(d,p) empiricaldispersion=gd3bj scf=xqc pop=npa geom=c
 heck
 ----------------------------------------------------------------------

 ---------------------------------------
 CID_152841739_JID_5606_Energie_neutraal
 ---------------------------------------
 Structure from the checkpoint file:  "JID_5606.chk"
 Charge =  0 Multiplicity = 1

 SCF Done:  E(RB3LYP) =  -1037.74193456     A.U. after   16 cycles
 Normal termination of Gaussian 16 at Thu Dec 10 17:03:22 2020.

 ----------------------------------------------------------------------
 # B3LYP/6-311++G(d,p) empiricaldispersion=gd3bj scf=xqc pop=npa geom=c
 heck
 ----------------------------------------------------------------------

 -------------------------------------
 CID_152841739_JID_5606_Energie_kation
 -------------------------------------
 Structure from the checkpoint file:  "JID_5606.chk"
 Charge =  1 Multiplicity = 2

 SCF Done:  E(UB3LYP) =  -1037.46317189     A.U. after   31 cycles
 Normal termination of Gaussian 16 at Thu Dec 10 17:15:35 2020.
 Gaussian 16:  ES64L-G16RevA.03 25-Dec-2016

 ----------------------------------------------------------------------
 # B3LYP/6-311++G(d,p) empiricaldispersion=gd3bj scf=xqc pop=npa geom=c
 heck
 ----------------------------------------------------------------------

 ------------------------------------
 CID_152841739_JID_5606_Energie_anion
 ------------------------------------
 Structure from the checkpoint file:  "JID_5606.chk"
 Charge = -1 Multiplicity = 2

                         Standard orientation:
 ---------------------------------------------------------------------
 Center     Atomic      Atomic             Coordinates (Angstroms)
 Number     Number       Type             X           Y           Z
 ---------------------------------------------------------------------
      1          6           0        0.659020   -0.756571   -0.208317
      2          6           0        2.044750   -0.749151   -0.222060
      3          6           0        2.750860    0.453077   -0.010274
      4          6           0        2.021283    1.637593    0.222659
      5          6           0        0.638156    1.618719    0.238153
      6          6           0       -0.068092    0.423248    0.014770
      7          6           0       -1.519927    0.373987    0.014502
      8          7           0       -2.241737   -0.719812    0.043804
      9          6           0       -3.570525   -0.332355   -0.031295
     10         16           0       -4.926848   -1.272968    0.103140
     11          7           0       -3.599060    1.052694   -0.232599
     12          7           0       -2.290578    1.532908   -0.013162
     13          7           0        4.134516    0.492702    0.006822
     14          7           0        4.925401   -0.551801   -0.508074
     15          7           0        5.178269   -1.608138    0.414596
     16          1           0        0.111638   -1.678574   -0.371486
     17          1           0        2.578765   -1.677603   -0.394623
     18          1           0        2.555522    2.566642    0.403051
     19          1           0        0.099386    2.537864    0.450789
     20          1           0       -4.335351    1.579198    0.224880
     21          1           0       -2.013091    2.251088   -0.678663
     22          1           0        4.568869    1.400220   -0.099751
     23          1           0        4.451900   -0.966675   -1.308782
     24          1           0        5.954208   -1.305505    0.999501
     25          1           0        4.376877   -1.740319    1.036322
 ---------------------------------------------------------------------

 SCF Done:  E(UB3LYP) =  -1037.77028786     A.U. after   25 cycles

 The electronic state is 2-A.
 Alpha  occ. eigenvalues --  -88.64216 -14.27653 -14.24930 -14.24272 -14.23990
 Alpha  occ. eigenvalues --  -14.23598 -14.15535 -10.11854 -10.09443 -10.09266
 Alpha  occ. eigenvalues --  -10.06181 -10.05824 -10.05677 -10.05133 -10.04835
 Alpha  occ. eigenvalues --   -7.73016  -5.69403  -5.68872  -5.68571  -0.93018
 Alpha  occ. eigenvalues --   -0.92929  -0.80670  -0.76376  -0.74052  -0.71688
 Alpha  occ. eigenvalues --   -0.66243  -0.63679  -0.60983  -0.57711  -0.52654
 Alpha  occ. eigenvalues --   -0.50404  -0.47111  -0.46051  -0.44148  -0.43201
 Alpha  occ. eigenvalues --   -0.41329  -0.41050  -0.39430  -0.37407  -0.36084
 Alpha  occ. eigenvalues --   -0.32534  -0.32192  -0.31135  -0.30275  -0.27789
 Alpha  occ. eigenvalues --   -0.26275  -0.23411  -0.22623  -0.22207  -0.19422
 Alpha  occ. eigenvalues --   -0.19175  -0.18344  -0.17198  -0.14882  -0.14551
 Alpha  occ. eigenvalues --   -0.10068  -0.07746  -0.06921   0.02535
 Alpha virt. eigenvalues --    0.06389   0.07634   0.08466   0.08825   0.09489
 Alpha virt. eigenvalues --    0.09994   0.10931   0.11673   0.12264   0.13128
 Alpha virt. eigenvalues --    0.13597   0.13822   0.14852   0.15646   0.15932

  Beta  occ. eigenvalues --  -88.64188 -14.27650 -14.24861 -14.24259 -14.23833
  Beta  occ. eigenvalues --  -14.23479 -14.15512 -10.11664 -10.09098 -10.08807
  Beta  occ. eigenvalues --  -10.06295 -10.05911 -10.05463 -10.04963 -10.04806
  Beta  occ. eigenvalues --   -7.72990  -5.69395  -5.68775  -5.68556  -0.92922
  Beta  occ. eigenvalues --   -0.92613  -0.80489  -0.76013  -0.73726  -0.71333
  Beta  occ. eigenvalues --   -0.66044  -0.63463  -0.60760  -0.57492  -0.52073
  Beta  occ. eigenvalues --   -0.50218  -0.46853  -0.45768  -0.44000  -0.43149
  Beta  occ. eigenvalues --   -0.41134  -0.40854  -0.39364  -0.37014  -0.35870
  Beta  occ. eigenvalues --   -0.32349  -0.31976  -0.31076  -0.29370  -0.26990
  Beta  occ. eigenvalues --   -0.25954  -0.23221  -0.22351  -0.21329  -0.19031
  Beta  occ. eigenvalues --   -0.18370  -0.18070  -0.16311  -0.14424  -0.14164
  Beta  occ. eigenvalues --   -0.09202  -0.07095  -0.06753
  Beta virt. eigenvalues --    0.06295   0.07456   0.08324   0.08499   0.08882
  Beta virt. eigenvalues --    0.09780   0.10026   0.11079   0.11791   0.12801
  Beta virt. eigenvalues --    0.13412   0.13771   0.14006   0.14849   0.15890

 Mulliken charges and spin densities:
               1          2
     1  C   -0.454479   0.121863
     2  C   -0.296755  -0.108150
     3  C    0.071556   0.265677
     4  C   -0.542296  -0.055985
     5  C   -0.607935   0.227850
     6  C    0.747256  -0.064177
     7  C   -0.082037   0.230587
     8  N    0.019941   0.011536
     9  C    0.227031   0.113190
    10  S   -0.946787   0.062285
    11  N   -0.039525   0.038251
    12  N   -0.140017   0.068114
    13  N   -0.477711   0.034560
    14  N    0.143779  -0.004731
    15  N   -0.521698  -0.022263
    16  H    0.179365  -0.006443
    17  H    0.116936   0.002927
    18  H    0.108876   0.004602
    19  H    0.121359  -0.012499
    20  H    0.238836   0.009121
    21  H    0.244687   0.024200
    22  H    0.275109  -0.001009
    23  H    0.210913   0.012219
    24  H    0.192675   0.026142
    25  H    0.210919   0.022131
 Sum of Mulliken charges =  -1.00000   1.00000

 Dipole moment (field-independent basis, Debye):
    X=              9.4663    Y=              6.0370    Z=             -0.1370  Tot=             11.2283
 Quadrupole moment (field-independent basis, Debye-Ang):
   XX=           -184.9512   YY=           -106.7150   ZZ=           -103.9136
   XY=            -14.9202   XZ=              4.1506   YZ=             -0.8288

 Summary of Natural Population Analysis:

                                       Natural Population
                Natural  -----------------------------------------------
    Atom  No    Charge         Core      Valence    Rydberg      Total
 -----------------------------------------------------------------------
      C    1   -0.02553      0.99955     2.01751    0.00846     3.02553
      C    2   -0.16832      0.99954     2.16068    0.00811     3.16832
      C    3    0.13493      0.99950     1.85471    0.01086     2.86507
      C    4   -0.15758      0.99954     2.14936    0.00868     3.15758
      C    5   -0.03515      0.99955     2.02763    0.00796     3.03515
      C    6   -0.07762      0.99950     2.06834    0.00977     3.07762
      C    7    0.30347      0.99946     1.68160    0.01547     2.69653
      N    8   -0.27719      0.99965     2.76633    0.01121     3.77719
      C    9    0.13880      0.99970     1.83938    0.02213     2.86120
      S   10   -0.14375      4.99952     3.12930    0.01492     8.14375
      N   11   -0.22174      0.99966     2.70619    0.01590     3.72174
      N   12   -0.20565      0.99968     2.69140    0.01457     3.70565
      N   13   -0.22307      0.99965     2.70996    0.01346     3.72307
      N   14   -0.16663      0.99977     2.64992    0.01693     3.66663
      N   15   -0.32536      0.99978     2.81362    0.01196     3.82536
      H   16    0.10911      0.00000     0.38984    0.00104     0.39089
      H   17    0.09521      0.00000     0.40305    0.00174     0.40479
      H   18    0.09168      0.00000     0.40684    0.00149     0.40832
      H   19    0.09430      0.00000     0.40462    0.00109     0.40570
      H   20    0.19176      0.00000     0.30653    0.00171     0.30824
      H   21    0.18750      0.00000     0.31052    0.00198     0.31250
      H   22    0.18166      0.00000     0.31658    0.00176     0.31834
      H   23    0.16481      0.00000     0.33061    0.00458     0.33519
      H   24    0.16717      0.00000     0.33003    0.00280     0.33283
      H   25    0.16729      0.00000     0.32987    0.00284     0.33271
 =======================================================================
   * Total *    0.00011     18.99405    38.79443    0.21141    57.99989

 Normal termination of Gaussian 16 at Thu Dec 10 17:24:58 2020.
