 Gaussian 16, Revision A.03,

 -----------------------------------------------------------
 # opt freq B3LYP/6-31G(d) empiricaldispersion=gd3bj scf=xqc
 -----------------------------------------------------------

 ------------------------------
 CID_43153993_JID_8391_neutraal
 ------------------------------
 Symbolic Z-matrix:
 Charge =  0 Multiplicity = 1

 SCF Done:  E(RB3LYP) =  -1128.73493202     A.U. after   15 cycles
 SCF Done:  E(RB3LYP) =  -1128.73856374     A.U. after   12 cycles
 SCF Done:  E(RB3LYP) =  -1128.73900918     A.U. after   12 cycles
 SCF Done:  E(RB3LYP) =  -1128.73923310     A.U. after   12 cycles
 SCF Done:  E(RB3LYP) =  -1128.73937834     A.U. after   12 cycles
 SCF Done:  E(RB3LYP) =  -1128.73950767     A.U. after   12 cycles
 SCF Done:  E(RB3LYP) =  -1128.73966751     A.U. after   12 cycles
 SCF Done:  E(RB3LYP) =  -1128.73973814     A.U. after   11 cycles
 SCF Done:  E(RB3LYP) =  -1128.73975407     A.U. after   11 cycles
 SCF Done:  E(RB3LYP) =  -1128.73976197     A.U. after   10 cycles
 SCF Done:  E(RB3LYP) =  -1128.73977568     A.U. after   10 cycles
 SCF Done:  E(RB3LYP) =  -1128.73977693     A.U. after    9 cycles
 SCF Done:  E(RB3LYP) =  -1128.73977799     A.U. after    9 cycles
 SCF Done:  E(RB3LYP) =  -1128.73977826     A.U. after    8 cycles
 SCF Done:  E(RB3LYP) =  -1128.73977835     A.U. after    8 cycles
 SCF Done:  E(RB3LYP) =  -1128.73977836     A.U. after    7 cycles
 Optimization completed.
    -- Stationary point found.
 Normal termination of Gaussian 16 at Fri Dec 11 20:22:16 2020.

 --------------------------------------------------------------------
 #N Geom=AllCheck Guess=TCheck SCRF=Check GenChk RB3LYP/6-31G(d) Freq
 --------------------------------------------------------------------

 Structure from the checkpoint file:  "JID_8391.chk"
 ------------------------------
 CID_43153993_JID_8391_neutraal
 ------------------------------
 Charge =  0 Multiplicity = 1

 SCF Done:  E(RB3LYP) =  -1128.73977836     A.U. after    1 cycles

  Exact polarizability: 332.899 -15.283 178.134  -5.645  -7.165 101.526
 Approx polarizability: 454.462 -46.764 328.925  -2.840 -30.035 172.776

                      1                      2                      3
                      A                      A                      A
 Frequencies --     26.0268                41.0192                44.1251
 Red. masses --      4.7283                 6.7594                 5.6561
 Frc consts  --      0.0019                 0.0067                 0.0065
 IR Inten    --      0.8742                 0.9776                 0.5225

                      4                      5                      6
                      A                      A                      A
 Frequencies --     55.5876                91.6239               105.4696
 Red. masses --      7.6698                 4.5655                 2.7179
 Frc consts  --      0.0140                 0.0226                 0.0178
 IR Inten    --      0.0112                 0.5339                 0.0269

                      7                      8                      9
                      A                      A                      A
 Frequencies --    131.1587               155.1650               164.1002
 Red. masses --      1.7166                 2.8916                 3.1202
 Frc consts  --      0.0174                 0.0410                 0.0495
 IR Inten    --      0.0613                 0.4219                 0.7906

                     10                     11                     12
                      A                      A                      A
 Frequencies --    178.7597               194.4649               241.6794
 Red. masses --      1.1272                 5.3278                 2.9355
 Frc consts  --      0.0212                 0.1187                 0.1010
 IR Inten    --      0.5191                 0.3359                 1.2455

                     13                     14                     15
                      A                      A                      A
 Frequencies --    253.0587               276.8493               315.6238
 Red. masses --      3.7967                 5.7472                 5.1766
 Frc consts  --      0.1433                 0.2595                 0.3038
 IR Inten    --      0.6468                 0.7787                 3.0385

                     16                     17                     18
                      A                      A                      A
 Frequencies --    358.7729               375.7016               388.8861
 Red. masses --      2.4914                 3.2933                 5.0803
 Frc consts  --      0.1889                 0.2739                 0.4527
 IR Inten    --      0.3583                 0.0710                 3.1954

                     19                     20                     21
                      A                      A                      A
 Frequencies --    465.5036               504.2627               514.8394
 Red. masses --      3.5030                 5.7947                 3.3993
 Frc consts  --      0.4472                 0.8682                 0.5309
 IR Inten    --      1.2591                 6.4649                 1.1835

                     22                     23                     24
                      A                      A                      A
 Frequencies --    521.4692               538.1658               564.1798
 Red. masses --      4.6574                 3.6896                 3.1468
 Frc consts  --      0.7462                 0.6296                 0.5901
 IR Inten    --      3.8826                 3.4056                 6.4798

                     25                     26                     27
                      A                      A                      A
 Frequencies --    585.3253               594.5967               608.3388
 Red. masses --      1.3170                 5.2855                 4.0921
 Frc consts  --      0.2659                 1.1010                 0.8922
 IR Inten    --     98.7490                19.3036                33.8118

                     28                     29                     30
                      A                      A                      A
 Frequencies --    631.9943               670.0820               702.4546
 Red. masses --      4.4434                 6.3464                 5.5322
 Frc consts  --      1.0457                 1.6789                 1.6084
 IR Inten    --     12.4641                15.6042                 0.1226

                     31                     32                     33
                      A                      A                      A
 Frequencies --    731.9809               737.1454               765.2311
 Red. masses --      3.9954                 2.6288                 4.4409
 Frc consts  --      1.2613                 0.8416                 1.5322
 IR Inten    --     19.7352                 5.8685                 4.8161

                     34                     35                     36
                      A                      A                      A
 Frequencies --    798.5948               813.0167               822.1206
 Red. masses --      1.7539                 3.3729                 1.3701
 Frc consts  --      0.6590                 1.3136                 0.5456
 IR Inten    --     28.1767                 2.4531                30.2718

                     37                     38                     39
                      A                      A                      A
 Frequencies --    845.5898               878.6548               905.7906
 Red. masses --      4.1973                 2.0039                 1.4576
 Frc consts  --      1.7683                 0.9115                 0.7046
 IR Inten    --      1.8115                 9.9357                 2.9618

                     40                     41                     42
                      A                      A                      A
 Frequencies --    916.6967               924.5270               972.0510
 Red. masses --      1.3453                 4.5962                 1.2820
 Frc consts  --      0.6661                 2.3147                 0.7137
 IR Inten    --      0.0421                14.0704                 0.3108

                     43                     44                     45
                      A                      A                      A
 Frequencies --    988.2846              1009.6608              1025.0623
 Red. masses --      2.3468                 1.1334                 1.4316
 Frc consts  --      1.3505                 0.6808                 0.8863
 IR Inten    --      1.9624                26.2619                 7.1360

                     46                     47                     48
                      A                      A                      A
 Frequencies --   1056.7261              1076.4815              1083.8054
 Red. masses --      1.4261                 1.4624                 1.6013
 Frc consts  --      0.9383                 0.9985                 1.1082
 IR Inten    --      2.7120                13.2427                 1.3851

                     49                     50                     51
                      A                      A                      A
 Frequencies --   1111.2837              1134.7002              1187.8288
 Red. masses --      2.1601                 1.9747                 1.9255
 Frc consts  --      1.5717                 1.4980                 1.6007
 IR Inten    --     10.8874                17.6093               529.1088

                     52                     53                     54
                      A                      A                      A
 Frequencies --   1204.7156              1221.2703              1235.0169
 Red. masses --      1.3447                 2.3931                 1.5741
 Frc consts  --      1.1498                 2.1030                 1.4146
 IR Inten    --      0.7124                13.4846                24.3561

                     55                     56                     57
                      A                      A                      A
 Frequencies --   1264.4294              1276.7470              1290.0219
 Red. masses --      5.3653                 2.0635                 1.7842
 Frc consts  --      5.0540                 1.9818                 1.7494
 IR Inten    --     44.4667                10.6141                 0.5434

                     58                     59                     60
                      A                      A                      A
 Frequencies --   1308.9186              1337.3132              1344.8903
 Red. masses --      1.9970                 2.1586                 2.1959
 Frc consts  --      2.0158                 2.2745                 2.3401
 IR Inten    --     20.7321                 3.9096                 2.8764

                     61                     62                     63
                      A                      A                      A
 Frequencies --   1375.1786              1400.7559              1440.4677
 Red. masses --      2.8379                 2.8820                 1.2568
 Frc consts  --      3.1621                 3.3317                 1.5365
 IR Inten    --     76.1485               181.9188                 0.6527

                     64                     65                     66
                      A                      A                      A
 Frequencies --   1451.7787              1479.1394              1497.1810
 Red. masses --      1.2107                 2.4754                 1.8705
 Frc consts  --      1.5034                 3.1909                 2.4703
 IR Inten    --      1.3445                26.6635                 3.7332

                     67                     68                     69
                      A                      A                      A
 Frequencies --   1512.1186              1514.9513              1526.4958
 Red. masses --      1.3036                 2.0542                 1.1088
 Frc consts  --      1.7562                 2.7777                 1.5222
 IR Inten    --     19.0647                50.7748                14.1646

                     70                     71                     72
                      A                      A                      A
 Frequencies --   1532.2352              1536.2759              1585.1804
 Red. masses --      1.5447                 1.1524                 5.3061
 Frc consts  --      2.1367                 1.6025                 7.8557
 IR Inten    --      5.9410                11.2931                 9.6700

                     73                     74                     75
                      A                      A                      A
 Frequencies --   1641.0606              1648.7650              1687.5379
 Red. masses --      6.1264                 5.3431                 5.8893
 Frc consts  --      9.7208                 8.5577                 9.8815
 IR Inten    --      2.7214                 1.5808               242.5273

                     76                     77                     78
                      A                      A                      A
 Frequencies --   1814.0843              3041.9171              3046.0392
 Red. masses --      8.8904                 1.0395                 1.0480
 Frc consts  --     17.2380                 5.6671                 5.7291
 IR Inten    --    570.1035                25.9371                17.4395

                     79                     80                     81
                      A                      A                      A
 Frequencies --   3092.8631              3107.5122              3130.1808
 Red. masses --      1.0988                 1.0914                 1.1004
 Frc consts  --      6.1930                 6.2093                 6.3524
 IR Inten    --     20.9977                18.6906                20.2795

                     82                     83                     84
                      A                      A                      A
 Frequencies --   3159.1226              3182.2309              3191.1528
 Red. masses --      1.0979                 1.0870                 1.0900
 Frc consts  --      6.4559                 6.4854                 6.5401
 IR Inten    --     10.5652                 8.2642                 0.9849

                     85                     86                     87
                      A                      A                      A
 Frequencies --   3197.8643              3213.1236              3213.9011
 Red. masses --      1.0902                 1.0961                 1.0894
 Frc consts  --      6.5687                 6.6671                 6.6301
 IR Inten    --     23.5097                19.5205                 4.5517

                     88                     89                     90
                      A                      A                      A
 Frequencies --   3216.7216              3233.2093              3707.2656
 Red. masses --      1.0896                 1.0968                 1.0643
 Frc consts  --      6.6426                 6.7553                 8.6180
 IR Inten    --     12.1814                 5.6053                90.9566

 - Thermochemistry -
 -------------------
 Temperature   298.150 Kelvin.  Pressure   1.00000 Atm.
 Atom     1 has atomic number  6 and mass  12.00000

 Molecular mass:   258.07145 amu.
 Principal axes and moments of inertia in atomic units:
                           1         2         3
     Eigenvalues --  1746.29557********************
           X            0.99992   0.01234  -0.00089
           Y           -0.01232   0.99966   0.02294
           Z            0.00117  -0.02292   0.99974
 This molecule is an asymmetric top.
 Rotational symmetry number  1.
 Warning -- assumption of classical behavior for rotation
           may cause significant error
 Rotational temperatures (Kelvin)      0.04960     0.00713     0.00656
 Rotational constants (GHZ):           1.03347     0.14853     0.13659
 Zero-point vibrational energy     663593.4 (Joules/Mol)
                                  158.60263 (Kcal/Mol)
 Warning -- explicit consideration of  27 degrees of freedom as
           vibrations may cause significant error
 Vibrational temperatures:     37.45    59.02    63.49    79.98   131.83
          (Kelvin)            151.75   188.71   223.25   236.10   257.20
                              279.79   347.72   364.10   398.32   454.11
                              516.19   540.55   559.52   669.76   725.52
                              740.74   750.28   774.30   811.73   842.15
                              855.49   875.26   909.30   964.10  1010.68
                             1053.16  1060.59  1101.00  1149.00  1169.75
                             1182.85  1216.62  1264.19  1303.23  1318.92
                             1330.19  1398.56  1421.92  1452.68  1474.84
                             1520.39  1548.82  1559.35  1598.89  1632.58
                             1709.02  1733.32  1757.14  1776.91  1819.23
                             1836.95  1856.05  1883.24  1924.10  1935.00
                             1978.58  2015.38  2072.51  2088.79  2128.15
                             2154.11  2175.60  2179.68  2196.29  2204.54
                             2210.36  2280.72  2361.12  2372.21  2427.99
                             2610.06  4376.64  4382.57  4449.94  4471.02
                             4503.63  4545.27  4578.52  4591.36  4601.01
                             4622.97  4624.09  4628.14  4651.87  5333.93

 Zero-point correction=                           0.252749 (Hartree/Particle)
 Thermal correction to Energy=                    0.269810
 Thermal correction to Enthalpy=                  0.270754
 Thermal correction to Gibbs Free Energy=         0.206111
 Sum of electronic and zero-point Energies=          -1128.487029
 Sum of electronic and thermal Energies=             -1128.469968
 Sum of electronic and thermal Enthalpies=           -1128.469024
 Sum of electronic and thermal Free Energies=        -1128.533668

                     E (Thermal)             CV                S
                      KCal/Mol        Cal/Mol-Kelvin    Cal/Mol-Kelvin
 Total                  169.308             64.144            136.054
 Electronic               0.000              0.000              0.000
 Translational            0.889              2.981             42.544
 Rotational               0.889              2.981             33.994
 Vibrational            167.531             58.183             59.516
 Vibration     1          0.593              1.985              6.111
 Vibration     2          0.594              1.981              5.209
 Vibration     3          0.595              1.980              5.065
 Vibration     4          0.596              1.975              4.608
 Vibration     5          0.602              1.955              3.625
 Vibration     6          0.605              1.945              3.351
 Vibration     7          0.612              1.922              2.929
 Vibration     8          0.620              1.897              2.608
 Vibration     9          0.623              1.887              2.502
 Vibration    10          0.629              1.868              2.341
 Vibration    11          0.635              1.848              2.185
 Vibration    12          0.658              1.776              1.790
 Vibration    13          0.664              1.758              1.709
 Vibration    14          0.678              1.716              1.553
 Vibration    15          0.703              1.644              1.333
 Vibration    16          0.734              1.557              1.127
 Vibration    17          0.747              1.522              1.056
 Vibration    18          0.757              1.494              1.004
 Vibration    19          0.823              1.327              0.750
 Vibration    20          0.860              1.241              0.648
 Vibration    21          0.870              1.217              0.622
 Vibration    22          0.876              1.202              0.607
 Vibration    23          0.893              1.166              0.569
 Vibration    24          0.920              1.109              0.516
 Vibration    25          0.942              1.063              0.476
 Vibration    26          0.952              1.043              0.459
 Vibration    27          0.967              1.014              0.436

 Optimization completed.
    -- Stationary point found.
 Normal termination of Gaussian 16 at Fri Dec 11 20:32:59 2020.

 ----------------------------------------------------------------------
 # B3LYP/6-311++G(d,p) empiricaldispersion=gd3bj scf=xqc pop=npa geom=c
 heck
 ----------------------------------------------------------------------

 --------------------------------------
 CID_43153993_JID_8391_Energie_neutraal
 --------------------------------------
 Structure from the checkpoint file:  "JID_8391.chk"
 Charge =  0 Multiplicity = 1

 SCF Done:  E(RB3LYP) =  -1128.96942472     A.U. after   17 cycles
 Normal termination of Gaussian 16 at Fri Dec 11 20:38:53 2020.

 ----------------------------------------------------------------------
 # B3LYP/6-311++G(d,p) empiricaldispersion=gd3bj scf=xqc pop=npa geom=c
 heck
 ----------------------------------------------------------------------

 ------------------------------------
 CID_43153993_JID_8391_Energie_kation
 ------------------------------------
 Structure from the checkpoint file:  "JID_8391.chk"
 Charge =  1 Multiplicity = 2

 SCF Done:  E(UB3LYP) =  -1128.68690821     A.U. after   31 cycles
 Normal termination of Gaussian 16 at Fri Dec 11 20:53:53 2020.
 Gaussian 16:  ES64L-G16RevA.03 25-Dec-2016

 ----------------------------------------------------------------------
 # B3LYP/6-311++G(d,p) empiricaldispersion=gd3bj scf=xqc pop=npa geom=c
 heck
 ----------------------------------------------------------------------

 -----------------------------------
 CID_43153993_JID_8391_Energie_anion
 -----------------------------------
 Structure from the checkpoint file:  "JID_8391.chk"
 Charge = -1 Multiplicity = 2

                         Standard orientation:
 ---------------------------------------------------------------------
 Center     Atomic      Atomic             Coordinates (Angstroms)
 Number     Number       Type             X           Y           Z
 ---------------------------------------------------------------------
      1          6           0        4.885286    2.113662    0.299575
      2          6           0        4.161098    0.834274   -0.045769
      3          6           0        2.807325    0.654500    0.307374
      4          6           0        2.160408   -0.548057   -0.052686
      5          6           0        2.876009   -1.558834   -0.717248
      6          6           0        4.214432   -1.382252   -1.041677
      7          6           0        4.845569   -0.183979   -0.715070
      8          6           0        0.740229   -0.818938    0.235674
      9          6           0        0.216403   -1.945118    0.833390
     10          6           0       -1.199017   -1.952789    0.884798
     11          6           0       -1.780216   -0.835241    0.317048
     12         16           0       -0.543591    0.244890   -0.298175
     13          6           0       -3.189733   -0.559475    0.231896
     14          6           0       -3.767719    0.537269   -0.302312
     15          6           0       -5.216497    0.751065   -0.354573
     16          8           0       -5.750977    1.735384   -0.830274
     17          8           0       -5.942321   -0.269371    0.188164
     18          6           0        2.096463    1.735161    1.088121
     19          1           0        4.354144    2.995949   -0.076670
     20          1           0        4.987721    2.244068    1.384664
     21          1           0        5.891264    2.118958   -0.129614
     22          1           0        2.357169   -2.470715   -0.995488
     23          1           0        4.759056   -2.165660   -1.560581
     24          1           0        5.888604   -0.032215   -0.980819
     25          1           0        0.845552   -2.730495    1.236578
     26          1           0       -1.787059   -2.747138    1.332305
     27          1           0       -3.833495   -1.331097    0.648104
     28          1           0       -3.184563    1.345025   -0.733444
     29          1           0       -6.873442   -0.000759    0.088472
     30          1           0        1.750396    2.548981    0.437083
     31          1           0        1.224385    1.346733    1.616090
     32          1           0        2.763873    2.184530    1.829749
 ---------------------------------------------------------------------

 SCF Done:  E(UB3LYP) =  -1129.00326464     A.U. after   24 cycles

 The electronic state is 2-A.
 Alpha  occ. eigenvalues --  -88.73168 -19.03080 -18.95761 -10.14642 -10.08452
 Alpha  occ. eigenvalues --  -10.08327 -10.07793 -10.07644 -10.07260 -10.06926
 Alpha  occ. eigenvalues --  -10.06583 -10.06457 -10.06335 -10.06149 -10.04516
 Alpha  occ. eigenvalues --  -10.03660 -10.03493 -10.01730  -7.81850  -5.78151
 Alpha  occ. eigenvalues --   -5.77790  -5.77438  -0.96506  -0.87109  -0.76763
 Alpha  occ. eigenvalues --   -0.74481  -0.68452  -0.67511  -0.65294  -0.61347
 Alpha  occ. eigenvalues --   -0.60062  -0.58440  -0.57627  -0.52139  -0.49132
 Alpha  occ. eigenvalues --   -0.47870  -0.45072  -0.42014  -0.40537  -0.39607
 Alpha  occ. eigenvalues --   -0.37989  -0.36748  -0.34795  -0.34472  -0.34171
 Alpha  occ. eigenvalues --   -0.32735  -0.30994  -0.30872  -0.30811  -0.30333
 Alpha  occ. eigenvalues --   -0.29685  -0.28770  -0.27926  -0.27078  -0.25416
 Alpha  occ. eigenvalues --   -0.25324  -0.24901  -0.24233  -0.23892  -0.22707
 Alpha  occ. eigenvalues --   -0.20312  -0.19099  -0.17359  -0.14548  -0.14360
 Alpha  occ. eigenvalues --   -0.13872  -0.12619  -0.08565   0.01964
 Alpha virt. eigenvalues --    0.06298   0.07502   0.08319   0.08550   0.08700
 Alpha virt. eigenvalues --    0.09035   0.09804   0.10159   0.10513   0.11624
 Alpha virt. eigenvalues --    0.11991   0.12278   0.12721   0.13081   0.13838

  Beta  occ. eigenvalues --  -88.73119 -19.03051 -18.95516 -10.14531 -10.08450
  Beta  occ. eigenvalues --  -10.08350 -10.07721 -10.07637 -10.07278 -10.06839
  Beta  occ. eigenvalues --  -10.06528 -10.06462 -10.06088 -10.06002 -10.04593
  Beta  occ. eigenvalues --  -10.03475 -10.03239 -10.01535  -7.81807  -5.78130
  Beta  occ. eigenvalues --   -5.77770  -5.77277  -0.96333  -0.86765  -0.76596
  Beta  occ. eigenvalues --   -0.74238  -0.68350  -0.67275  -0.64839  -0.61160
  Beta  occ. eigenvalues --   -0.59776  -0.58199  -0.57485  -0.51637  -0.48979
  Beta  occ. eigenvalues --   -0.47806  -0.44707  -0.41839  -0.40260  -0.39506
  Beta  occ. eigenvalues --   -0.37883  -0.36574  -0.34653  -0.34415  -0.33958
  Beta  occ. eigenvalues --   -0.32610  -0.30939  -0.30783  -0.30287  -0.30078
  Beta  occ. eigenvalues --   -0.29608  -0.28674  -0.27694  -0.26880  -0.25166
  Beta  occ. eigenvalues --   -0.24958  -0.24565  -0.23919  -0.23765  -0.22525
  Beta  occ. eigenvalues --   -0.20121  -0.18250  -0.16040  -0.14220  -0.13714
  Beta  occ. eigenvalues --   -0.13591  -0.11752  -0.07049
  Beta virt. eigenvalues --    0.06266   0.06835   0.07479   0.08543   0.08752
  Beta virt. eigenvalues --    0.09017   0.09392   0.09778   0.10330   0.10552
  Beta virt. eigenvalues --    0.11599   0.11995   0.12324   0.12760   0.13376

 Mulliken charges and spin densities:
               1          2
     1  C   -0.563705   0.007047
     2  C    0.663041  -0.009466
     3  C    0.226175   0.039483
     4  C    0.583881   0.001932
     5  C   -0.485537   0.035622
     6  C   -0.279013  -0.024819
     7  C   -0.682149   0.070004
     8  C   -0.158241   0.189425
     9  C    0.016861  -0.045295
    10  C    0.121125   0.160049
    11  C    0.146343   0.007831
    12  S   -0.940653   0.109507
    13  C   -0.378698   0.159166
    14  C   -0.049600   0.123323
    15  C   -0.062510   0.115990
    16  O   -0.403352   0.080115
    17  O   -0.229673   0.006988
    18  C   -0.594889   0.001505
    19  H    0.149188  -0.000217
    20  H    0.152198  -0.000366
    21  H    0.138048  -0.000742
    22  H    0.151280   0.005126
    23  H    0.142014   0.001230
    24  H    0.079637  -0.004716
    25  H    0.132438   0.002822
    26  H    0.121750  -0.008291
    27  H    0.167651  -0.015156
    28  H    0.148255  -0.014776
    29  H    0.254943  -0.000169
    30  H    0.176888   0.005769
    31  H    0.150340   0.001523
    32  H    0.105964  -0.000445
 Sum of Mulliken charges =  -1.00000   1.00000

 Dipole moment (field-independent basis, Debye):
    X=              8.8355    Y=             -1.3122    Z=              1.6155  Tot=              9.0773
 Quadrupole moment (field-independent basis, Debye-Ang):
   XX=           -189.7332   YY=           -127.4948   ZZ=           -125.5145
   XY=             18.8264   XZ=             -7.8456   YZ=              3.8855

 Summary of Natural Population Analysis:

                                       Natural Population
                Natural  -----------------------------------------------
    Atom  No    Charge         Core      Valence    Rydberg      Total
 -----------------------------------------------------------------------
      C    1   -0.29208      0.99964     2.28782    0.00461     3.29208
      C    2   -0.02510      0.99948     2.01776    0.00786     3.02510
      C    3    0.00562      0.99945     1.98701    0.00792     2.99438
      C    4   -0.02648      0.99937     2.01704    0.01006     3.02648
      C    5   -0.07578      0.99944     2.06802    0.00831     3.07578
      C    6   -0.11480      0.99959     2.10574    0.00947     3.11480
      C    7   -0.09284      0.99952     2.08429    0.00903     3.09284
      C    8   -0.04388      0.99946     2.03176    0.01265     3.04388
      C    9   -0.14861      0.99948     2.13976    0.00937     3.14861
      C   10   -0.07974      0.99949     2.07079    0.00946     3.07974
      C   11   -0.10584      0.99948     2.09387    0.01249     3.10584
      S   12    0.21274      4.99940     2.76810    0.01976     7.78726
      C   13   -0.02492      0.99939     2.01560    0.00994     3.02492
      C   14   -0.13461      0.99951     2.12486    0.01024     3.13461
      C   15    0.39299      0.99968     1.58246    0.02486     2.60701
      O   16   -0.30938      0.99987     3.30182    0.00769     4.30938
      O   17   -0.35973      0.99988     3.35366    0.00619     4.35973
      C   18   -0.30080      0.99964     2.29628    0.00488     3.30080
      H   19    0.10138      0.00000     0.39767    0.00095     0.39862
      H   20    0.09956      0.00000     0.39939    0.00105     0.40044
      H   21    0.09773      0.00000     0.40140    0.00087     0.40227
      H   22    0.10078      0.00000     0.39747    0.00174     0.39922
      H   23    0.09455      0.00000     0.40430    0.00116     0.40545
      H   24    0.09064      0.00000     0.40792    0.00144     0.40936
      H   25    0.09961      0.00000     0.39926    0.00112     0.40039
      H   26    0.09643      0.00000     0.40247    0.00110     0.40357
      H   27    0.09816      0.00000     0.39988    0.00196     0.40184
      H   28    0.09761      0.00000     0.40134    0.00105     0.40239
      H   29    0.23080      0.00000     0.26592    0.00328     0.26920
      H   30    0.10444      0.00000     0.39458    0.00098     0.39556
      H   31    0.11566      0.00000     0.38341    0.00093     0.38434
      H   32    0.09590      0.00000     0.40311    0.00100     0.40410
 =======================================================================
   * Total *    0.00001     21.99179    45.80476    0.20344    67.99999

 Normal termination of Gaussian 16 at Fri Dec 11 21:05:46 2020.
