 Gaussian 16, Revision A.03,

 -----------------------------------------------------------
 # opt freq B3LYP/6-31G(d) empiricaldispersion=gd3bj scf=xqc
 -----------------------------------------------------------

 -------------------------------
 CID_154312303_JID_1900_neutraal
 -------------------------------
 Symbolic Z-matrix:
 Charge =  0 Multiplicity = 1

 SCF Done:  E(RB3LYP) =  -553.773694530     A.U. after   15 cycles
 SCF Done:  E(RB3LYP) =  -553.777704769     A.U. after   14 cycles
 SCF Done:  E(RB3LYP) =  -553.774288846     A.U. after   16 cycles
 SCF Done:  E(RB3LYP) =  -553.780802082     A.U. after   14 cycles
 SCF Done:  E(RB3LYP) =  -553.779714213     A.U. after   16 cycles
 SCF Done:  E(RB3LYP) =  -553.782011244     A.U. after   14 cycles
 SCF Done:  E(RB3LYP) =  -553.782211502     A.U. after   13 cycles
 SCF Done:  E(RB3LYP) =  -553.782412513     A.U. after   13 cycles
 SCF Done:  E(RB3LYP) =  -553.782510333     A.U. after   13 cycles
 SCF Done:  E(RB3LYP) =  -553.782584073     A.U. after   12 cycles
 SCF Done:  E(RB3LYP) =  -553.783174976     A.U. after   13 cycles
 SCF Done:  E(RB3LYP) =  -553.783167191     A.U. after   12 cycles
 SCF Done:  E(RB3LYP) =  -553.783179159     A.U. after   13 cycles
 SCF Done:  E(RB3LYP) =  -553.783179181     A.U. after    8 cycles
 SCF Done:  E(RB3LYP) =  -553.783179470     A.U. after   11 cycles
 SCF Done:  E(RB3LYP) =  -553.783179469     A.U. after    7 cycles
 Optimization completed.
    -- Stationary point found.
 Normal termination of Gaussian 16 at Tue Dec  8 21:56:04 2020.

 --------------------------------------------------------------------
 #N Geom=AllCheck Guess=TCheck SCRF=Check GenChk RB3LYP/6-31G(d) Freq
 --------------------------------------------------------------------

 Structure from the checkpoint file:  "JID_1900.chk"
 -------------------------------
 CID_154312303_JID_1900_neutraal
 -------------------------------
 Charge =  0 Multiplicity = 1

 SCF Done:  E(RB3LYP) =  -553.783179469     A.U. after    1 cycles

  Exact polarizability: 115.264   8.972  78.389   0.354  -1.265  72.343
 Approx polarizability: 144.902  24.982 128.599   4.398  -5.512 110.194

                      1                      2                      3
                      A                      A                      A
 Frequencies --     19.3168                55.2619                87.0622
 Red. masses --      4.1243                 3.8829                 4.1654
 Frc consts  --      0.0009                 0.0070                 0.0186
 IR Inten    --      1.5375                 1.5432                 1.2696

                      4                      5                      6
                      A                      A                      A
 Frequencies --     96.2702               134.6708               149.2374
 Red. masses --      3.2274                 1.1449                 2.1267
 Frc consts  --      0.0176                 0.0122                 0.0279
 IR Inten    --      2.8525                 0.2019                 9.6245

                      7                      8                      9
                      A                      A                      A
 Frequencies --    185.7217               199.0317               222.9318
 Red. masses --      3.5703                 4.1783                 2.0609
 Frc consts  --      0.0726                 0.0975                 0.0603
 IR Inten    --      1.9347                 2.0849                 1.2676

                     10                     11                     12
                      A                      A                      A
 Frequencies --    236.0116               245.5027               250.7769
 Red. masses --      3.8708                 1.5427                 1.4337
 Frc consts  --      0.1270                 0.0548                 0.0531
 IR Inten    --      1.6825                 0.4390                 4.1496

                     13                     14                     15
                      A                      A                      A
 Frequencies --    322.3014               373.8739               469.5043
 Red. masses --      4.2539                 2.4527                 4.5075
 Frc consts  --      0.2604                 0.2020                 0.5854
 IR Inten    --     15.3824                 1.5953                 5.2047

                     16                     17                     18
                      A                      A                      A
 Frequencies --    495.0705               529.0287               583.3234
 Red. masses --      3.2731                 6.0856                 4.3276
 Frc consts  --      0.4727                 1.0035                 0.8676
 IR Inten    --      2.1632                25.0252                 8.0925

                     19                     20                     21
                      A                      A                      A
 Frequencies --    676.1940               750.1635               839.6033
 Red. masses --      5.1740                 4.5244                 5.1444
 Frc consts  --      1.3939                 1.5001                 2.1367
 IR Inten    --     26.5972                 1.8897                 1.3602

                     22                     23                     24
                      A                      A                      A
 Frequencies --    845.5313               945.4839               948.5264
 Red. masses --      3.7488                 1.3250                 2.5752
 Frc consts  --      1.5791                 0.6978                 1.3651
 IR Inten    --     10.0122                 1.7318                 6.0506

                     25                     26                     27
                      A                      A                      A
 Frequencies --    969.9968               996.1319              1022.3488
 Red. masses --      1.3910                 2.3471                 3.7615
 Frc consts  --      0.7711                 1.3722                 2.3164
 IR Inten    --      0.0538                 3.4979                13.8403

                     28                     29                     30
                      A                      A                      A
 Frequencies --   1145.0334              1155.8882              1184.1543
 Red. masses --      2.5148                 3.9303                 1.2798
 Frc consts  --      1.9427                 3.0939                 1.0573
 IR Inten    --      7.4178               170.8583                 1.3571

                     31                     32                     33
                      A                      A                      A
 Frequencies --   1188.6772              1201.8442              1226.5431
 Red. masses --      2.0728                 2.0176                 1.7012
 Frc consts  --      1.7256                 1.7171                 1.5079
 IR Inten    --      9.9178                17.7747                32.7649

                     34                     35                     36
                      A                      A                      A
 Frequencies --   1311.7295              1393.8718              1400.1079
 Red. masses --      7.1834                 1.3004                 1.2089
 Frc consts  --      7.2823                 1.4885                 1.3963
 IR Inten    --    308.2307                 5.4492                 3.7814

                     37                     38                     39
                      A                      A                      A
 Frequencies --   1425.6238              1427.4890              1449.2289
 Red. masses --      1.2110                 1.1980                 1.2108
 Frc consts  --      1.4502                 1.4383                 1.4983
 IR Inten    --     10.5176                 5.0129                 1.1456

                     40                     41                     42
                      A                      A                      A
 Frequencies --   1491.5617              1513.2683              1516.2474
 Red. masses --      1.2147                 1.0476                 1.0465
 Frc consts  --      1.5922                 1.4135                 1.4175
 IR Inten    --      6.8338                 6.4304                 0.0528

                     43                     44                     45
                      A                      A                      A
 Frequencies --   1519.7825              1522.7241              1529.8928
 Red. masses --      1.0481                 1.0462                 1.0500
 Frc consts  --      1.4263                 1.4292                 1.4480
 IR Inten    --      2.5190                 8.3920                 6.2651

                     46                     47                     48
                      A                      A                      A
 Frequencies --   1536.3012              1738.9436              1798.1177
 Red. masses --      1.0494                 9.5206                10.7440
 Frc consts  --      1.4593                16.9624                20.4669
 IR Inten    --      5.8740                16.4649               136.3922

                     49                     50                     51
                      A                      A                      A
 Frequencies --   1841.2603              3005.5638              3052.9258
 Red. masses --     11.9832                 1.0856                 1.0851
 Frc consts  --     23.9360                 5.7781                 5.9589
 IR Inten    --    209.9413                71.3199                29.4545

                     52                     53                     54
                      A                      A                      A
 Frequencies --   3058.9353              3063.0746              3080.0526
 Red. masses --      1.0346                 1.0362                 1.0293
 Frc consts  --      5.7040                 5.7282                 5.7531
 IR Inten    --     17.6598                26.5819                28.4434

                     55                     56                     57
                      A                      A                      A
 Frequencies --   3127.7266              3133.3468              3136.8588
 Red. masses --      1.1024                 1.1020                 1.1030
 Frc consts  --      6.3542                 6.3746                 6.3945
 IR Inten    --      0.1794                50.9487                15.2282

                     58                     59                     60
                      A                      A                      A
 Frequencies --   3139.8341              3157.3311              3189.5659
 Red. masses --      1.1025                 1.1079                 1.1074
 Frc consts  --      6.4040                 6.5070                 6.6376
 IR Inten    --     41.5000                16.9903                15.5244

 - Thermochemistry -
 -------------------
 Temperature   298.150 Kelvin.  Pressure   1.00000 Atm.
 Atom     1 has atomic number  6 and mass  12.00000

 Molecular mass:   157.07389 amu.
 Principal axes and moments of inertia in atomic units:
                           1         2         3
     Eigenvalues --   947.789652849.861143030.06179
           X            0.99996  -0.00625  -0.00629
           Y            0.00657   0.99861   0.05232
           Z            0.00595  -0.05236   0.99861
 This molecule is an asymmetric top.
 Rotational symmetry number  1.
 Warning -- assumption of classical behavior for rotation
           may cause significant error
 Rotational temperatures (Kelvin)      0.09139     0.03039     0.02858
 Rotational constants (GHZ):           1.90416     0.63327     0.59561
 Zero-point vibrational energy     468412.1 (Joules/Mol)
                                  111.95317 (Kcal/Mol)
 Warning -- explicit consideration of  18 degrees of freedom as
           vibrations may cause significant error
 Vibrational temperatures:     27.79    79.51   125.26   138.51   193.76
          (Kelvin)            214.72   267.21   286.36   320.75   339.57
                              353.22   360.81   463.72   537.92   675.51
                              712.30   761.15   839.27   972.89  1079.32
                             1208.00  1216.53  1360.34  1364.72  1395.61
                             1433.21  1470.93  1647.45  1663.07  1703.73
                             1710.24  1729.19  1764.72  1887.29  2005.47
                             2014.44  2051.15  2053.84  2085.12  2146.02
                             2177.26  2181.54  2186.63  2190.86  2201.17
                             2210.39  2501.95  2587.09  2649.16  4324.34
                             4392.48  4401.13  4407.08  4431.51  4500.10
                             4508.19  4513.24  4517.52  4542.70  4589.07

 Zero-point correction=                           0.178409 (Hartree/Particle)
 Thermal correction to Energy=                    0.191258
 Thermal correction to Enthalpy=                  0.192203
 Thermal correction to Gibbs Free Energy=         0.137985
 Sum of electronic and zero-point Energies=           -553.604771
 Sum of electronic and thermal Energies=              -553.591921
 Sum of electronic and thermal Enthalpies=            -553.590977
 Sum of electronic and thermal Free Energies=         -553.645194

                     E (Thermal)             CV                S
                      KCal/Mol        Cal/Mol-Kelvin    Cal/Mol-Kelvin
 Total                  120.016             43.780            114.109
 Electronic               0.000              0.000              0.000
 Translational            0.889              2.981             41.064
 Rotational               0.889              2.981             30.482
 Vibrational            118.239             37.818             42.563
 Vibration     1          0.593              1.986              6.703
 Vibration     2          0.596              1.975              4.620
 Vibration     3          0.601              1.958              3.725
 Vibration     4          0.603              1.952              3.528
 Vibration     5          0.613              1.919              2.878
 Vibration     6          0.618              1.903              2.682
 Vibration     7          0.632              1.859              2.270
 Vibration     8          0.637              1.841              2.142
 Vibration     9          0.649              1.806              1.935
 Vibration    10          0.655              1.786              1.833
 Vibration    11          0.660              1.770              1.763
 Vibration    12          0.663              1.761              1.725
 Vibration    13          0.707              1.631              1.298
 Vibration    14          0.745              1.526              1.064
 Vibration    15          0.827              1.318              0.739
 Vibration    16          0.851              1.261              0.671
 Vibration    17          0.884              1.186              0.589
 Vibration    18          0.940              1.067              0.479

 Optimization completed.
    -- Stationary point found.
 Normal termination of Gaussian 16 at Tue Dec  8 21:59:48 2020.

 ----------------------------------------------------------------------
 # B3LYP/6-311++G(d,p) empiricaldispersion=gd3bj scf=xqc pop=npa geom=c
 heck
 ----------------------------------------------------------------------

 ---------------------------------------
 CID_154312303_JID_1900_Energie_neutraal
 ---------------------------------------
 Structure from the checkpoint file:  "JID_1900.chk"
 Charge =  0 Multiplicity = 1

 SCF Done:  E(RB3LYP) =  -553.948803373     A.U. after   14 cycles
 Normal termination of Gaussian 16 at Tue Dec  8 22:01:16 2020.

 ----------------------------------------------------------------------
 # B3LYP/6-311++G(d,p) empiricaldispersion=gd3bj scf=xqc pop=npa geom=c
 heck
 ----------------------------------------------------------------------

 -------------------------------------
 CID_154312303_JID_1900_Energie_kation
 -------------------------------------
 Structure from the checkpoint file:  "JID_1900.chk"
 Charge =  1 Multiplicity = 2

 SCF Done:  E(UB3LYP) =  -553.617765874     A.U. after   22 cycles
 Normal termination of Gaussian 16 at Tue Dec  8 22:04:15 2020.
 Gaussian 16:  ES64L-G16RevA.03 25-Dec-2016

 ----------------------------------------------------------------------
 # B3LYP/6-311++G(d,p) empiricaldispersion=gd3bj scf=xqc pop=npa geom=c
 heck
 ----------------------------------------------------------------------

 ------------------------------------
 CID_154312303_JID_1900_Energie_anion
 ------------------------------------
 Structure from the checkpoint file:  "JID_1900.chk"
 Charge = -1 Multiplicity = 2

                         Standard orientation:
 ---------------------------------------------------------------------
 Center     Atomic      Atomic             Coordinates (Angstroms)
 Number     Number       Type             X           Y           Z
 ---------------------------------------------------------------------
      1          6           0       -2.992977    0.083671    1.052907
      2          6           0       -2.334620   -0.801334   -0.016269
      3          6           0       -2.708942   -0.403905   -1.452081
      4          7           0       -0.883011   -0.934557    0.169528
      5          6           0       -0.045668    0.020932    0.117922
      6          6           0       -0.261856    1.495672   -0.118286
      7          8           0        0.639551    2.291619    0.037769
      8          6           0        1.409766   -0.334647    0.387056
      9          8           0        1.843868   -0.664881    1.464210
     10          8           0        2.128225   -0.240657   -0.743603
     11          6           0        3.532447   -0.520961   -0.598474
     12          1           0       -2.773593    1.146096    0.908131
     13          1           0       -2.651078   -0.203840    2.051875
     14          1           0       -4.080259   -0.041989    1.013732
     15          1           0       -2.716457   -1.817158    0.137923
     16          1           0       -2.468148    0.641225   -1.670565
     17          1           0       -2.181874   -1.034459   -2.174724
     18          1           0       -3.785494   -0.538614   -1.601199
     19          1           0       -1.268346    1.823163   -0.431587
     20          1           0        3.984818    0.181140    0.106098
     21          1           0        3.681233   -1.541100   -0.236119
     22          1           0        3.958226   -0.397785   -1.593913
 ---------------------------------------------------------------------

 SCF Done:  E(UB3LYP) =  -553.981940791     A.U. after   21 cycles

 The electronic state is 2-A.
 Alpha  occ. eigenvalues --  -19.03003 -18.96431 -18.90904 -14.11210 -10.14717
 Alpha  occ. eigenvalues --  -10.10463 -10.06142 -10.04449 -10.03217 -10.03013
 Alpha  occ. eigenvalues --  -10.02793  -0.96732  -0.87778  -0.85191  -0.75051
 Alpha  occ. eigenvalues --   -0.64064  -0.60613  -0.56071  -0.51686  -0.45023
 Alpha  occ. eigenvalues --   -0.44126  -0.40331  -0.35471  -0.34115  -0.32916
 Alpha  occ. eigenvalues --   -0.32205  -0.31724  -0.29012  -0.28268  -0.26528
 Alpha  occ. eigenvalues --   -0.26002  -0.25322  -0.24057  -0.23037  -0.22761
 Alpha  occ. eigenvalues --   -0.21550  -0.20238  -0.17133  -0.15054  -0.12921
 Alpha  occ. eigenvalues --   -0.10351  -0.05185   0.04000
 Alpha virt. eigenvalues --    0.08668   0.08817   0.10837   0.11441   0.12257
 Alpha virt. eigenvalues --    0.12495   0.13156   0.14022   0.14602   0.15035
 Alpha virt. eigenvalues --    0.15248   0.15703   0.17376   0.17941   0.19135

  Beta  occ. eigenvalues --  -19.02999 -18.96407 -18.90147 -14.10465 -10.14721
  Beta  occ. eigenvalues --  -10.10452 -10.06175 -10.04141 -10.03179 -10.02975
  Beta  occ. eigenvalues --  -10.02663  -0.96708  -0.87737  -0.83855  -0.74011
  Beta  occ. eigenvalues --   -0.63864  -0.60498  -0.55979  -0.50912  -0.44892
  Beta  occ. eigenvalues --   -0.43143  -0.40156  -0.35422  -0.34024  -0.32798
  Beta  occ. eigenvalues --   -0.32059  -0.31459  -0.28592  -0.28175  -0.26403
  Beta  occ. eigenvalues --   -0.25658  -0.24912  -0.23536  -0.22898  -0.22233
  Beta  occ. eigenvalues --   -0.20170  -0.18731  -0.16998  -0.13962  -0.10617
  Beta  occ. eigenvalues --   -0.09552  -0.04431
  Beta virt. eigenvalues --    0.08595   0.08780   0.10771   0.11397   0.12173
  Beta virt. eigenvalues --    0.12458   0.12886   0.13160   0.14033   0.14582
  Beta virt. eigenvalues --    0.15105   0.15410   0.15886   0.17362   0.17936

 Mulliken charges and spin densities:
               1          2
     1  C   -0.489462   0.034861
     2  C   -0.060387  -0.017230
     3  C   -0.468450   0.006429
     4  N   -0.059287   0.368520
     5  C   -0.132986   0.130326
     6  C   -0.235099   0.255159
     7  O   -0.372827   0.248915
     8  C    0.060965  -0.039655
     9  O   -0.286460   0.004989
    10  O   -0.020136   0.003152
    11  C   -0.249603  -0.012762
    12  H    0.120844   0.005001
    13  H    0.138754  -0.000843
    14  H    0.091978  -0.001910
    15  H    0.159268   0.000657
    16  H    0.122129  -0.002225
    17  H    0.124910   0.009067
    18  H    0.091433   0.000261
    19  H    0.046168  -0.015883
    20  H    0.159787   0.005203
    21  H    0.139988   0.011644
    22  H    0.118471   0.006323
 Sum of Mulliken charges =  -1.00000   1.00000

 Dipole moment (field-independent basis, Debye):
    X=             -0.6909    Y=             -2.2353    Z=             -2.2168  Tot=              3.2230
 Quadrupole moment (field-independent basis, Debye-Ang):
   XX=            -76.5830   YY=            -88.2104   ZZ=            -78.2410
   XY=             -4.4928   XZ=             -4.9090   YZ=              2.2793

 Summary of Natural Population Analysis:

                                       Natural Population
                Natural  -----------------------------------------------
    Atom  No    Charge         Core      Valence    Rydberg      Total
 -----------------------------------------------------------------------
      C    1   -0.28295      0.99965     2.27852    0.00479     3.28295
      C    2   -0.02547      0.99962     2.01444    0.01142     3.02547
      C    3   -0.28224      0.99965     2.27778    0.00482     3.28224
      N    4   -0.11950      0.99964     2.60635    0.01351     3.61950
      C    5    0.05878      0.99950     1.92418    0.01753     2.94122
      C    6    0.21243      0.99971     1.76717    0.02069     2.78757
      O    7   -0.21524      0.99988     3.20677    0.00859     4.21524
      C    8    0.41024      0.99967     1.56122    0.02888     2.58976
      O    9   -0.31095      0.99986     3.30473    0.00636     4.31095
      O   10   -0.27294      0.99986     3.26454    0.00854     4.27294
      C   11   -0.10748      0.99961     2.09936    0.00850     3.10748
      H   12    0.09790      0.00000     0.40083    0.00127     0.40210
      H   13    0.10078      0.00000     0.39817    0.00105     0.39922
      H   14    0.08553      0.00000     0.41320    0.00128     0.41447
      H   15    0.07820      0.00000     0.41971    0.00209     0.42180
      H   16    0.09639      0.00000     0.40217    0.00145     0.40361
      H   17    0.09928      0.00000     0.39963    0.00108     0.40072
      H   18    0.08574      0.00000     0.41296    0.00130     0.41426
      H   19    0.03179      0.00000     0.46566    0.00256     0.46821
      H   20    0.08985      0.00000     0.40897    0.00117     0.41015
      H   21    0.08584      0.00000     0.41288    0.00128     0.41416
      H   22    0.08404      0.00000     0.41513    0.00083     0.41596
 =======================================================================
   * Total *    0.00000     10.99664    30.85437    0.14900    42.00000

 Normal termination of Gaussian 16 at Tue Dec  8 22:07:06 2020.
