 Gaussian 16, Revision A.03,

 -----------------------------------------------------------
 # opt freq B3LYP/6-31G(d) empiricaldispersion=gd3bj scf=xqc
 -----------------------------------------------------------

 ----------------------------
 CID_433483_JID_8833_neutraal
 ----------------------------
 Symbolic Z-matrix:
 Charge =  0 Multiplicity = 1

 SCF Done:  E(RB3LYP) =  -732.604299832     A.U. after   15 cycles
 SCF Done:  E(RB3LYP) =  -732.649063072     A.U. after   13 cycles
 SCF Done:  E(RB3LYP) =  -732.674210215     A.U. after   15 cycles
 SCF Done:  E(RB3LYP) =  -732.676922898     A.U. after   13 cycles
 SCF Done:  E(RB3LYP) =  -732.675261701     A.U. after   13 cycles
 SCF Done:  E(RB3LYP) =  -732.676910601     A.U. after   13 cycles
 SCF Done:  E(RB3LYP) =  -732.677874989     A.U. after    9 cycles
 SCF Done:  E(RB3LYP) =  -732.678469950     A.U. after   12 cycles
 SCF Done:  E(RB3LYP) =  -732.678628290     A.U. after   12 cycles
 SCF Done:  E(RB3LYP) =  -732.678721904     A.U. after   11 cycles
 SCF Done:  E(RB3LYP) =  -732.678751679     A.U. after   10 cycles
 SCF Done:  E(RB3LYP) =  -732.678766255     A.U. after    9 cycles
 SCF Done:  E(RB3LYP) =  -732.678767933     A.U. after    8 cycles
 SCF Done:  E(RB3LYP) =  -732.678768716     A.U. after    8 cycles
 SCF Done:  E(RB3LYP) =  -732.678768867     A.U. after    7 cycles
 Optimization completed.
    -- Stationary point found.
 Normal termination of Gaussian 16 at Fri Dec 11 22:14:43 2020.

 --------------------------------------------------------------------
 #N Geom=AllCheck Guess=TCheck SCRF=Check GenChk RB3LYP/6-31G(d) Freq
 --------------------------------------------------------------------

 Structure from the checkpoint file:  "JID_8833.chk"
 ----------------------------
 CID_433483_JID_8833_neutraal
 ----------------------------
 Charge =  0 Multiplicity = 1

 SCF Done:  E(RB3LYP) =  -732.678768867     A.U. after    1 cycles

  Exact polarizability: 258.312 -16.948 137.578  -7.497  -9.926 148.039
 Approx polarizability: 354.543 -41.569 224.366 -14.417 -32.731 257.576

                      1                      2                      3
                      A                      A                      A
 Frequencies --     32.5422                42.2407                63.0250
 Red. masses --      4.2700                 4.1114                 3.1134
 Frc consts  --      0.0027                 0.0043                 0.0073
 IR Inten    --      0.0905                 0.0965                 0.0985

                      4                      5                      6
                      A                      A                      A
 Frequencies --     76.7649                90.4187               104.7581
 Red. masses --      4.0823                 4.5883                 4.1153
 Frc consts  --      0.0142                 0.0221                 0.0266
 IR Inten    --      0.0308                 0.0549                 0.3191

                      7                      8                      9
                      A                      A                      A
 Frequencies --    164.7090               200.8662               227.5914
 Red. masses --      4.0427                 3.8337                 5.2328
 Frc consts  --      0.0646                 0.0911                 0.1597
 IR Inten    --      0.4133                 0.1110                 0.1749

                     10                     11                     12
                      A                      A                      A
 Frequencies --    249.6929               267.7675               305.9154
 Red. masses --      1.1767                 3.2875                 2.3480
 Frc consts  --      0.0432                 0.1389                 0.1295
 IR Inten    --      1.2994                 0.1842                 0.2437

                     13                     14                     15
                      A                      A                      A
 Frequencies --    347.6736               352.0737               364.6231
 Red. masses --      1.8161                 3.8349                 2.9105
 Frc consts  --      0.1293                 0.2801                 0.2280
 IR Inten    --      6.9246                 1.4267                 7.9600

                     16                     17                     18
                      A                      A                      A
 Frequencies --    392.1510               404.6627               418.2374
 Red. masses --      1.5031                 4.4936                 3.0886
 Frc consts  --      0.1362                 0.4335                 0.3183
 IR Inten    --     95.5016                 6.8840                 1.9951

                     19                     20                     21
                      A                      A                      A
 Frequencies --    427.2763               437.8805               472.3331
 Red. masses --      3.5862                 2.5528                 3.7283
 Frc consts  --      0.3857                 0.2884                 0.4901
 IR Inten    --      0.1226                63.4639                 8.8690

                     22                     23                     24
                      A                      A                      A
 Frequencies --    517.9478               558.6114               580.1168
 Red. masses --      3.6519                 3.7374                 3.3727
 Frc consts  --      0.5772                 0.6871                 0.6687
 IR Inten    --      5.3825                 1.5604                 5.6756

                     25                     26                     27
                      A                      A                      A
 Frequencies --    631.9679               638.4341               645.7267
 Red. masses --      4.7377                 3.6454                 2.5466
 Frc consts  --      1.1148                 0.8754                 0.6256
 IR Inten    --      2.0673                 1.2463                16.4893

                     28                     29                     30
                      A                      A                      A
 Frequencies --    659.4091               691.3268               714.3031
 Red. masses --      6.6539                 5.0848                 1.8867
 Frc consts  --      1.7047                 1.4318                 0.5672
 IR Inten    --      0.4448                10.2502                20.4034

                     31                     32                     33
                      A                      A                      A
 Frequencies --    750.9459               782.4069               790.0770
 Red. masses --      2.8557                 2.3095                 5.4258
 Frc consts  --      0.9488                 0.8330                 1.9955
 IR Inten    --     23.1432                21.7505                 0.5025

                     34                     35                     36
                      A                      A                      A
 Frequencies --    858.0273               860.4343               866.0334
 Red. masses --      1.4148                 1.2617                 1.3264
 Frc consts  --      0.6137                 0.5504                 0.5861
 IR Inten    --     17.9760                 1.7405                53.3580

                     37                     38                     39
                      A                      A                      A
 Frequencies --    867.6527               905.2418               929.0756
 Red. masses --      1.3461                 1.1931                 1.4271
 Frc consts  --      0.5971                 0.5760                 0.7258
 IR Inten    --      9.3715                21.0139                 1.4509

                     40                     41                     42
                      A                      A                      A
 Frequencies --    939.0059               950.9132               968.5578
 Red. masses --      2.1344                 2.5057                 1.3430
 Frc consts  --      1.1088                 1.3349                 0.7423
 IR Inten    --      7.3077                20.5824                 0.6434

                     43                     44                     45
                      A                      A                      A
 Frequencies --    972.8684               983.4607               994.5218
 Red. masses --      1.3159                 1.3043                 1.2449
 Frc consts  --      0.7338                 0.7433                 0.7255
 IR Inten    --      0.4597                 1.6563                 0.0963

                     46                     47                     48
                      A                      A                      A
 Frequencies --   1020.9177              1029.3352              1034.0642
 Red. masses --      6.0297                 5.7228                 1.5247
 Frc consts  --      3.7028                 3.5725                 0.9606
 IR Inten    --      1.0417                 8.3050                 0.2317

                     49                     50                     51
                      A                      A                      A
 Frequencies --   1045.6145              1054.9867              1073.5512
 Red. masses --      3.0096                 2.5545                 1.9191
 Frc consts  --      1.9387                 1.6751                 1.3032
 IR Inten    --     24.9695                26.3259                 4.4912

                     52                     53                     54
                      A                      A                      A
 Frequencies --   1115.2054              1120.6909              1137.9057
 Red. masses --      1.6008                 1.9653                 1.7625
 Frc consts  --      1.1730                 1.4543                 1.3446
 IR Inten    --      4.4269                25.0482                20.7025

                     55                     56                     57
                      A                      A                      A
 Frequencies --   1153.2507              1184.5083              1194.1997
 Red. masses --      1.6090                 2.0824                 1.0943
 Frc consts  --      1.2608                 1.7214                 0.9194
 IR Inten    --      6.2829                23.6245                 0.0424

                     58                     59                     60
                      A                      A                      A
 Frequencies --   1216.0262              1225.5148              1283.7606
 Red. masses --      1.1313                 1.1430                 4.0184
 Frc consts  --      0.9857                 1.0115                 3.9019
 IR Inten    --      0.2325                 3.9199                39.8566

                     61                     62                     63
                      A                      A                      A
 Frequencies --   1319.3470              1322.2430              1333.9313
 Red. masses --      2.6984                 3.0324                 1.4921
 Frc consts  --      2.7674                 3.1237                 1.5643
 IR Inten    --      8.9953                 0.6471                40.7807

                     64                     65                     66
                      A                      A                      A
 Frequencies --   1350.6941              1354.1089              1372.2847
 Red. masses --      1.4576                 4.9085                 1.8108
 Frc consts  --      1.5667                 5.3028                 2.0092
 IR Inten    --      5.5586                 0.2473                 0.2672

                     67                     68                     69
                      A                      A                      A
 Frequencies --   1388.9475              1431.0170              1448.8908
 Red. masses --      1.6222                 1.2753                 2.7219
 Frc consts  --      1.8439                 1.5387                 3.3666
 IR Inten    --     73.0009                 6.6897                 9.9311

                     70                     71                     72
                      A                      A                      A
 Frequencies --   1497.2910              1499.8435              1511.6732
 Red. masses --      2.1123                 1.5467                 1.0549
 Frc consts  --      2.7901                 2.0499                 1.4203
 IR Inten    --      2.3980                 0.0343                 0.8127

                     73                     74                     75
                      A                      A                      A
 Frequencies --   1522.6838              1541.2832              1568.6588
 Red. masses --      1.0635                 2.1232                 2.6220
 Frc consts  --      1.4528                 2.9717                 3.8014
 IR Inten    --      1.9437                30.3503                 2.6890

                     76                     77                     78
                      A                      A                      A
 Frequencies --   1617.5894              1642.6311              1665.6638
 Red. masses --      5.8896                 5.9434                 5.5697
 Frc consts  --      9.0797                 9.4486                 9.1046
 IR Inten    --      2.2008                 1.0357                 7.6620

                     79                     80                     81
                      A                      A                      A
 Frequencies --   1675.0355              2073.7918              3063.9861
 Red. masses --      5.8228                10.0994                 1.0343
 Frc consts  --      9.6257                25.5903                 5.7212
 IR Inten    --      2.2705                42.6375                21.1825

                     82                     83                     84
                      A                      A                      A
 Frequencies --   3138.8350              3146.0682              3148.2403
 Red. masses --      1.1027                 1.0694                 1.0778
 Frc consts  --      6.4008                 6.2365                 6.2941
 IR Inten    --     25.2107                 9.8518                11.1121

                     85                     86                     87
                      A                      A                      A
 Frequencies --   3149.5572              3181.2711              3187.1587
 Red. masses --      1.1023                 1.0846                 1.0873
 Frc consts  --      6.4426                 6.4673                 6.5071
 IR Inten    --     15.5407                 6.2627                 4.0579

                     88                     89                     90
                      A                      A                      A
 Frequencies --   3190.0946              3193.7681              3199.1102
 Red. masses --      1.0871                 1.0888                 1.0906
 Frc consts  --      6.5180                 6.5432                 6.5759
 IR Inten    --     19.4327                 7.6677                10.1796

                     91                     92                     93
                      A                      A                      A
 Frequencies --   3204.3224              3207.5536              3212.5168
 Red. masses --      1.0936                 1.0938                 1.0978
 Frc consts  --      6.6159                 6.6301                 6.6749
 IR Inten    --     24.7125                28.7746                19.6282

                     94                     95                     96
                      A                      A                      A
 Frequencies --   3215.9963              3222.9899              3723.4895
 Red. masses --      1.1153                 1.0917                 1.0659
 Frc consts  --      6.7965                 6.6818                 8.7070
 IR Inten    --      2.8625                 6.2059                11.1254

 - Thermochemistry -
 -------------------
 Temperature   298.150 Kelvin.  Pressure   1.00000 Atm.
 Atom     1 has atomic number  6 and mass  12.00000

 Molecular mass:   236.12012 amu.
 Principal axes and moments of inertia in atomic units:
                           1         2         3
     Eigenvalues --  1776.510119467.229929840.09766
           X            0.99999  -0.00117  -0.00438
           Y            0.00120   0.99998   0.00690
           Z            0.00438  -0.00691   0.99997
 This molecule is an asymmetric top.
 Rotational symmetry number  1.
 Warning -- assumption of classical behavior for rotation
           may cause significant error
 Rotational temperatures (Kelvin)      0.04876     0.00915     0.00880
 Rotational constants (GHZ):           1.01589     0.19063     0.18341
 Zero-point vibrational energy     735179.2 (Joules/Mol)
                                  175.71205 (Kcal/Mol)
 Warning -- explicit consideration of  24 degrees of freedom as
           vibrations may cause significant error
 Vibrational temperatures:     46.82    60.77    90.68   110.45   130.09
          (Kelvin)            150.72   236.98   289.00   327.45   359.25
                              385.26   440.14   500.22   506.56   524.61
                              564.22   582.22   601.75   614.76   630.01
                              679.58   745.21   803.72   834.66   909.26
                              918.56   929.06   948.74   994.67  1027.72
                             1080.44  1125.71  1136.74  1234.51  1237.97
                             1246.03  1248.36  1302.44  1336.73  1351.02
                             1368.15  1393.54  1399.74  1414.98  1430.90
                             1468.87  1480.98  1487.79  1504.41  1517.89
                             1544.60  1604.53  1612.42  1637.19  1659.27
                             1704.24  1718.19  1749.59  1763.24  1847.05
                             1898.25  1902.41  1919.23  1943.35  1948.26
                             1974.41  1998.39  2058.91  2084.63  2154.27
                             2157.94  2174.96  2190.80  2217.56  2256.95
                             2327.35  2363.38  2396.52  2410.00  2983.72
                             4408.39  4516.08  4526.49  4529.62  4531.51
                             4577.14  4585.61  4589.83  4595.12  4602.81
                             4610.31  4614.95  4622.10  4627.10  4637.16
                             5357.27

 Zero-point correction=                           0.280015 (Hartree/Particle)
 Thermal correction to Energy=                    0.296148
 Thermal correction to Enthalpy=                  0.297092
 Thermal correction to Gibbs Free Energy=         0.235793
 Sum of electronic and zero-point Energies=           -732.398754
 Sum of electronic and thermal Energies=              -732.382621
 Sum of electronic and thermal Enthalpies=            -732.381677
 Sum of electronic and thermal Free Energies=         -732.442976

                     E (Thermal)             CV                S
                      KCal/Mol        Cal/Mol-Kelvin    Cal/Mol-Kelvin
 Total                  185.835             63.819            129.015
 Electronic               0.000              0.000              0.000
 Translational            0.889              2.981             42.279
 Rotational               0.889              2.981             33.470
 Vibrational            184.058             57.858             53.266
 Vibration     1          0.594              1.983              5.668
 Vibration     2          0.595              1.980              5.151
 Vibration     3          0.597              1.972              4.360
 Vibration     4          0.599              1.965              3.972
 Vibration     5          0.602              1.956              3.651
 Vibration     6          0.605              1.945              3.364
 Vibration     7          0.623              1.886              2.495
 Vibration     8          0.638              1.839              2.125
 Vibration     9          0.651              1.799              1.898
 Vibration    10          0.662              1.763              1.733
 Vibration    11          0.673              1.732              1.611
 Vibration    12          0.696              1.662              1.384
 Vibration    13          0.725              1.580              1.177
 Vibration    14          0.729              1.571              1.157
 Vibration    15          0.738              1.545              1.102
 Vibration    16          0.760              1.487              0.992
 Vibration    17          0.770              1.460              0.946
 Vibration    18          0.781              1.431              0.898
 Vibration    19          0.789              1.411              0.868
 Vibration    20          0.798              1.388              0.833
 Vibration    21          0.829              1.311              0.731
 Vibration    22          0.873              1.210              0.615
 Vibration    23          0.914              1.121              0.527
 Vibration    24          0.937              1.074              0.485

 Optimization completed.
    -- Stationary point found.
 Normal termination of Gaussian 16 at Fri Dec 11 22:27:28 2020.

 ----------------------------------------------------------------------
 # B3LYP/6-311++G(d,p) empiricaldispersion=gd3bj scf=xqc pop=npa geom=c
 heck
 ----------------------------------------------------------------------

 ------------------------------------
 CID_433483_JID_8833_Energie_neutraal
 ------------------------------------
 Structure from the checkpoint file:  "JID_8833.chk"
 Charge =  0 Multiplicity = 1

 SCF Done:  E(RB3LYP) =  -732.878162093     A.U. after   15 cycles
 Normal termination of Gaussian 16 at Fri Dec 11 22:33:24 2020.

 ----------------------------------------------------------------------
 # B3LYP/6-311++G(d,p) empiricaldispersion=gd3bj scf=xqc pop=npa geom=c
 heck
 ----------------------------------------------------------------------

 ----------------------------------
 CID_433483_JID_8833_Energie_kation
 ----------------------------------
 Structure from the checkpoint file:  "JID_8833.chk"
 Charge =  1 Multiplicity = 2

 SCF Done:  E(UB3LYP) =  -732.590255651     A.U. after   23 cycles
 Normal termination of Gaussian 16 at Fri Dec 11 22:46:20 2020.
 Gaussian 16:  ES64L-G16RevA.03 25-Dec-2016

 ----------------------------------------------------------------------
 # B3LYP/6-311++G(d,p) empiricaldispersion=gd3bj scf=xqc pop=npa geom=c
 heck
 ----------------------------------------------------------------------

 ---------------------------------
 CID_433483_JID_8833_Energie_anion
 ---------------------------------
 Structure from the checkpoint file:  "JID_8833.chk"
 Charge = -1 Multiplicity = 2

                         Standard orientation:
 ---------------------------------------------------------------------
 Center     Atomic      Atomic             Coordinates (Angstroms)
 Number     Number       Type             X           Y           Z
 ---------------------------------------------------------------------
      1          6           0        3.596721   -1.358247   -1.440055
      2          6           0        3.193146   -0.636801   -0.148350
      3          6           0        3.941467    0.689468   -0.029825
      4          6           0        3.437487    1.821676    0.389084
      5          6           0        2.927458    2.954708    0.790810
      6          6           0        1.676322   -0.468517   -0.095985
      7          6           0        1.021871    0.426019   -0.952896
      8          6           0       -0.361941    0.554051   -0.929907
      9          6           0       -1.146159   -0.209943   -0.049903
     10          6           0       -0.486725   -1.111475    0.796716
     11          6           0        0.900700   -1.240637    0.771273
     12          6           0       -2.620443   -0.069384   -0.021405
     13          6           0       -3.347661    0.144962   -1.203219
     14          6           0       -4.734330    0.277663   -1.176168
     15          6           0       -5.424720    0.196826    0.034120
     16          6           0       -4.714940   -0.016931    1.216689
     17          6           0       -3.328067   -0.147316    1.188799
     18          8           0        3.666531   -1.488426    0.907245
     19          1           0        3.271962   -0.791198   -2.316694
     20          1           0        3.127133   -2.345741   -1.465850
     21          1           0        4.683684   -1.483750   -1.475868
     22          1           0        5.008499    0.625677   -0.245162
     23          1           0        2.872037    3.214179    1.846055
     24          1           0        2.527186    3.680237    0.085408
     25          1           0        1.602565    1.039863   -1.634673
     26          1           0       -0.842912    1.277122   -1.582126
     27          1           0       -1.069206   -1.741774    1.462444
     28          1           0        1.390489   -1.964354    1.413262
     29          1           0       -2.821227    0.181071   -2.152466
     30          1           0       -5.277735    0.435097   -2.103848
     31          1           0       -6.505932    0.299416    0.055497
     32          1           0       -5.241484   -0.073167    2.165507
     33          1           0       -2.780589   -0.285821    2.116458
     34          1           0        3.542170   -0.996181    1.735435
 ---------------------------------------------------------------------

 SCF Done:  E(UB3LYP) =  -732.870268630     A.U. after   33 cycles
 SCF Done:  E(UB3LYP) =  -732.870268630     a.u. after    1 cycles

 The electronic state is 2-A.
 Alpha  occ. eigenvalues --  -19.02105 -10.13716 -10.08935 -10.07838 -10.07734
 Alpha  occ. eigenvalues --  -10.05997 -10.05863 -10.05859 -10.05305 -10.05159
 Alpha  occ. eigenvalues --  -10.05144 -10.05103 -10.04986 -10.04949 -10.04889
 Alpha  occ. eigenvalues --  -10.04862 -10.04824 -10.04565  -0.92574  -0.74800
 Alpha  occ. eigenvalues --   -0.73128  -0.70541  -0.66972  -0.64586  -0.63140
 Alpha  occ. eigenvalues --   -0.62214  -0.60264  -0.59807  -0.52044  -0.50024
 Alpha  occ. eigenvalues --   -0.48755  -0.47394  -0.45720  -0.42867  -0.41965
 Alpha  occ. eigenvalues --   -0.40346  -0.37716  -0.36145  -0.34997  -0.34660
 Alpha  occ. eigenvalues --   -0.34346  -0.32572  -0.32444  -0.31984  -0.30874
 Alpha  occ. eigenvalues --   -0.30033  -0.29822  -0.28617  -0.28349  -0.26069
 Alpha  occ. eigenvalues --   -0.25888  -0.24576  -0.23514  -0.23285  -0.21875
 Alpha  occ. eigenvalues --   -0.21453  -0.19443  -0.16884  -0.16082  -0.15664
 Alpha  occ. eigenvalues --   -0.14218  -0.13476  -0.10834   0.04800
 Alpha virt. eigenvalues --    0.06495   0.07461   0.07981   0.08452   0.08597
 Alpha virt. eigenvalues --    0.08899   0.09730   0.09861   0.10199   0.10240
 Alpha virt. eigenvalues --    0.10504   0.10813   0.11317   0.11607   0.11913

  Beta  occ. eigenvalues --  -19.02087 -10.13726 -10.08907 -10.07810 -10.07718
  Beta  occ. eigenvalues --  -10.05976 -10.05881 -10.05878 -10.05165 -10.05109
  Beta  occ. eigenvalues --  -10.05091 -10.05070 -10.04894 -10.04799 -10.04782
  Beta  occ. eigenvalues --  -10.04744 -10.04730 -10.04485  -0.92528  -0.74548
  Beta  occ. eigenvalues --   -0.72938  -0.70434  -0.66792  -0.64348  -0.62980
  Beta  occ. eigenvalues --   -0.62061  -0.60180  -0.59566  -0.51780  -0.49968
  Beta  occ. eigenvalues --   -0.48523  -0.47316  -0.45514  -0.42789  -0.41895
  Beta  occ. eigenvalues --   -0.40252  -0.37660  -0.35987  -0.34925  -0.34555
  Beta  occ. eigenvalues --   -0.34233  -0.32464  -0.32331  -0.31856  -0.30833
  Beta  occ. eigenvalues --   -0.29979  -0.29752  -0.28580  -0.28233  -0.25977
  Beta  occ. eigenvalues --   -0.25350  -0.24336  -0.23387  -0.22970  -0.21736
  Beta  occ. eigenvalues --   -0.21368  -0.19356  -0.16794  -0.15797  -0.14876
  Beta  occ. eigenvalues --   -0.13783  -0.13062  -0.09913
  Beta virt. eigenvalues --    0.06920   0.07427   0.08156   0.08493   0.08610
  Beta virt. eigenvalues --    0.08690   0.08921   0.09817   0.09889   0.10265
  Beta virt. eigenvalues --    0.10435   0.10571   0.10955   0.11441   0.11667

 Mulliken charges and spin densities:
               1          2
     1  C   -0.057540  -0.584894
     2  C   -0.324422   0.058439
     3  C   -0.739683  -0.283343
     4  C    1.331725  -0.563988
     5  C   -0.395764   0.277886
     6  C    1.502047  -0.123669
     7  C   -0.819663   0.048787
     8  C   -0.485517  -0.077061
     9  C    0.885459  -0.160565
    10  C   -0.919435   0.277577
    11  C   -0.369164  -0.029724
    12  C    1.185404   0.037780
    13  C   -0.502266   0.016095
    14  C   -0.398308  -0.003047
    15  C   -0.263134   0.099505
    16  C   -0.421980   0.015320
    17  C   -0.490544   0.127149
    18  O   -0.145931   0.005732
    19  H    0.012685   0.139829
    20  H    0.142462   0.025813
    21  H    0.083375   0.045127
    22  H   -0.701928   0.926261
    23  H   -0.047676   0.174432
    24  H    0.116531   0.006799
    25  H    0.000405   0.153888
    26  H    0.130555  -0.006000
    27  H    0.069610   0.053896
    28  H    0.054915   0.082628
    29  H    0.071604   0.047762
    30  H    0.106468   0.025660
    31  H    0.101488  -0.008277
    32  H    0.122637   0.008952
    33  H    0.124985  -0.007653
    34  H    0.040598   0.192903
 Sum of Mulliken charges =  -1.00000   1.00000

 Dipole moment (field-independent basis, Debye):
    X=             -2.5207    Y=              0.3132    Z=             -0.1782  Tot=              2.5463
 Quadrupole moment (field-independent basis, Debye-Ang):
   XX=           -197.2232   YY=           -130.9101   ZZ=           -120.5023
   XY=             -3.8493   XZ=             -3.1971   YZ=             -1.7579

 Summary of Natural Population Analysis:

                                       Natural Population
                Natural  -----------------------------------------------
    Atom  No    Charge         Core      Valence    Rydberg      Total
 -----------------------------------------------------------------------
      C    1   -0.27846      0.99962     2.27332    0.00552     3.27846
      C    2    0.11656      0.99948     1.86792    0.01604     2.88344
      C    3   -0.14818      0.99943     2.13738    0.01138     3.14818
      C    4    0.05446      0.99951     1.93722    0.00880     2.94554
      C    5   -0.23409      0.99950     2.22829    0.00630     3.23409
      C    6   -0.00109      0.99947     1.98976    0.01186     3.00109
      C    7   -0.10284      0.99952     2.09482    0.00850     3.10284
      C    8   -0.08512      0.99953     2.07693    0.00866     3.08512
      C    9   -0.00975      0.99950     1.99941    0.01084     3.00975
      C   10   -0.07841      0.99953     2.07134    0.00753     3.07841
      C   11   -0.10921      0.99951     2.10075    0.00895     3.10921
      C   12    0.00522      0.99942     1.98586    0.00951     2.99478
      C   13   -0.08637      0.99954     2.07911    0.00771     3.08637
      C   14   -0.11117      0.99957     2.10263    0.00896     3.11117
      C   15   -0.07810      0.99957     2.06912    0.00941     3.07810
      C   16   -0.11095      0.99957     2.10245    0.00893     3.11095
      C   17   -0.08640      0.99954     2.07923    0.00762     3.08640
      O   18   -0.37210      0.99989     3.36573    0.00648     4.37210
      H   19    0.10169      0.00000     0.39745    0.00086     0.39831
      H   20    0.10460      0.00000     0.39452    0.00087     0.39540
      H   21    0.09799      0.00000     0.40098    0.00102     0.40201
      H   22    0.11315      0.00000     0.38361    0.00324     0.38685
      H   23    0.10417      0.00000     0.39469    0.00114     0.39583
      H   24    0.10350      0.00000     0.39539    0.00111     0.39650
      H   25    0.09775      0.00000     0.40089    0.00136     0.40225
      H   26    0.09568      0.00000     0.40292    0.00141     0.40432
      H   27    0.09511      0.00000     0.40336    0.00153     0.40489
      H   28    0.10300      0.00000     0.39594    0.00107     0.39700
      H   29    0.09659      0.00000     0.40201    0.00140     0.40341
      H   30    0.09226      0.00000     0.40643    0.00131     0.40774
      H   31    0.08977      0.00000     0.40919    0.00104     0.41023
      H   32    0.09244      0.00000     0.40658    0.00098     0.40756
      H   33    0.09674      0.00000     0.40208    0.00118     0.40326
      H   34    0.23155      0.00000     0.26563    0.00281     0.26845
 =======================================================================
   * Total *    0.00000     17.99172    44.82292    0.18536    63.00000

 Normal termination of Gaussian 16 at Fri Dec 11 23:05:06 2020.
