 Gaussian 16, Revision A.03,

 -----------------------------------------------------------
 # opt freq B3LYP/6-31G(d) empiricaldispersion=gd3bj scf=xqc
 -----------------------------------------------------------

 ------------------------------
 CID_64974039_JID_3828_neutraal
 ------------------------------
 Symbolic Z-matrix:
 Charge =  0 Multiplicity = 1

 SCF Done:  E(RB3LYP) =  -1065.45153174     A.U. after   14 cycles
 SCF Done:  E(RB3LYP) =  -1065.45655679     A.U. after   13 cycles
 SCF Done:  E(RB3LYP) =  -1065.45413667     A.U. after   13 cycles
 SCF Done:  E(RB3LYP) =  -1065.45688182     A.U. after   13 cycles
 SCF Done:  E(RB3LYP) =  -1065.45746774     A.U. after   15 cycles
 SCF Done:  E(RB3LYP) =  -1065.45915233     A.U. after   12 cycles
 SCF Done:  E(RB3LYP) =  -1065.45976652     A.U. after   12 cycles
 SCF Done:  E(RB3LYP) =  -1065.45987568     A.U. after   12 cycles
 SCF Done:  E(RB3LYP) =  -1065.46038289     A.U. after   12 cycles
 SCF Done:  E(RB3LYP) =  -1065.46051674     A.U. after   11 cycles
 SCF Done:  E(RB3LYP) =  -1065.46061828     A.U. after   10 cycles
 SCF Done:  E(RB3LYP) =  -1065.46062282     A.U. after   10 cycles
 SCF Done:  E(RB3LYP) =  -1065.46062568     A.U. after   10 cycles
 SCF Done:  E(RB3LYP) =  -1065.46062662     A.U. after    9 cycles
 SCF Done:  E(RB3LYP) =  -1065.46062706     A.U. after    8 cycles
 SCF Done:  E(RB3LYP) =  -1065.46062712     A.U. after    7 cycles
 Optimization completed.
    -- Stationary point found.
 Normal termination of Gaussian 16 at Mon Dec 14 16:35:27 2020.

 --------------------------------------------------------------------
 #N Geom=AllCheck Guess=TCheck SCRF=Check GenChk RB3LYP/6-31G(d) Freq
 --------------------------------------------------------------------

 Structure from the checkpoint file:  "JID_3828.chk"
 ------------------------------
 CID_64974039_JID_3828_neutraal
 ------------------------------
 Charge =  0 Multiplicity = 1

 SCF Done:  E(RB3LYP) =  -1065.46062712     A.U. after    1 cycles

  Exact polarizability:  96.975   5.665 112.535   0.328  -0.090  90.823
 Approx polarizability: 136.375   6.982 159.955  -2.733   0.803 148.297

                      1                      2                      3
                      A                      A                      A
 Frequencies --     24.1948                32.8719                67.7764
 Red. masses --      5.1571                 5.2966                 5.6219
 Frc consts  --      0.0018                 0.0034                 0.0152
 IR Inten    --      2.1860                 1.5369                 0.6070

                      4                      5                      6
                      A                      A                      A
 Frequencies --     75.5172                92.8736               111.9484
 Red. masses --      6.4824                 4.3129                 2.4386
 Frc consts  --      0.0218                 0.0219                 0.0180
 IR Inten    --      2.4938                 0.3491                 0.2852

                      7                      8                      9
                      A                      A                      A
 Frequencies --    166.6229               170.9749               210.1602
 Red. masses --      4.0199                 5.2011                 3.4192
 Frc consts  --      0.0658                 0.0896                 0.0890
 IR Inten    --      1.2601                 1.5828                 1.2882

                     10                     11                     12
                      A                      A                      A
 Frequencies --    241.2506               254.6117               286.7609
 Red. masses --      2.0140                 2.3285                 2.5048
 Frc consts  --      0.0691                 0.0889                 0.1214
 IR Inten    --      1.0819                 0.1164                 2.0131

                     13                     14                     15
                      A                      A                      A
 Frequencies --    324.9210               328.4936               394.6597
 Red. masses --      3.5985                 3.2359                 2.8583
 Frc consts  --      0.2238                 0.2057                 0.2623
 IR Inten    --      0.3438                 6.2806                 6.4596

                     16                     17                     18
                      A                      A                      A
 Frequencies --    413.7345               453.5250               479.2728
 Red. masses --      3.7136                 3.8107                 3.3945
 Frc consts  --      0.3745                 0.4618                 0.4594
 IR Inten    --     12.2301                 2.3951                25.0040

                     19                     20                     21
                      A                      A                      A
 Frequencies --    500.1145               539.8517               545.0473
 Red. masses --      4.2363                 2.3333                 4.5296
 Frc consts  --      0.6243                 0.4007                 0.7928
 IR Inten    --     35.2773                19.0083                33.9014

                     22                     23                     24
                      A                      A                      A
 Frequencies --    606.3396               648.0306               686.3667
 Red. masses --      2.5753                 6.4167                 1.7888
 Frc consts  --      0.5578                 1.5877                 0.4965
 IR Inten    --     35.5832                38.0280                59.6493

                     25                     26                     27
                      A                      A                      A
 Frequencies --    710.4060               785.2730               810.4621
 Red. masses --      2.1086                 2.2781                 1.2335
 Frc consts  --      0.6270                 0.8277                 0.4774
 IR Inten    --    114.9465                38.8387                 5.3755

                     28                     29                     30
                      A                      A                      A
 Frequencies --    855.7025               872.1197               896.0752
 Red. masses --      2.5709                 2.3864                 2.4352
 Frc consts  --      1.1091                 1.0694                 1.1521
 IR Inten    --     10.4880                 5.3266                 3.7351

                     31                     32                     33
                      A                      A                      A
 Frequencies --    957.7458               991.0456              1011.0070
 Red. masses --      2.7464                 1.7414                 2.0578
 Frc consts  --      1.4843                 1.0077                 1.2393
 IR Inten    --     23.1609                34.2531                15.6035

                     34                     35                     36
                      A                      A                      A
 Frequencies --   1024.0282              1081.5803              1114.8062
 Red. masses --      2.1250                 4.2651                 2.6008
 Frc consts  --      1.3129                 2.9397                 1.9044
 IR Inten    --     21.5432               115.2284                 8.4224

                     37                     38                     39
                      A                      A                      A
 Frequencies --   1116.6688              1127.0531              1153.6494
 Red. masses --      2.1293                 3.8338                 1.6700
 Frc consts  --      1.5644                 2.8693                 1.3095
 IR Inten    --     45.8611                54.8132               139.3608

                     40                     41                     42
                      A                      A                      A
 Frequencies --   1196.2317              1206.9408              1235.6131
 Red. masses --      1.3042                 1.7535                 1.4244
 Frc consts  --      1.0996                 1.5050                 1.2813
 IR Inten    --     18.7245                 2.3307                86.7019

                     43                     44                     45
                      A                      A                      A
 Frequencies --   1306.4054              1324.5953              1343.0845
 Red. masses --      1.3422                 2.0512                 1.3871
 Frc consts  --      1.3496                 2.1205                 1.4742
 IR Inten    --     10.3724                60.5508                42.5666

                     46                     47                     48
                      A                      A                      A
 Frequencies --   1348.0209              1364.3613              1399.0007
 Red. masses --      1.6021                 2.0346                 1.4705
 Frc consts  --      1.7152                 2.2315                 1.6957
 IR Inten    --     47.1770                13.1050                 6.9621

                     49                     50                     51
                      A                      A                      A
 Frequencies --   1412.2839              1418.4173              1438.9685
 Red. masses --      1.2215                 1.4884                 1.2692
 Frc consts  --      1.4354                 1.7643                 1.5484
 IR Inten    --      7.0972                 9.2330                 8.7949

                     52                     53                     54
                      A                      A                      A
 Frequencies --   1444.4318              1487.9468              1492.7364
 Red. masses --      1.1949                 1.0836                 1.0759
 Frc consts  --      1.4689                 1.4135                 1.4125
 IR Inten    --     51.7262                 3.3393                12.6008

                     55                     56                     57
                      A                      A                      A
 Frequencies --   1506.9073              1510.6648              1520.3043
 Red. masses --      1.0908                 1.0862                 1.0490
 Frc consts  --      1.4594                 1.4604                 1.4286
 IR Inten    --      7.5542                 3.5452                 5.2202

                     58                     59                     60
                      A                      A                      A
 Frequencies --   1540.8517              1851.2778              3056.2142
 Red. masses --      1.0531                 9.6664                 1.0719
 Frc consts  --      1.4731                19.5191                 5.8990
 IR Inten    --      2.7487               236.0094                 9.1444

                     61                     62                     63
                      A                      A                      A
 Frequencies --   3061.5812              3076.6276              3079.5789
 Red. masses --      1.0390                 1.0582                 1.0621
 Frc consts  --      5.7379                 5.9013                 5.9349
 IR Inten    --     13.4600                27.1667                14.8116

                     64                     65                     66
                      A                      A                      A
 Frequencies --   3101.6455              3122.8539              3126.0811
 Red. masses --      1.0650                 1.1031                 1.1070
 Frc consts  --      6.0367                 6.3381                 6.3738
 IR Inten    --      2.7467                 4.4367                 8.0952

                     67                     68                     69
                      A                      A                      A
 Frequencies --   3129.3428              3157.0714              3160.1859
 Red. masses --      1.0987                 1.1039                 1.0907
 Frc consts  --      6.3395                 6.4827                 6.4175
 IR Inten    --     23.9642                31.7907                 4.2034

                     70                     71                     72
                      A                      A                      A
 Frequencies --   3175.4305              3443.6128              3684.3059
 Red. masses --      1.0981                 1.0755                 1.0641
 Frc consts  --      6.5235                 7.5142                 8.5102
 IR Inten    --      1.3228                17.4617                45.7175

 - Thermochemistry -
 -------------------
 Temperature   298.150 Kelvin.  Pressure   1.00000 Atm.
 Atom     1 has atomic number  6 and mass  12.00000

 Molecular mass:   211.05144 amu.
 Principal axes and moments of inertia in atomic units:
                           1         2         3
     Eigenvalues --  2159.053632829.011623947.13509
           X            0.99994  -0.00797   0.00764
           Y            0.00788   0.99990   0.01201
           Z           -0.00773  -0.01195   0.99990
 This molecule is an asymmetric top.
 Rotational symmetry number  1.
 Warning -- assumption of classical behavior for rotation
           may cause significant error
 Rotational temperatures (Kelvin)      0.04012     0.03062     0.02194
 Rotational constants (GHZ):           0.83589     0.63794     0.45723
 Zero-point vibrational energy     549607.0 (Joules/Mol)
                                  131.35923 (Kcal/Mol)
 Warning -- explicit consideration of  22 degrees of freedom as
           vibrations may cause significant error
 Vibrational temperatures:     34.81    47.30    97.52   108.65   133.62
          (Kelvin)            161.07   239.73   245.99   302.37   347.11
                              366.33   412.58   467.49   472.63   567.83
                              595.27   652.52   689.57   719.55   776.73
                              784.20   872.39   932.37   987.53  1022.12
                             1129.83  1166.07  1231.17  1254.79  1289.25
                             1377.98  1425.89  1454.61  1473.35  1556.15
                             1603.96  1606.64  1621.58  1659.84  1721.11
                             1736.52  1777.77  1879.63  1905.80  1932.40
                             1939.50  1963.01  2012.85  2031.96  2040.79
                             2070.35  2078.22  2140.82  2147.71  2168.10
                             2173.51  2187.38  2216.94  2663.58  4397.21
                             4404.93  4426.58  4430.83  4462.58  4493.09
                             4497.73  4502.43  4542.32  4546.80  4568.74
                             4954.59  5300.89

 Zero-point correction=                           0.209334 (Hartree/Particle)
 Thermal correction to Energy=                    0.223935
 Thermal correction to Enthalpy=                  0.224879
 Thermal correction to Gibbs Free Energy=         0.166209
 Sum of electronic and zero-point Energies=          -1065.251293
 Sum of electronic and thermal Energies=             -1065.236693
 Sum of electronic and thermal Enthalpies=           -1065.235748
 Sum of electronic and thermal Free Energies=        -1065.294418

                     E (Thermal)             CV                S
                      KCal/Mol        Cal/Mol-Kelvin    Cal/Mol-Kelvin
 Total                  140.521             52.533            123.480
 Electronic               0.000              0.000              0.000
 Translational            0.889              2.981             41.944
 Rotational               0.889              2.981             31.556
 Vibrational            138.744             46.572             49.980
 Vibration     1          0.593              1.985              6.256
 Vibration     2          0.594              1.983              5.648
 Vibration     3          0.598              1.970              4.217
 Vibration     4          0.599              1.965              4.004
 Vibration     5          0.602              1.954              3.599
 Vibration     6          0.607              1.940              3.235
 Vibration     7          0.624              1.884              2.473
 Vibration     8          0.626              1.878              2.425
 Vibration     9          0.642              1.825              2.042
 Vibration    10          0.658              1.777              1.794
 Vibration    11          0.665              1.755              1.698
 Vibration    12          0.684              1.698              1.493
 Vibration    13          0.709              1.626              1.285
 Vibration    14          0.712              1.619              1.267
 Vibration    15          0.762              1.482              0.982
 Vibration    16          0.777              1.440              0.914
 Vibration    17          0.812              1.353              0.785
 Vibration    18          0.836              1.296              0.712
 Vibration    19          0.856              1.250              0.658
 Vibration    20          0.895              1.162              0.566
 Vibration    21          0.900              1.151              0.555
 Vibration    22          0.965              1.018              0.439

 Optimization completed.
    -- Stationary point found.
 Normal termination of Gaussian 16 at Mon Dec 14 16:42:29 2020.

 ----------------------------------------------------------------------
 # B3LYP/6-311++G(d,p) empiricaldispersion=gd3bj scf=xqc pop=npa geom=c
 heck
 ----------------------------------------------------------------------

 --------------------------------------
 CID_64974039_JID_3828_Energie_neutraal
 --------------------------------------
 Structure from the checkpoint file:  "JID_3828.chk"
 Charge =  0 Multiplicity = 1

 SCF Done:  E(RB3LYP) =  -1065.69966006     A.U. after   15 cycles
 Normal termination of Gaussian 16 at Mon Dec 14 16:45:34 2020.

 ----------------------------------------------------------------------
 # B3LYP/6-311++G(d,p) empiricaldispersion=gd3bj scf=xqc pop=npa geom=c
 heck
 ----------------------------------------------------------------------

 ------------------------------------
 CID_64974039_JID_3828_Energie_kation
 ------------------------------------
 Structure from the checkpoint file:  "JID_3828.chk"
 Charge =  1 Multiplicity = 2

 SCF Done:  E(UB3LYP) =  -1065.34078104     A.U. after   29 cycles
 Normal termination of Gaussian 16 at Mon Dec 14 16:53:56 2020.
 Gaussian 16:  ES64L-G16RevA.03 25-Dec-2016

 ----------------------------------------------------------------------
 # B3LYP/6-311++G(d,p) empiricaldispersion=gd3bj scf=xqc pop=npa geom=c
 heck
 ----------------------------------------------------------------------

 -----------------------------------
 CID_64974039_JID_3828_Energie_anion
 -----------------------------------
 Structure from the checkpoint file:  "JID_3828.chk"
 Charge = -1 Multiplicity = 2

                         Standard orientation:
 ---------------------------------------------------------------------
 Center     Atomic      Atomic             Coordinates (Angstroms)
 Number     Number       Type             X           Y           Z
 ---------------------------------------------------------------------
      1          6           0        0.488715    2.508870    1.127913
      2          6           0        0.068370    2.676566   -0.323717
      3          8           0       -1.110483    1.921990   -0.662706
      4          7           0       -0.777513    0.582269   -0.959610
      5         16           0       -1.660448   -0.559501    0.035088
      6          8           0       -2.641623    0.128789    0.870446
      7          8           0       -2.033702   -1.608980   -0.924476
      8          6           0       -0.374467   -1.219564    1.126841
      9          6           0        0.597720   -2.192045    0.458890
     10          6           0        1.464026   -1.623884   -0.673470
     11          6           0        2.317174   -0.425453   -0.324425
     12          8           0        2.685726    0.427701   -1.098543
     13          8           0        2.679891   -0.411422    0.989155
     14          1           0       -0.367315    2.655169    1.793766
     15          1           0        1.258422    3.247736    1.380635
     16          1           0        0.912264    1.518014    1.310076
     17          1           0       -0.241165    3.708570   -0.517037
     18          1           0        0.878036    2.409850   -1.009767
     19          1           0       -1.154646    0.407723   -1.895774
     20          1           0        0.122581   -0.360404    1.578803
     21          1           0       -0.948276   -1.724955    1.909852
     22          1           0        1.245705   -2.579697    1.251832
     23          1           0        0.027357   -3.036377    0.060795
     24          1           0        2.153689   -2.410303   -1.008843
     25          1           0        0.864705   -1.343294   -1.540162
     26          1           0        3.250711    0.372536    1.098487
 ---------------------------------------------------------------------

 SCF Done:  E(UB3LYP) =  -1065.69233293     A.U. after   32 cycles

 The electronic state is 2-A.
 Alpha  occ. eigenvalues --  -88.96898 -19.08301 -19.06562 -19.03506 -19.03450
 Alpha  occ. eigenvalues --  -19.01330 -14.30138 -10.20453 -10.13128 -10.12064
 Alpha  occ. eigenvalues --  -10.09216 -10.08881 -10.06984  -8.03265  -5.99546
 Alpha  occ. eigenvalues --   -5.99500  -5.99294  -1.03883  -1.00674  -0.99607
 Alpha  occ. eigenvalues --   -0.92633  -0.91838  -0.77462  -0.72884  -0.66602
 Alpha  occ. eigenvalues --   -0.65042  -0.57507  -0.53886  -0.51825  -0.49535
 Alpha  occ. eigenvalues --   -0.44303  -0.43992  -0.41522  -0.39687  -0.39129
 Alpha  occ. eigenvalues --   -0.38370  -0.37705  -0.36606  -0.35688  -0.34517
 Alpha  occ. eigenvalues --   -0.33271  -0.32027  -0.30945  -0.29563  -0.28212
 Alpha  occ. eigenvalues --   -0.27803  -0.27673  -0.27359  -0.25432  -0.24057
 Alpha  occ. eigenvalues --   -0.22722  -0.22595  -0.22332  -0.19787  -0.19046
 Alpha  occ. eigenvalues --   -0.18189   0.04230
 Alpha virt. eigenvalues --    0.06643   0.07519   0.07861   0.08638   0.09739
 Alpha virt. eigenvalues --    0.09932   0.10295   0.11172   0.11310   0.11805
 Alpha virt. eigenvalues --    0.13144   0.13270   0.13739   0.13842   0.14363

  Beta  occ. eigenvalues --  -88.96896 -19.08297 -19.06494 -19.03502 -19.03440
  Beta  occ. eigenvalues --  -19.01300 -14.30121 -10.20419 -10.13121 -10.12039
  Beta  occ. eigenvalues --  -10.09181 -10.08851 -10.06949  -8.03262  -5.99543
  Beta  occ. eigenvalues --   -5.99498  -5.99292  -1.03867  -1.00571  -0.99594
  Beta  occ. eigenvalues --   -0.92617  -0.91751  -0.77434  -0.72831  -0.66541
  Beta  occ. eigenvalues --   -0.64987  -0.57428  -0.53816  -0.51752  -0.49424
  Beta  occ. eigenvalues --   -0.44284  -0.43972  -0.41485  -0.39633  -0.39059
  Beta  occ. eigenvalues --   -0.38321  -0.37657  -0.36575  -0.35636  -0.34485
  Beta  occ. eigenvalues --   -0.33187  -0.31988  -0.30884  -0.29523  -0.28180
  Beta  occ. eigenvalues --   -0.27754  -0.27599  -0.27308  -0.25412  -0.24045
  Beta  occ. eigenvalues --   -0.22707  -0.22550  -0.22258  -0.19768  -0.19024
  Beta  occ. eigenvalues --   -0.18106
  Beta virt. eigenvalues --    0.06800   0.07509   0.08222   0.08670   0.09138
  Beta virt. eigenvalues --    0.10005   0.10447   0.10825   0.11528   0.11703
  Beta virt. eigenvalues --    0.12250   0.13236   0.13399   0.13880   0.14147

 Mulliken charges and spin densities:
               1          2
     1  C    0.253426  -0.653314
     2  C   -0.398354   0.127088
     3  O    0.044028   0.002396
     4  N   -0.498428   0.032735
     5  S    1.273397  -0.950385
     6  O   -0.166834   0.023784
     7  O   -0.276596   0.009244
     8  C   -1.135252   0.685575
     9  C    1.448779  -2.129059
    10  C   -0.330771   0.336264
    11  C    0.710508  -0.896067
    12  O   -0.283625   0.071850
    13  O   -0.140541   0.060563
    14  H    0.023447   0.142920
    15  H   -0.342309   0.489794
    16  H    0.147187  -0.068895
    17  H   -0.063142   0.238054
    18  H    0.210635  -0.033445
    19  H    0.258277   0.063006
    20  H    0.108024   0.146576
    21  H   -0.232378   0.498971
    22  H   -0.414557   0.631363
    23  H   -0.084982   0.298812
    24  H   -0.605116   0.842330
    25  H    0.102060   0.108976
    26  H   -0.606882   0.920866
 Sum of Mulliken charges =  -1.00000   1.00000

 Dipole moment (field-independent basis, Debye):
    X=             -5.1057    Y=              2.2087    Z=             -3.0875  Tot=              6.3624
 Quadrupole moment (field-independent basis, Debye-Ang):
   XX=           -152.0620   YY=           -132.3556   ZZ=           -115.5446
   XY=             -0.0186   XZ=             -4.8487   YZ=             -3.4307

 Summary of Natural Population Analysis:

                                       Natural Population
                Natural  -----------------------------------------------
    Atom  No    Charge         Core      Valence    Rydberg      Total
 -----------------------------------------------------------------------
      C    1   -0.30351      0.99966     2.29768    0.00618     3.30351
      C    2   -0.01400      0.99960     2.00147    0.01294     3.01400
      O    3   -0.21665      0.99990     3.20624    0.01052     4.21665
      N    4   -0.27137      0.99978     2.75643    0.01516     3.77137
      S    5    1.06431      4.99933     1.83806    0.09830     6.93569
      O    6   -0.44885      0.99990     3.44334    0.00560     4.44885
      O    7   -0.46511      0.99991     3.45954    0.00566     4.46511
      C    8   -0.28513      0.99956     2.27382    0.01176     3.28513
      C    9   -0.20140      0.99961     2.19070    0.01109     3.20140
      C   10   -0.24089      0.99957     2.23114    0.01019     3.24089
      C   11    0.41321      0.99971     1.56155    0.02554     2.58679
      O   12   -0.30732      0.99987     3.30129    0.00617     4.30732
      O   13   -0.35264      0.99988     3.34467    0.00808     4.35264
      H   14    0.10211      0.00000     0.39688    0.00100     0.39789
      H   15    0.10571      0.00000     0.39274    0.00154     0.39429
      H   16    0.09900      0.00000     0.39885    0.00215     0.40100
      H   17    0.08759      0.00000     0.41124    0.00117     0.41241
      H   18    0.09667      0.00000     0.40209    0.00124     0.40333
      H   19    0.18540      0.00000     0.31237    0.00223     0.31460
      H   20    0.12086      0.00000     0.37716    0.00197     0.37914
      H   21    0.12108      0.00000     0.37762    0.00130     0.37892
      H   22    0.11579      0.00000     0.38138    0.00284     0.38421
      H   23    0.11054      0.00000     0.38801    0.00146     0.38946
      H   24    0.12235      0.00000     0.37512    0.00253     0.37765
      H   25    0.11286      0.00000     0.38571    0.00144     0.38714
      H   26    0.24939      0.00000     0.22833    0.02228     0.25061
 =======================================================================
   * Total *   -0.00000     16.99627    38.73341    0.27033    56.00000

 Normal termination of Gaussian 16 at Mon Dec 14 17:03:02 2020.
