 Gaussian 16, Revision A.03,

 -----------------------------------------------------------
 # opt freq B3LYP/6-31G(d) empiricaldispersion=gd3bj scf=xqc
 -----------------------------------------------------------

 ------------------------------
 CID_47115614_JID_9757_neutraal
 ------------------------------
 Symbolic Z-matrix:
 Charge =  0 Multiplicity = 1

 SCF Done:  E(RB3LYP) =  -1239.57397933     A.U. after   15 cycles
 SCF Done:  E(RB3LYP) =  -1239.58187509     A.U. after   12 cycles
 SCF Done:  E(RB3LYP) =  -1239.58252925     A.U. after   12 cycles
 SCF Done:  E(RB3LYP) =  -1239.58265745     A.U. after   12 cycles
 SCF Done:  E(RB3LYP) =  -1239.58316040     A.U. after   12 cycles
 SCF Done:  E(RB3LYP) =  -1239.58389749     A.U. after   15 cycles
 SCF Done:  E(RB3LYP) =  -1239.58169157     A.U. after   16 cycles
 SCF Done:  E(RB3LYP) =  -1239.58503741     A.U. after   14 cycles
 SCF Done:  E(RB3LYP) =  -1239.58578628     A.U. after   13 cycles
 SCF Done:  E(RB3LYP) =  -1239.58621529     A.U. after   12 cycles
 SCF Done:  E(RB3LYP) =  -1239.58728742     A.U. after    9 cycles
 SCF Done:  E(RB3LYP) =  -1239.58728771     A.U. after    8 cycles
 SCF Done:  E(RB3LYP) =  -1239.58728777     A.U. after    8 cycles
 SCF Done:  E(RB3LYP) =  -1239.58728780     A.U. after    8 cycles
 Optimization completed.
    -- Stationary point found.
 Normal termination of Gaussian 16 at Sat Dec 12 10:48:47 2020.

 --------------------------------------------------------------------
 #N Geom=AllCheck Guess=TCheck SCRF=Check GenChk RB3LYP/6-31G(d) Freq
 --------------------------------------------------------------------

 Structure from the checkpoint file:  "JID_9757.chk"
 ------------------------------
 CID_47115614_JID_9757_neutraal
 ------------------------------
 Charge =  0 Multiplicity = 1

 SCF Done:  E(RB3LYP) =  -1239.58728780     A.U. after    1 cycles

  Exact polarizability: 192.240 -14.526 155.295   3.576   7.732 150.687
 Approx polarizability: 282.154 -24.856 213.430   5.637  21.511 261.726

                      1                      2                      3
                      A                      A                      A
 Frequencies --     15.4168                16.5068                30.2532
 Red. masses --      5.8902                 5.9895                 4.7888
 Frc consts  --      0.0008                 0.0010                 0.0026
 IR Inten    --      1.4195                 1.5427                 1.8574

                      4                      5                      6
                      A                      A                      A
 Frequencies --     52.8323                64.4515               108.1587
 Red. masses --      6.2733                 2.7052                 3.3917
 Frc consts  --      0.0103                 0.0066                 0.0234
 IR Inten    --      1.2354                 0.4116                 5.5678

                      7                      8                      9
                      A                      A                      A
 Frequencies --    112.5563               119.3552               127.1192
 Red. masses --      3.0078                 2.9015                 4.0279
 Frc consts  --      0.0225                 0.0244                 0.0383
 IR Inten    --      0.3815                 3.7301                 0.7410

                     10                     11                     12
                      A                      A                      A
 Frequencies --    146.5046               165.0331               216.4699
 Red. masses --      2.0538                 2.2006                 3.2554
 Frc consts  --      0.0260                 0.0353                 0.0899
 IR Inten    --     13.2714                11.3969                 3.9536

                     13                     14                     15
                      A                      A                      A
 Frequencies --    230.2641               262.3876               275.8650
 Red. masses --      3.3792                 3.6524                 1.4377
 Frc consts  --      0.1056                 0.1482                 0.0645
 IR Inten    --      1.9618                 2.7927                 1.7177

                     16                     17                     18
                      A                      A                      A
 Frequencies --    294.1957               300.3218               304.6135
 Red. masses --      2.6773                 3.3362                 4.2532
 Frc consts  --      0.1365                 0.1773                 0.2325
 IR Inten    --      2.8736                 3.8851                 5.4797

                     19                     20                     21
                      A                      A                      A
 Frequencies --    327.6714               345.0925               392.3391
 Red. masses --      4.5655                 4.0064                 4.2560
 Frc consts  --      0.2888                 0.2811                 0.3860
 IR Inten    --      4.6798                 0.4195                 0.1510

                     22                     23                     24
                      A                      A                      A
 Frequencies --    435.3503               462.7033               484.4894
 Red. masses --      4.5467                 5.2319                 3.8949
 Frc consts  --      0.5077                 0.6600                 0.5387
 IR Inten    --     10.0673                 1.7674                 8.1446

                     25                     26                     27
                      A                      A                      A
 Frequencies --    512.1807               553.0466               562.2728
 Red. masses --      2.4902                 3.5277                 1.9881
 Frc consts  --      0.3849                 0.6357                 0.3703
 IR Inten    --     31.7275               127.0373                25.0601

                     28                     29                     30
                      A                      A                      A
 Frequencies --    594.0692               619.5178               626.9674
 Red. masses --      4.6138                 3.7792                 4.1861
 Frc consts  --      0.9594                 0.8546                 0.9695
 IR Inten    --      1.8872                 6.7732                 5.7559

                     31                     32                     33
                      A                      A                      A
 Frequencies --    668.4435               689.8091               711.6880
 Red. masses --      3.2830                 3.6997                 2.8727
 Frc consts  --      0.8643                 1.0372                 0.8573
 IR Inten    --      7.1049               150.1526                13.8059

                     34                     35                     36
                      A                      A                      A
 Frequencies --    713.5587               719.8039               768.5783
 Red. masses --      2.6237                 3.2900                 1.6648
 Frc consts  --      0.7871                 1.0043                 0.5794
 IR Inten    --     95.3652                 2.5597                 1.8963

                     37                     38                     39
                      A                      A                      A
 Frequencies --    805.8182               818.9017               835.6384
 Red. masses --      1.3083                 1.4425                 3.0688
 Frc consts  --      0.5005                 0.5699                 1.2626
 IR Inten    --      0.9221                15.8611                10.7105

                     40                     41                     42
                      A                      A                      A
 Frequencies --    887.3939               895.6634               912.3519
 Red. masses --      2.2444                 2.2513                 1.4125
 Frc consts  --      1.0413                 1.0641                 0.6927
 IR Inten    --     16.4228               115.1159                 6.2345

                     43                     44                     45
                      A                      A                      A
 Frequencies --    943.7048               948.0034               949.8945
 Red. masses --      2.0749                 1.4496                 2.0756
 Frc consts  --      1.0887                 0.7675                 1.1034
 IR Inten    --      1.1029                 1.1120                 3.9815

                     46                     47                     48
                      A                      A                      A
 Frequencies --    978.7243               982.7128               997.3887
 Red. masses --      1.4636                 1.8706                 1.3075
 Frc consts  --      0.8260                 1.0644                 0.7664
 IR Inten    --      1.3755                 6.6605                 0.7188

                     49                     50                     51
                      A                      A                      A
 Frequencies --   1020.4303              1031.2723              1050.2683
 Red. masses --      5.9676                 2.1805                 2.0820
 Frc consts  --      3.6612                 1.3663                 1.3531
 IR Inten    --      1.2135                 3.4039                 0.9933

                     52                     53                     54
                      A                      A                      A
 Frequencies --   1077.9696              1101.3133              1108.3905
 Red. masses --      2.1860                 3.0129                 2.2329
 Frc consts  --      1.4966                 2.1531                 1.6163
 IR Inten    --      1.1242                57.3562                 7.7449

                     55                     56                     57
                      A                      A                      A
 Frequencies --   1110.6272              1125.1785              1141.1240
 Red. masses --      1.5070                 1.6643                 2.3111
 Frc consts  --      1.0952                 1.2414                 1.7731
 IR Inten    --      0.9225                18.3360                 2.1767

                     58                     59                     60
                      A                      A                      A
 Frequencies --   1150.9610              1190.7885              1203.0453
 Red. masses --      2.5556                 2.7183                 1.1723
 Frc consts  --      1.9947                 2.2710                 0.9997
 IR Inten    --    201.2874                37.0062                 0.3497

                     61                     62                     63
                      A                      A                      A
 Frequencies --   1220.8445              1243.4026              1258.4024
 Red. masses --      1.3050                 1.3366                 2.5535
 Frc consts  --      1.1460                 1.2176                 2.3824
 IR Inten    --      2.1568                 0.8138                15.1794

                     64                     65                     66
                      A                      A                      A
 Frequencies --   1267.8058              1269.3973              1281.7653
 Red. masses --      1.2273                 1.3014                 1.5334
 Frc consts  --      1.1622                 1.2356                 1.4844
 IR Inten    --     12.7869                 0.8441                40.6973

                     67                     68                     69
                      A                      A                      A
 Frequencies --   1297.5659              1313.6064              1322.1661
 Red. masses --      1.4104                 1.8156                 1.7402
 Frc consts  --      1.3991                 1.8459                 1.7923
 IR Inten    --      0.7692               102.0187                12.3310

                     70                     71                     72
                      A                      A                      A
 Frequencies --   1342.8424              1351.8778              1367.2742
 Red. masses --      8.6878                 1.2770                 2.4030
 Frc consts  --      9.2301                 1.3751                 2.6468
 IR Inten    --    154.9938                 1.7184                 8.1826

                     73                     74                     75
                      A                      A                      A
 Frequencies --   1399.5066              1420.9970              1434.5904
 Red. masses --      1.7747                 2.2375                 1.2638
 Frc consts  --      2.0480                 2.6619                 1.5325
 IR Inten    --     51.9476                81.0298                20.1442

                     76                     77                     78
                      A                      A                      A
 Frequencies --   1472.4458              1482.1561              1507.4519
 Red. masses --      1.6505                 2.3933                 1.0886
 Frc consts  --      2.1084                 3.0976                 1.4576
 IR Inten    --     49.8481                11.9857                 1.2684

                     79                     80                     81
                      A                      A                      A
 Frequencies --   1516.9993              1523.3918              1527.7240
 Red. masses --      1.0843                 1.1424                 1.0818
 Frc consts  --      1.4702                 1.5620                 1.4876
 IR Inten    --      2.7508                 5.4774                 3.6372

                     82                     83                     84
                      A                      A                      A
 Frequencies --   1531.1687              1541.5411              1620.5502
 Red. masses --      1.9020                 1.1344                 1.1008
 Frc consts  --      2.6272                 1.5882                 1.7032
 IR Inten    --      9.7670                 1.1343                33.6082

                     85                     86                     87
                      A                      A                      A
 Frequencies --   1641.3717              1662.6290              1781.4823
 Red. masses --      5.7257                 5.8246                 8.5496
 Frc consts  --      9.0885                 9.4865                15.9867
 IR Inten    --      0.9064                 1.8501               350.7086

                     88                     89                     90
                      A                      A                      A
 Frequencies --   3041.9190              3055.0269              3068.9541
 Red. masses --      1.0835                 1.0363                 1.0581
 Frc consts  --      5.9071                 5.6986                 5.8716
 IR Inten    --     13.8426                22.6130                34.5711

                     91                     92                     93
                      A                      A                      A
 Frequencies --   3073.7151              3091.0675              3095.3239
 Red. masses --      1.0604                 1.0623                 1.0832
 Frc consts  --      5.9028                 5.9803                 6.1144
 IR Inten    --     38.1460                29.5334                 7.6562

                     94                     95                     96
                      A                      A                      A
 Frequencies --   3116.3411              3124.4916              3130.0911
 Red. masses --      1.1067                 1.1036                 1.1086
 Frc consts  --      6.3327                 6.3477                 6.3996
 IR Inten    --      6.9803                27.0841                41.5291

                     97                     98                     99
                      A                      A                      A
 Frequencies --   3146.5467              3149.4254              3199.5591
 Red. masses --      1.1015                 1.1064                 1.0871
 Frc consts  --      6.4256                 6.4656                 6.5571
 IR Inten    --     14.3712                32.7307                 5.3771

                    100                    101                    102
                      A                      A                      A
 Frequencies --   3209.1041              3214.2616              3236.7539
 Red. masses --      1.0904                 1.0935                 1.0932
 Frc consts  --      6.6159                 6.6561                 6.7478
 IR Inten    --      1.2580                 8.8133                 2.1862

                    103                    104                    105
                      A                      A                      A
 Frequencies --   3486.6510              3589.4428              3597.3440
 Red. masses --      1.0469                 1.0762                 1.0976
 Frc consts  --      7.4986                 8.1699                 8.3685
 IR Inten    --     33.5647                19.7986                31.5172

 - Thermochemistry -
 -------------------
 Temperature   298.150 Kelvin.  Pressure   1.00000 Atm.
 Atom     1 has atomic number  6 and mass  12.00000

 Molecular mass:   282.10381 amu.
 Principal axes and moments of inertia in atomic units:
                           1         2         3
     Eigenvalues --  3422.904008304.016999732.59113
           X            0.99996   0.00192   0.00847
           Y           -0.00178   0.99987  -0.01628
           Z           -0.00850   0.01626   0.99983
 This molecule is an asymmetric top.
 Rotational symmetry number  1.
 Warning -- assumption of classical behavior for rotation
           may cause significant error
 Rotational temperatures (Kelvin)      0.02530     0.01043     0.00890
 Rotational constants (GHZ):           0.52725     0.21733     0.18543
 Zero-point vibrational energy     798653.4 (Joules/Mol)
                                  190.88275 (Kcal/Mol)
 Warning -- explicit consideration of  29 degrees of freedom as
           vibrations may cause significant error
 Vibrational temperatures:     22.18    23.75    43.53    76.01    92.73
          (Kelvin)            155.62   161.94   171.73   182.90   210.79
                              237.45   311.45   331.30   377.52   396.91
                              423.28   432.10   438.27   471.45   496.51
                              564.49   626.37   665.73   697.07   736.91
                              795.71   808.99   854.73   891.35   902.07
                              961.74   992.48  1023.96  1026.65  1035.64
                             1105.81  1159.39  1178.22  1202.30  1276.76
                             1288.66  1312.67  1357.78  1363.97  1366.69
                             1408.17  1413.90  1435.02  1468.17  1483.77
                             1511.10  1550.96  1584.54  1594.73  1597.94
                             1618.88  1641.82  1655.98  1713.28  1730.91
                             1756.52  1788.98  1810.56  1824.09  1826.38
                             1844.17  1866.91  1889.99  1902.30  1932.05
                             1945.05  1967.20  2013.58  2044.50  2064.06
                             2118.52  2132.49  2168.89  2182.62  2191.82
                             2198.05  2203.01  2217.93  2331.61  2361.57
                             2392.15  2563.16  4376.64  4395.50  4415.54
                             4422.39  4447.36  4453.48  4483.72  4495.45
                             4503.50  4527.18  4531.32  4603.45  4617.19
                             4624.61  4656.97  5016.51  5164.41  5175.78

 Zero-point correction=                           0.304191 (Hartree/Particle)
 Thermal correction to Energy=                    0.323329
 Thermal correction to Enthalpy=                  0.324273
 Thermal correction to Gibbs Free Energy=         0.253802
 Sum of electronic and zero-point Energies=          -1239.283097
 Sum of electronic and thermal Energies=             -1239.263959
 Sum of electronic and thermal Enthalpies=           -1239.263015
 Sum of electronic and thermal Free Energies=        -1239.333486

                     E (Thermal)             CV                S
                      KCal/Mol        Cal/Mol-Kelvin    Cal/Mol-Kelvin
 Total                  202.892             71.543            148.319
 Electronic               0.000              0.000              0.000
 Translational            0.889              2.981             42.809
 Rotational               0.889              2.981             33.980
 Vibrational            201.114             65.581             71.529
 Vibration     1          0.593              1.986              7.151
 Vibration     2          0.593              1.986              7.015
 Vibration     3          0.594              1.984              5.813
 Vibration     4          0.596              1.976              4.708
 Vibration     5          0.597              1.971              4.316
 Vibration     6          0.606              1.943              3.302
 Vibration     7          0.607              1.939              3.224
 Vibration     8          0.609              1.933              3.111
 Vibration     9          0.611              1.926              2.989
 Vibration    10          0.617              1.906              2.717
 Vibration    11          0.623              1.885              2.491
 Vibration    12          0.645              1.816              1.988
 Vibration    13          0.652              1.795              1.877
 Vibration    14          0.670              1.742              1.646
 Vibration    15          0.678              1.718              1.559
 Vibration    16          0.689              1.685              1.450
 Vibration    17          0.693              1.673              1.415
 Vibration    18          0.696              1.665              1.391
 Vibration    19          0.711              1.620              1.272
 Vibration    20          0.723              1.585              1.189
 Vibration    21          0.760              1.487              0.991
 Vibration    22          0.796              1.393              0.841
 Vibration    23          0.820              1.333              0.758
 Vibration    24          0.841              1.284              0.698
 Vibration    25          0.867              1.223              0.628
 Vibration    26          0.908              1.133              0.538
 Vibration    27          0.918              1.113              0.519
 Vibration    28          0.952              1.044              0.460
 Vibration    29          0.979              0.991              0.417

                           ! Non-Optimized Parameters !
 Normal termination of Gaussian 16 at Sat Dec 12 11:09:34 2020.

 ----------------------------------------------------------------------
 # B3LYP/6-311++G(d,p) empiricaldispersion=gd3bj scf=xqc pop=npa geom=c
 heck
 ----------------------------------------------------------------------

 --------------------------------------
 CID_47115614_JID_9757_Energie_neutraal
 --------------------------------------
 Structure from the checkpoint file:  "JID_9757.chk"
 Charge =  0 Multiplicity = 1

 SCF Done:  E(RB3LYP) =  -1239.85728313     A.U. after   16 cycles
 Normal termination of Gaussian 16 at Sat Dec 12 11:19:34 2020.

 ----------------------------------------------------------------------
 # B3LYP/6-311++G(d,p) empiricaldispersion=gd3bj scf=xqc pop=npa geom=c
 heck
 ----------------------------------------------------------------------

 ------------------------------------
 CID_47115614_JID_9757_Energie_kation
 ------------------------------------
 Structure from the checkpoint file:  "JID_9757.chk"
 Charge =  1 Multiplicity = 2

 SCF Done:  E(UB3LYP) =  -1239.53397922     A.U. after   33 cycles
 SCF Done:  E(UB3LYP) =  -1239.53397922     a.u. after    1 cycles
 Normal termination of Gaussian 16 at Sat Dec 12 11:48:00 2020.
 Gaussian 16:  ES64L-G16RevA.03 25-Dec-2016

 ----------------------------------------------------------------------
 # B3LYP/6-311++G(d,p) empiricaldispersion=gd3bj scf=xqc pop=npa geom=c
 heck
 ----------------------------------------------------------------------

 -----------------------------------
 CID_47115614_JID_9757_Energie_anion
 -----------------------------------
 Structure from the checkpoint file:  "JID_9757.chk"
 Charge = -1 Multiplicity = 2

                         Standard orientation:
 ---------------------------------------------------------------------
 Center     Atomic      Atomic             Coordinates (Angstroms)
 Number     Number       Type             X           Y           Z
 ---------------------------------------------------------------------
      1          6           0       -1.527394    2.836627   -1.681193
      2          6           0       -1.521027    1.452838   -1.018732
      3          6           0       -0.320369    1.310710   -0.094981
      4          6           0        0.811731    0.628195   -0.533234
      5          6           0        1.910917    0.502007    0.315707
      6          6           0        1.923365    1.063349    1.588890
      7          6           0        0.790705    1.758880    2.018987
      8          6           0       -0.321096    1.874338    1.188057
      9         16           0        3.325877   -0.429324   -0.251683
     10          8           0        3.513572   -0.172721   -1.682039
     11          8           0        4.405416   -0.234300    0.721091
     12          7           0        2.755243   -2.028302   -0.156938
     13          7           0       -2.790615    1.268105   -0.321746
     14          6           0       -3.286839    0.111152    0.237939
     15          8           0       -4.448564    0.062089    0.623891
     16          6           0       -2.338220   -1.065876    0.354727
     17          6           0       -2.939026   -2.385445    0.889361
     18          6           0       -2.110479   -3.156705   -0.170254
     19          6           0       -1.915604   -1.827141   -0.944016
     20          1           0       -1.618998    3.623794   -0.924512
     21          1           0       -2.362007    2.924351   -2.385758
     22          1           0       -0.594205    2.998063   -2.227183
     23          1           0       -1.421448    0.700188   -1.811186
     24          1           0        0.842322    0.185961   -1.524064
     25          1           0        2.799720    0.955275    2.217595
     26          1           0        0.776067    2.204270    3.009115
     27          1           0       -1.213064    2.385893    1.536841
     28          1           0        3.085431   -2.529217   -0.980515
     29          1           0        3.100372   -2.471069    0.693143
     30          1           0       -3.497870    1.983027   -0.441958
     31          1           0       -1.448640   -0.769669    0.918419
     32          1           0       -2.766557   -2.619433    1.943572
     33          1           0       -4.013204   -2.417651    0.692891
     34          1           0       -2.605364   -3.975914   -0.699930
     35          1           0       -1.161596   -3.523295    0.234436
     36          1           0       -2.653185   -1.701813   -1.743788
     37          1           0       -0.917565   -1.620320   -1.340499
 ---------------------------------------------------------------------

 SCF Done:  E(UB3LYP) =  -1239.86323874     A.U. after   33 cycles
 SCF Done:  E(UB3LYP) =  -1239.86323874     a.u. after    1 cycles

 The electronic state is 2-A.
 Alpha  occ. eigenvalues --  -88.93525 -18.99476 -18.99385 -18.99266 -14.23667
 Alpha  occ. eigenvalues --  -14.22085 -10.17441 -10.12262 -10.08337 -10.08062
 Alpha  occ. eigenvalues --  -10.07988 -10.07725 -10.07249 -10.06136 -10.05988
 Alpha  occ. eigenvalues --  -10.05424 -10.05177 -10.05026 -10.03592  -7.99712
 Alpha  occ. eigenvalues --   -5.96026  -5.95984  -5.95747  -0.99630  -0.94265
 Alpha  occ. eigenvalues --   -0.88901  -0.82946  -0.78968  -0.75508  -0.74159
 Alpha  occ. eigenvalues --   -0.68107  -0.64084  -0.62594  -0.59533  -0.56980
 Alpha  occ. eigenvalues --   -0.54702  -0.54520  -0.50097  -0.48627  -0.46464
 Alpha  occ. eigenvalues --   -0.44800  -0.42295  -0.41027  -0.40409  -0.39604
 Alpha  occ. eigenvalues --   -0.38787  -0.38343  -0.36365  -0.35609  -0.34521
 Alpha  occ. eigenvalues --   -0.33706  -0.32169  -0.31789  -0.31509  -0.30820
 Alpha  occ. eigenvalues --   -0.29900  -0.29697  -0.28958  -0.27301  -0.26130
 Alpha  occ. eigenvalues --   -0.25219  -0.24924  -0.23852  -0.23695  -0.23116
 Alpha  occ. eigenvalues --   -0.22100  -0.21778  -0.20825  -0.19697  -0.18780
 Alpha  occ. eigenvalues --   -0.18100  -0.16342  -0.16006  -0.14052  -0.13598
 Alpha  occ. eigenvalues --    0.04203
 Alpha virt. eigenvalues --    0.06528   0.06673   0.07734   0.08423   0.09139
 Alpha virt. eigenvalues --    0.09523   0.09714   0.10183   0.10254   0.10759
 Alpha virt. eigenvalues --    0.11080   0.11772   0.12220   0.12625   0.12968

  Beta  occ. eigenvalues --  -88.93503 -18.99436 -18.99338 -18.99266 -14.23664
  Beta  occ. eigenvalues --  -14.21977 -10.17441 -10.12261 -10.08337 -10.08060
  Beta  occ. eigenvalues --  -10.07971 -10.07718 -10.07247 -10.06166 -10.05694
  Beta  occ. eigenvalues --  -10.05321 -10.05190 -10.04894 -10.03198  -7.99689
  Beta  occ. eigenvalues --   -5.95988  -5.95935  -5.95740  -0.99508  -0.94264
  Beta  occ. eigenvalues --   -0.88818  -0.82934  -0.78765  -0.75502  -0.73780
  Beta  occ. eigenvalues --   -0.67974  -0.63513  -0.62357  -0.59510  -0.56970
  Beta  occ. eigenvalues --   -0.54430  -0.54212  -0.50068  -0.48450  -0.46238
  Beta  occ. eigenvalues --   -0.44718  -0.42186  -0.40892  -0.40321  -0.39545
  Beta  occ. eigenvalues --   -0.38620  -0.38250  -0.36218  -0.35416  -0.34480
  Beta  occ. eigenvalues --   -0.33567  -0.32131  -0.31670  -0.31415  -0.30802
  Beta  occ. eigenvalues --   -0.29863  -0.29650  -0.28906  -0.27257  -0.26102
  Beta  occ. eigenvalues --   -0.24752  -0.24375  -0.23694  -0.23544  -0.23007
  Beta  occ. eigenvalues --   -0.22044  -0.21764  -0.20638  -0.19585  -0.18574
  Beta  occ. eigenvalues --   -0.17740  -0.16320  -0.15940  -0.12965  -0.12144
  Beta virt. eigenvalues --    0.06448   0.07030   0.07886   0.08379   0.08992
  Beta virt. eigenvalues --    0.09517   0.09542   0.09707   0.10250   0.10386
  Beta virt. eigenvalues --    0.10785   0.11226   0.11877   0.12217   0.12566

 Mulliken charges and spin densities:
               1          2
     1  C   -0.478852  -0.207616
     2  C   -0.353994   0.326479
     3  C    0.752931  -0.030756
     4  C   -0.358063   0.060958
     5  C   -0.469020   0.102572
     6  C    0.089986   0.078521
     7  C   -0.531855   0.109551
     8  C   -0.539577   0.298689
     9  S    0.742000  -0.538619
    10  O   -0.281545   0.013224
    11  O   -0.203338   0.015310
    12  N   -0.232963  -0.079075
    13  N   -0.247217   0.006597
    14  C   -0.268416   0.019947
    15  O   -0.329098  -0.003431
    16  C    0.277235   0.035386
    17  C   -0.507882   0.059172
    18  C   -0.101135  -0.287796
    19  C   -0.282771   0.096088
    20  H    0.161615   0.007309
    21  H    0.009594   0.120985
    22  H    0.111168   0.058761
    23  H    0.161517   0.050860
    24  H    0.136959   0.053821
    25  H    0.184663   0.010021
    26  H    0.109396   0.031725
    27  H    0.126071  -0.024704
    28  H   -0.029843   0.314591
    29  H    0.063124   0.208101
    30  H    0.298335   0.016538
    31  H    0.288053  -0.059007
    32  H    0.095784   0.049758
    33  H    0.177334  -0.012751
    34  H    0.079604   0.061063
    35  H    0.069744   0.066112
    36  H    0.127419   0.035228
    37  H    0.153036  -0.063611
 Sum of Mulliken charges =  -1.00000   1.00000

 Dipole moment (field-independent basis, Debye):
    X=             -4.5553    Y=              0.3550    Z=             -0.6254  Tot=              4.6117
 Quadrupole moment (field-independent basis, Debye-Ang):
   XX=           -204.7385   YY=           -144.8728   ZZ=           -138.6401
   XY=             -0.7481   XZ=             10.1639   YZ=             -1.4625

 Summary of Natural Population Analysis:

                                       Natural Population
                Natural  -----------------------------------------------
    Atom  No    Charge         Core      Valence    Rydberg      Total
 -----------------------------------------------------------------------
      C    1   -0.28052      0.99965     2.27623    0.00464     3.28052
      C    2   -0.01709      0.99956     2.00526    0.01227     3.01709
      C    3   -0.03664      0.99948     2.02550    0.01166     3.03664
      C    4   -0.07752      0.99945     2.06904    0.00903     3.07752
      C    5   -0.08860      0.99936     2.07454    0.01471     3.08860
      C    6   -0.07398      0.99951     2.06475    0.00972     3.07398
      C    7   -0.10746      0.99957     2.09928    0.00860     3.10746
      C    8   -0.02997      0.99951     2.02234    0.00812     3.02997
      S    9    1.10309      4.99925     1.79783    0.09983     6.89691
      O   10   -0.47138      0.99991     3.46567    0.00581     4.47138
      O   11   -0.47152      0.99991     3.46612    0.00549     4.47152
      N   12   -0.51301      0.99979     3.00184    0.01139     4.01301
      N   13   -0.31978      0.99966     2.81019    0.00994     3.81978
      C   14    0.35094      0.99964     1.62689    0.02253     2.64906
      O   15   -0.32909      0.99988     3.32365    0.00555     4.32909
      C   16   -0.16021      0.99956     2.15029    0.01036     3.16021
      C   17   -0.18336      0.99964     2.17559    0.00814     3.18336
      C   18   -0.19076      0.99965     2.18403    0.00708     3.19076
      C   19   -0.18390      0.99963     2.17761    0.00665     3.18390
      H   20    0.10014      0.00000     0.39886    0.00099     0.39986
      H   21    0.09365      0.00000     0.40510    0.00125     0.40635
      H   22    0.10892      0.00000     0.39034    0.00074     0.39108
      H   23    0.09423      0.00000     0.40370    0.00207     0.40577
      H   24    0.10294      0.00000     0.39499    0.00207     0.39706
      H   25    0.10803      0.00000     0.39095    0.00102     0.39197
      H   26    0.09303      0.00000     0.40563    0.00133     0.40697
      H   27    0.09249      0.00000     0.40615    0.00136     0.40751
      H   28    0.19325      0.00000     0.30296    0.00379     0.30675
      H   29    0.18996      0.00000     0.30784    0.00220     0.31004
      H   30    0.18934      0.00000     0.30801    0.00265     0.31066
      H   31    0.12426      0.00000     0.37364    0.00210     0.37574
      H   32    0.09576      0.00000     0.40324    0.00100     0.40424
      H   33    0.10434      0.00000     0.39437    0.00129     0.39566
      H   34    0.09204      0.00000     0.40678    0.00119     0.40796
      H   35    0.09940      0.00000     0.39907    0.00152     0.40060
      H   36    0.09321      0.00000     0.40562    0.00117     0.40679
      H   37    0.10575      0.00000     0.39311    0.00114     0.39425
 =======================================================================
   * Total *   -0.00000     22.99261    51.70699    0.30040    75.00000

 Normal termination of Gaussian 16 at Sat Dec 12 12:16:15 2020.
