 Gaussian 16, Revision A.03,

 -----------------------------------------------------------
 # opt freq B3LYP/6-31G(d) empiricaldispersion=gd3bj scf=xqc
 -----------------------------------------------------------

 -------------------------------
 CID_154293964_JID_7654_neutraal
 -------------------------------
 Symbolic Z-matrix:
 Charge =  0 Multiplicity = 1

 SCF Done:  E(RB3LYP) =  -1843.93266905     A.U. after   17 cycles
 SCF Done:  E(RB3LYP) =  -1843.94331739     A.U. after   14 cycles
 SCF Done:  E(RB3LYP) =  -1843.94403289     A.U. after   14 cycles
 SCF Done:  E(RB3LYP) =  -1843.94585919     A.U. after   14 cycles
 SCF Done:  E(RB3LYP) =  -1843.94718801     A.U. after   13 cycles
 SCF Done:  E(RB3LYP) =  -1843.94793076     A.U. after   13 cycles
 SCF Done:  E(RB3LYP) =  -1843.94823547     A.U. after   13 cycles
 SCF Done:  E(RB3LYP) =  -1843.94832155     A.U. after   12 cycles
 SCF Done:  E(RB3LYP) =  -1843.94834537     A.U. after   11 cycles
 SCF Done:  E(RB3LYP) =  -1843.94834793     A.U. after   10 cycles
 SCF Done:  E(RB3LYP) =  -1843.94835085     A.U. after   10 cycles
 SCF Done:  E(RB3LYP) =  -1843.94835120     A.U. after    8 cycles
 SCF Done:  E(RB3LYP) =  -1843.94835132     A.U. after    8 cycles
 Optimization completed.
    -- Stationary point found.
 Normal termination of Gaussian 16 at Sun Dec 13 16:08:12 2020.

 --------------------------------------------------------------------
 #N Geom=AllCheck Guess=TCheck SCRF=Check GenChk RB3LYP/6-31G(d) Freq
 --------------------------------------------------------------------

 Structure from the checkpoint file:  "JID_7654.chk"
 -------------------------------
 CID_154293964_JID_7654_neutraal
 -------------------------------
 Charge =  0 Multiplicity = 1

 SCF Done:  E(RB3LYP) =  -1843.94835132     A.U. after    1 cycles

  Exact polarizability: 232.330  -1.844 177.034  -4.233   3.606 120.814
 Approx polarizability: 307.526   3.794 360.099 -20.629  14.807 190.527

                      1                      2                      3
                      A                      A                      A
 Frequencies --     23.5935                31.4769                37.0365
 Red. masses --      4.3831                 3.5510                 5.3897
 Frc consts  --      0.0014                 0.0021                 0.0044
 IR Inten    --      1.6650                 1.0657                 0.4218

                      4                      5                      6
                      A                      A                      A
 Frequencies --     48.6747                65.5340                90.4335
 Red. masses --      5.2015                 3.1717                 3.2195
 Frc consts  --      0.0073                 0.0080                 0.0155
 IR Inten    --      1.3061                 2.3231                 0.9730

                      7                      8                      9
                      A                      A                      A
 Frequencies --     95.3479               114.7293               123.5289
 Red. masses --      4.3550                 3.3699                 4.4387
 Frc consts  --      0.0233                 0.0261                 0.0399
 IR Inten    --      8.3267                 3.8338                 3.3240

                     10                     11                     12
                      A                      A                      A
 Frequencies --    133.0314               160.7529               181.0174
 Red. masses --      7.5773                10.2368                 3.5850
 Frc consts  --      0.0790                 0.1559                 0.0692
 IR Inten    --      2.1951                 1.7284                 6.5631

                     13                     14                     15
                      A                      A                      A
 Frequencies --    185.0152               207.0891               243.7730
 Red. masses --      2.3710                 3.3628                 2.0296
 Frc consts  --      0.0478                 0.0850                 0.0711
 IR Inten    --      1.7360                 2.6579                 5.1654

                     16                     17                     18
                      A                      A                      A
 Frequencies --    250.9890               270.0319               280.7911
 Red. masses --      5.3371                 3.7856                 1.5038
 Frc consts  --      0.1981                 0.1626                 0.0699
 IR Inten    --      2.2043                 0.7369                 3.1836

                     19                     20                     21
                      A                      A                      A
 Frequencies --    294.3943               333.8680               360.2768
 Red. masses --      3.9324                 6.2962                 2.5822
 Frc consts  --      0.2008                 0.4135                 0.1975
 IR Inten    --      2.1579                 2.6681                 2.0027

                     22                     23                     24
                      A                      A                      A
 Frequencies --    369.3864               411.6614               426.0426
 Red. masses --      2.6254                 4.7699                11.6022
 Frc consts  --      0.2111                 0.4763                 1.2408
 IR Inten    --      1.9952                 7.5300                10.1398

                     25                     26                     27
                      A                      A                      A
 Frequencies --    459.9332               498.4412               507.0715
 Red. masses --      6.7508                 8.4267                 4.2614
 Frc consts  --      0.8414                 1.2335                 0.6456
 IR Inten    --     11.8065                 7.6102                13.2044

                     28                     29                     30
                      A                      A                      A
 Frequencies --    530.7305               583.7584               587.4649
 Red. masses --     12.6606                 8.4283                 4.5479
 Frc consts  --      2.1011                 1.6922                 0.9248
 IR Inten    --      3.1138                 2.3245                 2.1795

                     31                     32                     33
                      A                      A                      A
 Frequencies --    610.3644               614.5369               710.9633
 Red. masses --      8.4914                 3.7606                 8.5022
 Frc consts  --      1.8638                 0.8368                 2.5321
 IR Inten    --     18.1027                 8.5283                 2.6757

                     34                     35                     36
                      A                      A                      A
 Frequencies --    747.9876               785.8991               800.7303
 Red. masses --     13.8950                 1.3224                 1.3487
 Frc consts  --      4.5803                 0.4812                 0.5095
 IR Inten    --     12.8564                10.9739                10.4552

                     37                     38                     39
                      A                      A                      A
 Frequencies --    812.6057               861.6133               865.9618
 Red. masses --      9.5459                 1.9790                 1.9793
 Frc consts  --      3.7139                 0.8656                 0.8745
 IR Inten    --     11.2910                 6.0454                 6.2529

                     40                     41                     42
                      A                      A                      A
 Frequencies --    907.8499               910.0090               985.9721
 Red. masses --      1.5924                 1.6227                12.4159
 Frc consts  --      0.7733                 0.7917                 7.1114
 IR Inten    --      1.9865                 2.0163                 8.3280

                     43                     44                     45
                      A                      A                      A
 Frequencies --   1046.8012              1049.8642              1070.6380
 Red. masses --      2.4284                 1.7415                 2.0565
 Frc consts  --      1.5678                 1.1309                 1.3889
 IR Inten    --     33.7909                12.2942                33.4399

                     46                     47                     48
                      A                      A                      A
 Frequencies --   1078.7737              1085.3953              1091.2541
 Red. masses --      6.5155                 1.4268                 2.2930
 Frc consts  --      4.4674                 0.9904                 1.6088
 IR Inten    --     66.6870                 1.8493                24.8339

                     49                     50                     51
                      A                      A                      A
 Frequencies --   1103.1138              1108.4881              1114.8460
 Red. masses --      4.7510                 1.7394                 2.7190
 Frc consts  --      3.4063                 1.2593                 1.9911
 IR Inten    --      9.5263                30.0408                 9.3231

                     52                     53                     54
                      A                      A                      A
 Frequencies --   1238.4532              1247.8926              1281.9227
 Red. masses --      1.3506                 1.3430                 1.3134
 Frc consts  --      1.2205                 1.2322                 1.2716
 IR Inten    --      1.5891                 0.9721                 1.4209

                     55                     56                     57
                      A                      A                      A
 Frequencies --   1288.2001              1337.7358              1344.5049
 Red. masses --      1.2978                 1.6448                 1.3272
 Frc consts  --      1.2689                 1.7343                 1.4135
 IR Inten    --      0.6011                35.9393                 8.0709

                     58                     59                     60
                      A                      A                      A
 Frequencies --   1347.2493              1394.5145              1401.1388
 Red. masses --      2.3910                 1.3984                 1.3715
 Frc consts  --      2.5570                 1.6023                 1.5864
 IR Inten    --      3.3318                10.4284                 3.3198

                     61                     62                     63
                      A                      A                      A
 Frequencies --   1421.8526              1443.6381              1449.8121
 Red. masses --     11.5454                 1.2604                 1.2330
 Frc consts  --     13.7520                 1.5477                 1.5269
 IR Inten    --      5.1302                 2.5139                 8.7410

                     64                     65                     66
                      A                      A                      A
 Frequencies --   1476.9602              1488.5592              1506.9861
 Red. masses --      1.1042                 1.0929                 1.0760
 Frc consts  --      1.4191                 1.4267                 1.4397
 IR Inten    --      5.0789                 8.2157                 6.2934

                     67                     68                     69
                      A                      A                      A
 Frequencies --   1517.3197              1526.3256              1530.9223
 Red. masses --      1.0641                 1.1198                 1.0886
 Frc consts  --      1.4434                 1.5371                 1.5032
 IR Inten    --      3.0712                12.7364                 6.5666

                     70                     71                     72
                      A                      A                      A
 Frequencies --   1532.9237              1533.5983              1543.1965
 Red. masses --      1.1872                 3.4583                 1.0477
 Frc consts  --      1.6437                 4.7923                 1.4701
 IR Inten    --     13.6212                 4.1473                 8.1590

                     73                     74                     75
                      A                      A                      A
 Frequencies --   2350.7247              3051.1604              3053.1765
 Red. masses --     12.6692                 1.0664                 1.0415
 Frc consts  --     41.2479                 5.8494                 5.7204
 IR Inten    --     12.6817                21.9390                 6.9559

                     76                     77                     78
                      A                      A                      A
 Frequencies --   3057.4893              3057.8079              3076.1390
 Red. masses --      1.0380                 1.0569                 1.0593
 Frc consts  --      5.7170                 5.8225                 5.9057
 IR Inten    --     17.5616                22.4826                 2.6221

                     79                     80                     81
                      A                      A                      A
 Frequencies --   3080.3863              3093.3036              3101.0225
 Red. masses --      1.0591                 1.0994                 1.0963
 Frc consts  --      5.9210                 6.1980                 6.2116
 IR Inten    --     14.4513                 2.0086                 1.7777

                     82                     83                     84
                      A                      A                      A
 Frequencies --   3120.8305              3123.6623              3129.8737
 Red. masses --      1.1029                 1.1016                 1.1020
 Frc consts  --      6.3288                 6.3330                 6.3607
 IR Inten    --     32.2487                30.1521                33.3573

                     85                     86                     87
                      A                      A                      A
 Frequencies --   3140.5065              3142.8981              3144.0852
 Red. masses --      1.1050                 1.1023                 1.1094
 Frc consts  --      6.4214                 6.4154                 6.4614
 IR Inten    --     16.5358                16.2656                 3.3773

 - Thermochemistry -
 -------------------
 Temperature   298.150 Kelvin.  Pressure   1.00000 Atm.
 Atom     1 has atomic number  6 and mass  12.00000

 Molecular mass:   290.02174 amu.
 Principal axes and moments of inertia in atomic units:
                           1         2         3
     Eigenvalues --  2648.545768814.90394**********
           X            0.99961  -0.02338   0.01553
           Y            0.02341   0.99972  -0.00183
           Z           -0.01549   0.00219   0.99988
 This molecule is an asymmetric top.
 Rotational symmetry number  1.
 Warning -- assumption of classical behavior for rotation
           may cause significant error
 Rotational temperatures (Kelvin)      0.03270     0.00983     0.00866
 Rotational constants (GHZ):           0.68141     0.20474     0.18046
 Zero-point vibrational energy     615157.6 (Joules/Mol)
                                  147.02619 (Kcal/Mol)
 Warning -- explicit consideration of  32 degrees of freedom as
           vibrations may cause significant error
 Vibrational temperatures:     33.95    45.29    53.29    70.03    94.29
          (Kelvin)            130.11   137.18   165.07   177.73   191.40
                              231.29   260.44   266.20   297.96   350.74
                              361.12   388.52   404.00   423.57   480.36
                              518.36   531.46   592.29   612.98   661.74
                              717.15   729.56   763.60   839.90   845.23
                              878.18   884.18  1022.92  1076.19  1130.73
                             1152.07  1169.16  1239.67  1245.93  1306.19
                             1309.30  1418.59  1506.11  1510.52  1540.41
                             1552.11  1561.64  1570.07  1587.13  1594.87
                             1604.01  1781.86  1795.44  1844.40  1853.43
                             1924.70  1934.44  1938.39  2006.40  2015.93
                             2045.73  2077.07  2085.96  2125.02  2141.70
                             2168.22  2183.08  2196.04  2202.66  2205.54
                             2206.51  2220.32  3382.17  4389.94  4392.84
                             4399.05  4399.50  4425.88  4431.99  4450.57
                             4461.68  4490.18  4494.25  4503.19  4518.49
                             4521.93  4523.64

 Zero-point correction=                           0.234301 (Hartree/Particle)
 Thermal correction to Energy=                    0.253931
 Thermal correction to Enthalpy=                  0.254875
 Thermal correction to Gibbs Free Energy=         0.183862
 Sum of electronic and zero-point Energies=          -1843.714050
 Sum of electronic and thermal Energies=             -1843.694421
 Sum of electronic and thermal Enthalpies=           -1843.693476
 Sum of electronic and thermal Free Energies=        -1843.764489

                     E (Thermal)             CV                S
                      KCal/Mol        Cal/Mol-Kelvin    Cal/Mol-Kelvin
 Total                  159.344             69.175            149.459
 Electronic               0.000              0.000              0.000
 Translational            0.889              2.981             42.892
 Rotational               0.889              2.981             33.812
 Vibrational            157.566             63.213             72.755
 Vibration     1          0.593              1.985              6.306
 Vibration     2          0.594              1.983              5.734
 Vibration     3          0.594              1.982              5.412
 Vibration     4          0.595              1.978              4.871
 Vibration     5          0.597              1.971              4.283
 Vibration     6          0.602              1.956              3.651
 Vibration     7          0.603              1.953              3.547
 Vibration     8          0.608              1.937              3.187
 Vibration     9          0.610              1.929              3.044
 Vibration    10          0.613              1.920              2.902
 Vibration    11          0.622              1.890              2.541
 Vibration    12          0.630              1.866              2.318
 Vibration    13          0.631              1.860              2.277
 Vibration    14          0.641              1.830              2.069
 Vibration    15          0.659              1.773              1.775
 Vibration    16          0.663              1.761              1.724
 Vibration    17          0.674              1.728              1.596
 Vibration    18          0.680              1.709              1.529
 Vibration    19          0.689              1.684              1.449
 Vibration    20          0.715              1.608              1.241
 Vibration    21          0.735              1.554              1.121
 Vibration    22          0.742              1.535              1.082
 Vibration    23          0.776              1.445              0.921
 Vibration    24          0.788              1.414              0.872
 Vibration    25          0.818              1.339              0.766
 Vibration    26          0.854              1.253              0.662
 Vibration    27          0.862              1.234              0.641
 Vibration    28          0.886              1.182              0.586
 Vibration    29          0.941              1.066              0.478
 Vibration    30          0.945              1.059              0.472
 Vibration    31          0.969              1.010              0.432
 Vibration    32          0.974              1.001              0.425

 Optimization completed.
    -- Stationary point found.
 Normal termination of Gaussian 16 at Sun Dec 13 16:18:58 2020.

 ----------------------------------------------------------------------
 # B3LYP/6-311++G(d,p) empiricaldispersion=gd3bj scf=xqc pop=npa geom=c
 heck
 ----------------------------------------------------------------------

 ---------------------------------------
 CID_154293964_JID_7654_Energie_neutraal
 ---------------------------------------
 Structure from the checkpoint file:  "JID_7654.chk"
 Charge =  0 Multiplicity = 1

 SCF Done:  E(RB3LYP) =  -1844.21065503     A.U. after   18 cycles
 Normal termination of Gaussian 16 at Sun Dec 13 16:25:43 2020.

 ----------------------------------------------------------------------
 # B3LYP/6-311++G(d,p) empiricaldispersion=gd3bj scf=xqc pop=npa geom=c
 heck
 ----------------------------------------------------------------------

 -------------------------------------
 CID_154293964_JID_7654_Energie_kation
 -------------------------------------
 Structure from the checkpoint file:  "JID_7654.chk"
 Charge =  1 Multiplicity = 2

 SCF Done:  E(UB3LYP) =  -1843.89168661     A.U. after   28 cycles
 Normal termination of Gaussian 16 at Sun Dec 13 16:40:39 2020.
 Gaussian 16:  ES64L-G16RevA.03 25-Dec-2016

 ----------------------------------------------------------------------
 # B3LYP/6-311++G(d,p) empiricaldispersion=gd3bj scf=xqc pop=npa geom=c
 heck
 ----------------------------------------------------------------------

 ------------------------------------
 CID_154293964_JID_7654_Energie_anion
 ------------------------------------
 Structure from the checkpoint file:  "JID_7654.chk"
 Charge = -1 Multiplicity = 2

                         Standard orientation:
 ---------------------------------------------------------------------
 Center     Atomic      Atomic             Coordinates (Angstroms)
 Number     Number       Type             X           Y           Z
 ---------------------------------------------------------------------
      1          6           0       -5.059483    1.455360    0.596563
      2          6           0       -4.663470    0.590987   -0.603420
      3          6           0       -3.153188    0.441477   -0.782431
      4         16           0       -2.452342   -0.519030    0.638214
      5          8           0       -2.990254   -1.930071    0.550442
      6          6           0       -0.782175   -0.621323   -0.024569
      7          6           0        0.185430    0.358181   -0.173430
      8          6           0        1.392836   -0.250581   -0.662188
      9          7           0        1.362938   -1.542102   -0.871569
     10         16           0       -0.154465   -2.160017   -0.474692
     11         16           0        2.891168    0.709937   -1.099898
     12          8           0        2.789987    2.018487   -0.350120
     13          6           0        4.109737   -0.384904   -0.219320
     14          6           0        4.246149   -0.039642    1.261428
     15          6           0        3.013784   -0.352369    2.112589
     16          6           0       -0.075849    1.724956    0.125082
     17          7           0       -0.444741    2.798255    0.380618
     18          1           0       -4.739181    1.007506    1.544186
     19          1           0       -6.146239    1.576362    0.642985
     20          1           0       -4.608772    2.452222    0.531516
     21          1           0       -5.108464   -0.407727   -0.524054
     22          1           0       -5.053579    1.034298   -1.527916
     23          1           0       -2.901608   -0.120354   -1.686903
     24          1           0       -2.636462    1.407080   -0.786529
     25          1           0        3.778047   -1.411111   -0.403689
     26          1           0        5.051274   -0.215485   -0.751619
     27          1           0        5.114024   -0.597390    1.636335
     28          1           0        4.489944    1.024455    1.349456
     29          1           0        2.668536   -1.381878    1.962995
     30          1           0        3.242819   -0.223177    3.175315
     31          1           0        2.192011    0.327713    1.872193
 ---------------------------------------------------------------------

 SCF Done:  E(UB3LYP) =  -1844.25324785     A.U. after   24 cycles

 The electronic state is 2-A.
 Alpha  occ. eigenvalues --  -88.84138 -88.83484 -88.75767 -18.97559 -18.96849
 Alpha  occ. eigenvalues --  -14.19389 -14.17267 -10.11192 -10.09748 -10.08442
 Alpha  occ. eigenvalues --  -10.08221 -10.08062 -10.08037 -10.07970 -10.07369
 Alpha  occ. eigenvalues --  -10.07235 -10.05695  -7.91821  -7.91073  -7.84204
 Alpha  occ. eigenvalues --   -5.88093  -5.87961  -5.87411  -5.87361  -5.87208
 Alpha  occ. eigenvalues --   -5.86666  -5.80637  -5.80112  -5.79760  -0.90772
 Alpha  occ. eigenvalues --   -0.90083  -0.83974  -0.77352  -0.71078  -0.70670
 Alpha  occ. eigenvalues --   -0.68334  -0.65271  -0.62590  -0.61263  -0.56140
 Alpha  occ. eigenvalues --   -0.55020  -0.49444  -0.48923  -0.47197  -0.43676
 Alpha  occ. eigenvalues --   -0.40931  -0.37457  -0.37211  -0.36941  -0.35901
 Alpha  occ. eigenvalues --   -0.33009  -0.32623  -0.32021  -0.31450  -0.30311
 Alpha  occ. eigenvalues --   -0.30134  -0.29413  -0.27960  -0.27646  -0.26142
 Alpha  occ. eigenvalues --   -0.25436  -0.25255  -0.25109  -0.24882  -0.24585
 Alpha  occ. eigenvalues --   -0.24347  -0.23311  -0.22955  -0.20788  -0.18668
 Alpha  occ. eigenvalues --   -0.16624  -0.16237  -0.15488  -0.14003  -0.12206
 Alpha  occ. eigenvalues --   -0.11781   0.01597
 Alpha virt. eigenvalues --    0.07072   0.07167   0.08754   0.09189   0.09804
 Alpha virt. eigenvalues --    0.10175   0.10479   0.10860   0.11123   0.11651
 Alpha virt. eigenvalues --    0.12006   0.12252   0.12839   0.13069   0.13376

  Beta  occ. eigenvalues --  -88.84138 -88.83491 -88.75646 -18.97557 -18.96863
  Beta  occ. eigenvalues --  -14.18945 -14.17142 -10.11239 -10.09740 -10.08311
  Beta  occ. eigenvalues --  -10.08215 -10.08062 -10.07993 -10.07953 -10.07367
  Beta  occ. eigenvalues --  -10.06498 -10.05690  -7.91821  -7.91077  -7.84095
  Beta  occ. eigenvalues --   -5.88094  -5.87959  -5.87414  -5.87372  -5.87217
  Beta  occ. eigenvalues --   -5.86674  -5.80584  -5.80066  -5.79350  -0.90761
  Beta  occ. eigenvalues --   -0.90048  -0.83422  -0.77155  -0.70892  -0.70625
  Beta  occ. eigenvalues --   -0.67609  -0.65001  -0.62436  -0.61035  -0.55990
  Beta  occ. eigenvalues --   -0.54834  -0.49173  -0.48717  -0.46904  -0.43239
  Beta  occ. eigenvalues --   -0.40733  -0.37365  -0.37146  -0.36851  -0.35800
  Beta  occ. eigenvalues --   -0.32883  -0.32580  -0.31735  -0.31068  -0.30105
  Beta  occ. eigenvalues --   -0.29818  -0.29052  -0.27843  -0.27509  -0.25965
  Beta  occ. eigenvalues --   -0.25342  -0.25230  -0.24868  -0.24651  -0.24444
  Beta  occ. eigenvalues --   -0.24143  -0.23029  -0.22178  -0.20594  -0.18310
  Beta  occ. eigenvalues --   -0.16011  -0.15579  -0.14272  -0.12946  -0.11595
  Beta  occ. eigenvalues --   -0.10991
  Beta virt. eigenvalues --    0.07074   0.07161   0.08602   0.08944   0.09206
  Beta virt. eigenvalues --    0.10114   0.10429   0.10513   0.10923   0.11357
  Beta virt. eigenvalues --    0.11661   0.12126   0.12379   0.12905   0.13124

 Mulliken charges and spin densities:
               1          2
     1  C   -0.494777   0.015242
     2  C   -0.464361  -0.003786
     3  C   -0.351523   0.007484
     4  S    0.791665   0.035782
     5  O   -0.433435  -0.007473
     6  C   -0.088393   0.421933
     7  C    1.242162   0.086608
     8  C   -0.814135  -0.048285
     9  N    0.038995   0.168325
    10  S    0.352022   0.246324
    11  S    0.748576   0.017402
    12  O   -0.420397  -0.001977
    13  C   -0.552848  -0.006453
    14  C   -0.283052  -0.009235
    15  C   -0.504929  -0.000794
    16  C   -1.827198  -0.007781
    17  N   -0.218733   0.062856
    18  H    0.141379   0.003418
    19  H    0.119787   0.003085
    20  H    0.143059  -0.002639
    21  H    0.166493   0.000400
    22  H    0.135327   0.001666
    23  H    0.242109  -0.003008
    24  H    0.166809   0.008097
    25  H    0.194634  -0.003540
    26  H    0.195199   0.007601
    27  H    0.124760  -0.001279
    28  H    0.182652  -0.001445
    29  H    0.140613   0.000004
    30  H    0.133011   0.001599
    31  H    0.194530   0.009871
 Sum of Mulliken charges =  -1.00000   1.00000

 Dipole moment (field-independent basis, Debye):
    X=              1.1770    Y=             -1.2354    Z=             -0.6492  Tot=              1.8257
 Quadrupole moment (field-independent basis, Debye-Ang):
   XX=           -146.5476   YY=           -168.1646   ZZ=           -132.2265
   XY=            -16.5914   XZ=              6.4938   YZ=             -2.3973

 Summary of Natural Population Analysis:

                                       Natural Population
                Natural  -----------------------------------------------
    Atom  No    Charge         Core      Valence    Rydberg      Total
 -----------------------------------------------------------------------
      C    1   -0.29017      0.99967     2.28572    0.00478     3.29017
      C    2   -0.20076      0.99964     2.19413    0.00699     3.20076
      C    3   -0.25653      0.99960     2.24549    0.01144     3.25653
      S    4    0.60931      4.99929     2.33548    0.05591     7.39069
      O    5   -0.49567      0.99993     3.48792    0.00782     4.49567
      C    6   -0.06515      0.99940     2.04641    0.01935     3.06515
      C    7   -0.15488      0.99923     2.14257    0.01308     3.15488
      C    8   -0.00733      0.99940     1.98124    0.02669     3.00733
      N    9   -0.27240      0.99964     2.75975    0.01301     3.77240
      S   10    0.37374      4.99934     2.60139    0.02554     7.62626
      S   11    0.58716      4.99936     2.35473    0.05875     7.41284
      O   12   -0.47746      0.99993     3.46822    0.00931     4.47746
      C   13   -0.27153      0.99959     2.26308    0.00886     3.27153
      C   14   -0.20143      0.99963     2.19404    0.00776     3.20143
      C   15   -0.29118      0.99966     2.28628    0.00523     3.29118
      C   16    0.15791      0.99962     1.82513    0.01734     2.84209
      N   17   -0.18006      0.99979     2.66919    0.01108     3.68006
      H   18    0.10157      0.00000     0.39749    0.00094     0.39843
      H   19    0.09384      0.00000     0.40535    0.00081     0.40616
      H   20    0.09899      0.00000     0.40012    0.00089     0.40101
      H   21    0.10327      0.00000     0.39537    0.00136     0.39673
      H   22    0.09572      0.00000     0.40305    0.00123     0.40428
      H   23    0.10818      0.00000     0.39083    0.00098     0.39182
      H   24    0.11242      0.00000     0.38612    0.00145     0.38758
      H   25    0.11930      0.00000     0.37942    0.00127     0.38070
      H   26    0.09818      0.00000     0.40072    0.00110     0.40182
      H   27    0.09259      0.00000     0.40604    0.00137     0.40741
      H   28    0.10660      0.00000     0.39207    0.00133     0.39340
      H   29    0.10014      0.00000     0.39889    0.00097     0.39986
      H   30    0.09321      0.00000     0.40592    0.00087     0.40679
      H   31    0.11241      0.00000     0.38655    0.00103     0.38759
 =======================================================================
   * Total *   -0.00000     28.99273    46.68874    0.31854    76.00000

 Normal termination of Gaussian 16 at Sun Dec 13 16:53:55 2020.
