 Gaussian 16, Revision A.03,

 -----------------------------------------------------------
 # opt freq B3LYP/6-31G(d) empiricaldispersion=gd3bj scf=xqc
 -----------------------------------------------------------

 ------------------------------
 CID_72035135_JID_8830_neutraal
 ------------------------------
 Symbolic Z-matrix:
 Charge =  0 Multiplicity = 1

 SCF Done:  E(RB3LYP) =  -1158.11640680     A.U. after   15 cycles
 SCF Done:  E(RB3LYP) =  -1158.11717328     A.U. after   14 cycles
 SCF Done:  E(RB3LYP) =  -1158.13072666     A.U. after   13 cycles
 SCF Done:  E(RB3LYP) =  -1158.12936151     A.U. after   13 cycles
 SCF Done:  E(RB3LYP) =  -1158.12890973     A.U. after   13 cycles
 SCF Done:  E(RB3LYP) =  -1158.12614160     A.U. after   13 cycles
 SCF Done:  E(RB3LYP) =  -1158.13106782     A.U. after   10 cycles
 SCF Done:  E(RB3LYP) =  -1158.13208184     A.U. after   12 cycles
 SCF Done:  E(RB3LYP) =  -1158.13232655     A.U. after   12 cycles
 SCF Done:  E(RB3LYP) =  -1158.13247018     A.U. after   12 cycles
 SCF Done:  E(RB3LYP) =  -1158.13264921     A.U. after   10 cycles
 SCF Done:  E(RB3LYP) =  -1158.13265082     A.U. after    8 cycles
 SCF Done:  E(RB3LYP) =  -1158.13265132     A.U. after    8 cycles
 SCF Done:  E(RB3LYP) =  -1158.13265169     A.U. after    8 cycles
 SCF Done:  E(RB3LYP) =  -1158.13265178     A.U. after    7 cycles
 SCF Done:  E(RB3LYP) =  -1158.13265181     A.U. after    7 cycles
 Optimization completed.
    -- Stationary point found.
 Normal termination of Gaussian 16 at Fri Dec 11 22:22:04 2020.

 --------------------------------------------------------------------
 #N Geom=AllCheck Guess=TCheck SCRF=Check GenChk RB3LYP/6-31G(d) Freq
 --------------------------------------------------------------------

 Structure from the checkpoint file:  "JID_8830.chk"
 ------------------------------
 CID_72035135_JID_8830_neutraal
 ------------------------------
 Charge =  0 Multiplicity = 1

 SCF Done:  E(RB3LYP) =  -1158.13265181     A.U. after    1 cycles

  Exact polarizability: 222.251 -24.104 139.942  -2.120  -1.215 141.575
 Approx polarizability: 337.473 -44.150 217.125  -3.675  -9.541 260.534

                      1                      2                      3
                      A                      A                      A
 Frequencies --     41.0190                57.8684                64.5044
 Red. masses --      4.9832                 5.5348                 4.5608
 Frc consts  --      0.0049                 0.0109                 0.0112
 IR Inten    --      0.8582                 0.0936                 1.7373

                      4                      5                      6
                      A                      A                      A
 Frequencies --     90.3168                92.8652               103.7630
 Red. masses --      2.9246                 2.7265                 4.0226
 Frc consts  --      0.0141                 0.0139                 0.0255
 IR Inten    --      0.2993                 0.9942                 0.3191

                      7                      8                      9
                      A                      A                      A
 Frequencies --    128.0052               137.7032               176.5837
 Red. masses --      5.9254                 2.6884                 1.4794
 Frc consts  --      0.0572                 0.0300                 0.0272
 IR Inten    --      0.5956                 0.5219                 3.9521

                     10                     11                     12
                      A                      A                      A
 Frequencies --    197.2877               200.2781               214.9193
 Red. masses --      3.9808                 1.7489                 1.9959
 Frc consts  --      0.0913                 0.0413                 0.0543
 IR Inten    --      0.8680                 0.0706                 1.2907

                     13                     14                     15
                      A                      A                      A
 Frequencies --    234.6244               276.7157               298.5802
 Red. masses --      5.9548                 3.4354                 4.1073
 Frc consts  --      0.1931                 0.1550                 0.2157
 IR Inten    --      0.8325                 0.7941                 2.7008

                     16                     17                     18
                      A                      A                      A
 Frequencies --    333.3474               367.8025               398.8195
 Red. masses --      3.9968                 3.7991                 5.3266
 Frc consts  --      0.2617                 0.3028                 0.4992
 IR Inten    --      5.0958                 0.3388                12.0563

                     19                     20                     21
                      A                      A                      A
 Frequencies --    418.1292               471.0471               491.4624
 Red. masses --      4.3404                 5.5605                 1.5427
 Frc consts  --      0.4471                 0.7269                 0.2195
 IR Inten    --      6.0240                 6.3276                65.9423

                     22                     23                     24
                      A                      A                      A
 Frequencies --    512.4974               535.0130               563.1950
 Red. masses --      5.8668                 3.5546                 4.2613
 Frc consts  --      0.9079                 0.5995                 0.7964
 IR Inten    --      9.4490                12.6553                 9.6544

                     25                     26                     27
                      A                      A                      A
 Frequencies --    588.2047               605.8338               653.7600
 Red. masses --      4.4010                 4.2964                 4.6070
 Frc consts  --      0.8971                 0.9291                 1.1601
 IR Inten    --      4.4006                14.9907                 3.1463

                     28                     29                     30
                      A                      A                      A
 Frequencies --    665.0381               691.3000               729.5416
 Red. masses --      5.1149                 8.8131                 5.7175
 Frc consts  --      1.3328                 2.4815                 1.7929
 IR Inten    --      2.3133                 2.9990                 4.6962

                     31                     32                     33
                      A                      A                      A
 Frequencies --    744.3865               759.0479               784.6096
 Red. masses --      3.5692                 3.3537                 1.4936
 Frc consts  --      1.1652                 1.1385                 0.5417
 IR Inten    --      8.9637                 3.4240                30.8241

                     34                     35                     36
                      A                      A                      A
 Frequencies --    797.6797               817.7509               889.0899
 Red. masses --      1.3300                 3.5483                 1.7286
 Frc consts  --      0.4986                 1.3980                 0.8051
 IR Inten    --      4.2729                10.0533                 7.3878

                     37                     38                     39
                      A                      A                      A
 Frequencies --    896.2782               952.7358               972.4124
 Red. masses --      2.8742                 1.4188                 1.6918
 Frc consts  --      1.3603                 0.7588                 0.9425
 IR Inten    --     21.2122                 2.6443                 2.7444

                     40                     41                     42
                      A                      A                      A
 Frequencies --    983.3784               990.9680              1035.9029
 Red. masses --      2.6159                 1.2801                 7.7107
 Frc consts  --      1.4904                 0.7406                 4.8751
 IR Inten    --      8.2811                 0.4276                48.0294

                     43                     44                     45
                      A                      A                      A
 Frequencies --   1041.1880              1071.1881              1081.8349
 Red. masses --      3.3009                 2.1804                 2.3237
 Frc consts  --      2.1083                 1.4741                 1.6023
 IR Inten    --     45.2711                 6.3015                18.9575

                     46                     47                     48
                      A                      A                      A
 Frequencies --   1106.0245              1143.5146              1161.0949
 Red. masses --      1.7438                 1.7610                 2.8244
 Frc consts  --      1.2568                 1.3567                 2.2434
 IR Inten    --      2.3823                21.0468                18.6842

                     49                     50                     51
                      A                      A                      A
 Frequencies --   1185.1267              1186.1209              1193.2538
 Red. masses --      1.3653                 3.4134                 1.2068
 Frc consts  --      1.1298                 2.8294                 1.0124
 IR Inten    --      0.1290                18.1402                 3.0996

                     52                     53                     54
                      A                      A                      A
 Frequencies --   1213.4869              1226.8485              1265.4465
 Red. masses --      1.5459                 2.4233                 2.4722
 Frc consts  --      1.3412                 2.1490                 2.3325
 IR Inten    --      3.6266                 7.3594                22.5879

                     55                     56                     57
                      A                      A                      A
 Frequencies --   1280.5335              1298.3062              1302.9749
 Red. masses --      2.5010                 1.7598                 1.5499
 Frc consts  --      2.4163                 1.7477                 1.5503
 IR Inten    --     63.6463                 9.0258                85.4462

                     58                     59                     60
                      A                      A                      A
 Frequencies --   1320.2747              1347.0996              1357.2336
 Red. masses --      3.4298                 6.9578                 1.8196
 Frc consts  --      3.5224                 7.4391                 1.9749
 IR Inten    --    126.0047                 1.5605                20.7929

                     61                     62                     63
                      A                      A                      A
 Frequencies --   1411.6927              1435.2529              1441.6417
 Red. masses --      1.3241                 2.6211                 1.3041
 Frc consts  --      1.5547                 3.1812                 1.5969
 IR Inten    --      7.9888                35.2041                14.9848

                     64                     65                     66
                      A                      A                      A
 Frequencies --   1482.4929              1499.6344              1505.4644
 Red. masses --      1.6014                 1.7344                 1.5666
 Frc consts  --      2.0737                 2.2981                 2.0920
 IR Inten    --     20.8994               136.6095                60.8168

                     67                     68                     69
                      A                      A                      A
 Frequencies --   1512.7758              1518.4729              1522.6205
 Red. masses --      1.3269                 1.1210                 1.1239
 Frc consts  --      1.7891                 1.5228                 1.5352
 IR Inten    --     84.0506                22.6760                40.9281

                     70                     71                     72
                      A                      A                      A
 Frequencies --   1526.0248              1539.8416              1542.1864
 Red. masses --      1.0457                 1.0850                 2.0309
 Frc consts  --      1.4348                 1.5157                 2.8458
 IR Inten    --      2.3779                 5.2339                26.6638

                     73                     74                     75
                      A                      A                      A
 Frequencies --   1621.1950              1624.5715              1658.7167
 Red. masses --      7.6733                 5.9247                 5.7459
 Frc consts  --     11.8824                 9.2128                 9.3143
 IR Inten    --     42.2302                14.0647                29.5008

                     76                     77                     78
                      A                      A                      A
 Frequencies --   1694.5467              3038.0861              3062.3162
 Red. masses --      8.9521                 1.0379                 1.0715
 Frc consts  --     15.1455                 5.6444                 5.9205
 IR Inten    --     50.5067                54.7428                14.2941

                     79                     80                     81
                      A                      A                      A
 Frequencies --   3070.7645              3114.0231              3134.1244
 Red. masses --      1.0365                 1.1032                 1.0983
 Frc consts  --      5.7588                 6.3029                 6.3566
 IR Inten    --     26.5142                29.7270                 4.7780

                     82                     83                     84
                      A                      A                      A
 Frequencies --   3146.3301              3146.6706              3162.9727
 Red. masses --      1.0939                 1.0879                 1.1021
 Frc consts  --      6.3802                 6.3464                 6.4965
 IR Inten    --     23.1953                 6.6954                14.4724

                     85                     86                     87
                      A                      A                      A
 Frequencies --   3183.7341              3198.7292              3199.1942
 Red. masses --      1.0882                 1.1001                 1.0886
 Frc consts  --      6.4991                 6.6320                 6.5645
 IR Inten    --      4.8530                 4.2308                 5.9293

                     88                     89                     90
                      A                      A                      A
 Frequencies --   3215.3296              3223.3575              3682.5296
 Red. masses --      1.0931                 1.0964                 1.0821
 Frc consts  --      6.6584                 6.7116                 8.6460
 IR Inten    --     15.2345                 8.9140                99.2414

 - Thermochemistry -
 -------------------
 Temperature   298.150 Kelvin.  Pressure   1.00000 Atm.
 Atom     1 has atomic number  6 and mass  12.00000

 Molecular mass:   262.08883 amu.
 Principal axes and moments of inertia in atomic units:
                           1         2         3
     Eigenvalues --  2839.150705309.422736353.51466
           X            0.99987  -0.01587  -0.00375
           Y            0.01592   0.99980   0.01244
           Z            0.00355  -0.01250   0.99992
 This molecule is an asymmetric top.
 Rotational symmetry number  1.
 Warning -- assumption of classical behavior for rotation
           may cause significant error
 Rotational temperatures (Kelvin)      0.03051     0.01631     0.01363
 Rotational constants (GHZ):           0.63566     0.33991     0.28405
 Zero-point vibrational energy     669078.0 (Joules/Mol)
                                  159.91348 (Kcal/Mol)
 Warning -- explicit consideration of  26 degrees of freedom as
           vibrations may cause significant error
 Vibrational temperatures:     59.02    83.26    92.81   129.95   133.61
          (Kelvin)            149.29   184.17   198.12   254.06   283.85
                              288.16   309.22   337.57   398.13   429.59
                              479.61   529.19   573.81   601.59   677.73
                              707.10   737.37   769.76   810.31   846.30
                              871.66   940.61   956.84   994.63  1049.65
                             1071.01  1092.10  1128.88  1147.68  1176.56
                             1279.20  1289.54  1370.77  1399.08  1414.86
                             1425.78  1490.43  1498.04  1541.20  1556.52
                             1591.32  1645.26  1670.56  1705.13  1706.56
                             1716.83  1745.94  1765.16  1820.70  1842.40
                             1867.97  1874.69  1899.58  1938.18  1952.76
                             2031.11  2065.01  2074.20  2132.98  2157.64
                             2166.03  2176.55  2184.74  2190.71  2195.61
                             2215.49  2218.86  2332.54  2337.40  2386.52
                             2438.07  4371.13  4405.99  4418.15  4480.38
                             4509.31  4526.87  4527.36  4550.81  4580.68
                             4602.26  4602.93  4626.14  4637.69  5298.34

 Zero-point correction=                           0.254838 (Hartree/Particle)
 Thermal correction to Energy=                    0.271675
 Thermal correction to Enthalpy=                  0.272620
 Thermal correction to Gibbs Free Energy=         0.209955
 Sum of electronic and zero-point Energies=          -1157.877813
 Sum of electronic and thermal Energies=             -1157.860976
 Sum of electronic and thermal Enthalpies=           -1157.860032
 Sum of electronic and thermal Free Energies=        -1157.922696

                     E (Thermal)             CV                S
                      KCal/Mol        Cal/Mol-Kelvin    Cal/Mol-Kelvin
 Total                  170.479             63.014            131.888
 Electronic               0.000              0.000              0.000
 Translational            0.889              2.981             42.590
 Rotational               0.889              2.981             32.926
 Vibrational            168.701             57.053             56.372
 Vibration     1          0.594              1.981              5.209
 Vibration     2          0.596              1.974              4.529
 Vibration     3          0.597              1.971              4.314
 Vibration     4          0.602              1.956              3.653
 Vibration     5          0.602              1.954              3.599
 Vibration     6          0.605              1.946              3.382
 Vibration     7          0.611              1.925              2.976
 Vibration     8          0.614              1.916              2.836
 Vibration     9          0.628              1.871              2.364
 Vibration    10          0.637              1.844              2.158
 Vibration    11          0.638              1.839              2.131
 Vibration    12          0.645              1.818              2.001
 Vibration    13          0.654              1.788              1.843
 Vibration    14          0.678              1.716              1.554
 Vibration    15          0.692              1.676              1.425
 Vibration    16          0.715              1.609              1.244
 Vibration    17          0.740              1.538              1.089
 Vibration    18          0.765              1.473              0.967
 Vibration    19          0.781              1.431              0.898
 Vibration    20          0.828              1.314              0.735
 Vibration    21          0.847              1.269              0.680
 Vibration    22          0.868              1.222              0.628
 Vibration    23          0.890              1.173              0.576
 Vibration    24          0.919              1.111              0.517
 Vibration    25          0.945              1.057              0.470
 Vibration    26          0.964              1.019              0.440

 Optimization completed.
    -- Stationary point found.
 Normal termination of Gaussian 16 at Fri Dec 11 22:37:34 2020.

 ----------------------------------------------------------------------
 # B3LYP/6-311++G(d,p) empiricaldispersion=gd3bj scf=xqc pop=npa geom=c
 heck
 ----------------------------------------------------------------------

 --------------------------------------
 CID_72035135_JID_8830_Energie_neutraal
 --------------------------------------
 Structure from the checkpoint file:  "JID_8830.chk"
 Charge =  0 Multiplicity = 1

 SCF Done:  E(RB3LYP) =  -1158.35990837     A.U. after   17 cycles
 Normal termination of Gaussian 16 at Fri Dec 11 22:45:03 2020.

 ----------------------------------------------------------------------
 # B3LYP/6-311++G(d,p) empiricaldispersion=gd3bj scf=xqc pop=npa geom=c
 heck
 ----------------------------------------------------------------------

 ------------------------------------
 CID_72035135_JID_8830_Energie_kation
 ------------------------------------
 Structure from the checkpoint file:  "JID_8830.chk"
 Charge =  1 Multiplicity = 2

 SCF Done:  E(UB3LYP) =  -1158.09106186     A.U. after   27 cycles
 Normal termination of Gaussian 16 at Fri Dec 11 23:01:56 2020.
 Gaussian 16:  ES64L-G16RevA.03 25-Dec-2016

 ----------------------------------------------------------------------
 # B3LYP/6-311++G(d,p) empiricaldispersion=gd3bj scf=xqc pop=npa geom=c
 heck
 ----------------------------------------------------------------------

 -----------------------------------
 CID_72035135_JID_8830_Energie_anion
 -----------------------------------
 Structure from the checkpoint file:  "JID_8830.chk"
 Charge = -1 Multiplicity = 2

                         Standard orientation:
 ---------------------------------------------------------------------
 Center     Atomic      Atomic             Coordinates (Angstroms)
 Number     Number       Type             X           Y           Z
 ---------------------------------------------------------------------
      1          6           0       -1.513246    2.720957   -0.578736
      2          6           0       -0.440668    2.489536    0.493895
      3          6           0        0.719619    1.688771   -0.012672
      4          7           0        1.443251    2.033442   -1.043678
      5          7           0        2.452240    1.108269   -1.078697
      6          6           0        2.415363    0.187979   -0.080544
      7         16           0        3.473576   -1.061567    0.237038
      8          7           0        1.259938    0.560198    0.590329
      9          7           0        0.884703   -0.056282    1.783421
     10          6           0       -0.304595   -0.538876    1.835471
     11          6           0       -1.390831   -0.620060    0.838148
     12          6           0       -2.688748   -0.312718    1.281630
     13          6           0       -3.771857   -0.317620    0.409479
     14          6           0       -3.575004   -0.664370   -0.929414
     15          6           0       -2.304524   -1.017555   -1.378565
     16          6           0       -1.212813   -1.004359   -0.507094
     17          8           0        0.010241   -1.365815   -0.995253
     18          6           0        0.432223   -2.693910   -0.648218
     19          1           0       -1.075932    3.212495   -1.452171
     20          1           0       -2.311237    3.357735   -0.183645
     21          1           0       -1.954847    1.775776   -0.903151
     22          1           0       -0.050104    3.454700    0.839074
     23          1           0       -0.871198    1.997655    1.367517
     24          1           0        3.163360    1.149972   -1.792266
     25          1           0       -0.553532   -0.920218    2.827353
     26          1           0       -2.834502   -0.040914    2.324168
     27          1           0       -4.761434   -0.055610    0.770070
     28          1           0       -4.413146   -0.674770   -1.619910
     29          1           0       -2.128877   -1.312344   -2.407915
     30          1           0        0.481904   -2.820954    0.438090
     31          1           0       -0.254971   -3.432083   -1.081034
     32          1           0        1.434926   -2.805894   -1.056672
 ---------------------------------------------------------------------

 SCF Done:  E(UB3LYP) =  -1158.38471829     A.U. after   25 cycles

 The electronic state is 2-A.
 Alpha  occ. eigenvalues --  -88.65945 -19.00864 -14.27173 -14.26823 -14.22451
 Alpha  occ. eigenvalues --  -14.17926 -10.14820 -10.12784 -10.09177 -10.08955
 Alpha  occ. eigenvalues --  -10.07560 -10.05527 -10.05469 -10.04651 -10.04282
 Alpha  occ. eigenvalues --  -10.04274 -10.04165 -10.03760  -7.74698  -5.71154
 Alpha  occ. eigenvalues --   -5.70469  -5.70251  -0.96971  -0.92739  -0.86259
 Alpha  occ. eigenvalues --   -0.74741  -0.73446  -0.71655  -0.66294  -0.62940
 Alpha  occ. eigenvalues --   -0.62368  -0.58994  -0.56501  -0.55252  -0.53804
 Alpha  occ. eigenvalues --   -0.49093  -0.47953  -0.47368  -0.44487  -0.41903
 Alpha  occ. eigenvalues --   -0.39800  -0.37740  -0.36981  -0.35519  -0.34161
 Alpha  occ. eigenvalues --   -0.33317  -0.33144  -0.32987  -0.31352  -0.30149
 Alpha  occ. eigenvalues --   -0.29092  -0.28305  -0.26479  -0.26205  -0.25542
 Alpha  occ. eigenvalues --   -0.24887  -0.23978  -0.23568  -0.22950  -0.21706
 Alpha  occ. eigenvalues --   -0.21078  -0.18730  -0.17789  -0.14878  -0.13219
 Alpha  occ. eigenvalues --   -0.12519  -0.11651  -0.08589  -0.07594   0.03256
 Alpha virt. eigenvalues --    0.07800   0.08843   0.09165   0.09596   0.10015
 Alpha virt. eigenvalues --    0.10714   0.11076   0.11294   0.11828   0.12048
 Alpha virt. eigenvalues --    0.12293   0.12989   0.13405   0.13982   0.14822

  Beta  occ. eigenvalues --  -88.65940 -19.00850 -14.27212 -14.26820 -14.22455
  Beta  occ. eigenvalues --  -14.17360 -10.14750 -10.12744 -10.08994 -10.08925
  Beta  occ. eigenvalues --  -10.07561 -10.05467 -10.05182 -10.04718 -10.04334
  Beta  occ. eigenvalues --  -10.04104 -10.04051 -10.03440  -7.74693  -5.71153
  Beta  occ. eigenvalues --   -5.70454  -5.70247  -0.96899  -0.92654  -0.85803
  Beta  occ. eigenvalues --   -0.74678  -0.72989  -0.71246  -0.66278  -0.62421
  Beta  occ. eigenvalues --   -0.62105  -0.58905  -0.56360  -0.55205  -0.53433
  Beta  occ. eigenvalues --   -0.48661  -0.47800  -0.47149  -0.44316  -0.41667
  Beta  occ. eigenvalues --   -0.39624  -0.37588  -0.36724  -0.35385  -0.34116
  Beta  occ. eigenvalues --   -0.33262  -0.32960  -0.32749  -0.31180  -0.30023
  Beta  occ. eigenvalues --   -0.28832  -0.28266  -0.26390  -0.25915  -0.25395
  Beta  occ. eigenvalues --   -0.24767  -0.23796  -0.23039  -0.22591  -0.21438
  Beta  occ. eigenvalues --   -0.20675  -0.17822  -0.16839  -0.14623  -0.12275
  Beta  occ. eigenvalues --   -0.11835  -0.10451  -0.08543  -0.07453
  Beta virt. eigenvalues --    0.07758   0.08780   0.09100   0.09363   0.09775
  Beta virt. eigenvalues --    0.10082   0.11043   0.11051   0.11317   0.11897
  Beta virt. eigenvalues --    0.12283   0.12375   0.13405   0.13496   0.13969

 Mulliken charges and spin densities:
               1          2
     1  C   -0.665925   0.003205
     2  C    0.117623   0.012994
     3  C   -0.006586   0.006972
     4  N   -0.122258  -0.002984
     5  N   -0.036459   0.002271
     6  C    0.167000   0.027378
     7  S   -0.977733   0.013205
     8  N    0.637585  -0.028513
     9  N   -0.496689   0.252333
    10  C   -0.763183   0.216331
    11  C    2.478556   0.050970
    12  C   -0.128725   0.171183
    13  C   -0.272460  -0.045806
    14  C   -0.348652   0.263859
    15  C   -0.534876  -0.050740
    16  C   -2.148578   0.094821
    17  O    0.041425   0.001917
    18  C   -0.176004   0.002844
    19  H    0.139413  -0.000274
    20  H    0.115120   0.002540
    21  H    0.204871  -0.004941
    22  H    0.193938   0.000523
    23  H    0.193766  -0.007800
    24  H    0.347140   0.000079
    25  H    0.146380   0.001800
    26  H    0.111528   0.012919
    27  H    0.117913   0.002169
    28  H    0.119933  -0.017596
    29  H    0.135314   0.008254
    30  H    0.164941   0.001331
    31  H    0.112140   0.002979
    32  H    0.133539   0.005775
 Sum of Mulliken charges =  -1.00000   1.00000

 Dipole moment (field-independent basis, Debye):
    X=             -3.3709    Y=              2.3689    Z=             -1.9250  Tot=              4.5475
 Quadrupole moment (field-independent basis, Debye-Ang):
   XX=           -159.8126   YY=           -127.7726   ZZ=           -128.0631
   XY=              3.4549   XZ=             -8.4868   YZ=              3.7024

 Summary of Natural Population Analysis:

                                       Natural Population
                Natural  -----------------------------------------------
    Atom  No    Charge         Core      Valence    Rydberg      Total
 -----------------------------------------------------------------------
      C    1   -0.28122      0.99966     2.27717    0.00439     3.28122
      C    2   -0.21239      0.99960     2.20594    0.00684     3.21239
      C    3    0.20616      0.99959     1.77601    0.01824     2.79384
      N    4   -0.16973      0.99967     2.65924    0.01083     3.66973
      N    5   -0.19795      0.99962     2.68340    0.01493     3.69795
      C    6    0.13166      0.99962     1.84745    0.02127     2.86834
      S    7   -0.16073      4.99959     3.14665    0.01449     8.16073
      N    8   -0.14357      0.99953     2.62811    0.01593     3.64357
      N    9   -0.07134      0.99966     2.55825    0.01344     3.57134
      C   10    0.10929      0.99962     1.87560    0.01550     2.89071
      C   11   -0.07076      0.99944     2.05968    0.01165     3.07076
      C   12   -0.05488      0.99954     2.04719    0.00815     3.05488
      C   13   -0.13481      0.99957     2.12617    0.00907     3.13481
      C   14   -0.04542      0.99958     2.03686    0.00898     3.04542
      C   15   -0.13967      0.99952     2.13154    0.00862     3.13967
      C   16    0.19404      0.99933     1.79174    0.01489     2.80596
      O   17   -0.29560      0.99986     3.28357    0.01218     4.29560
      C   18   -0.09357      0.99959     2.08642    0.00756     3.09357
      H   19    0.09743      0.00000     0.40161    0.00096     0.40257
      H   20    0.09170      0.00000     0.40744    0.00086     0.40830
      H   21    0.11265      0.00000     0.38620    0.00115     0.38735
      H   22    0.10073      0.00000     0.39817    0.00110     0.39927
      H   23    0.11742      0.00000     0.38150    0.00107     0.38258
      H   24    0.19949      0.00000     0.29905    0.00146     0.30051
      H   25    0.08245      0.00000     0.41616    0.00139     0.41755
      H   26    0.09157      0.00000     0.40695    0.00148     0.40843
      H   27    0.09244      0.00000     0.40654    0.00102     0.40756
      H   28    0.08789      0.00000     0.41066    0.00145     0.41211
      H   29    0.09844      0.00000     0.39996    0.00160     0.40156
      H   30    0.08948      0.00000     0.40951    0.00101     0.41052
      H   31    0.07223      0.00000     0.42659    0.00118     0.42777
      H   32    0.09656      0.00000     0.40248    0.00097     0.40344
 =======================================================================
   * Total *    0.00000     21.99258    46.77377    0.23364    69.00000

 Normal termination of Gaussian 16 at Fri Dec 11 23:17:23 2020.
