 Gaussian 16, Revision A.03,

 -----------------------------------------------------------
 # opt freq B3LYP/6-31G(d) empiricaldispersion=gd3bj scf=xqc
 -----------------------------------------------------------

 --------------------------------
 CID_122446137_JID_10975_neutraal
 --------------------------------
 Symbolic Z-matrix:
 Charge =  0 Multiplicity = 1

 SCF Done:  E(RB3LYP) =  -2600.61858367     A.U. after   19 cycles
 SCF Done:  E(RB3LYP) =  -2600.64934718     A.U. after   15 cycles
 SCF Done:  E(RB3LYP) =  -2600.65262637     A.U. after   14 cycles
 SCF Done:  E(RB3LYP) =  -2600.65368792     A.U. after   14 cycles
 SCF Done:  E(RB3LYP) =  -2600.65383646     A.U. after   13 cycles
 SCF Done:  E(RB3LYP) =  -2600.65385373     A.U. after   11 cycles
 SCF Done:  E(RB3LYP) =  -2600.65385670     A.U. after    9 cycles
 SCF Done:  E(RB3LYP) =  -2600.65385794     A.U. after    9 cycles
 SCF Done:  E(RB3LYP) =  -2600.65385852     A.U. after    8 cycles
 SCF Done:  E(RB3LYP) =  -2600.65385890     A.U. after    8 cycles
 SCF Done:  E(RB3LYP) =  -2600.65386091     A.U. after   11 cycles
 SCF Done:  E(RB3LYP) =  -2600.65386190     A.U. after   10 cycles
 SCF Done:  E(RB3LYP) =  -2600.65386238     A.U. after   12 cycles
 SCF Done:  E(RB3LYP) =  -2600.65386246     A.U. after   11 cycles
 SCF Done:  E(RB3LYP) =  -2600.65386261     A.U. after    9 cycles
 SCF Done:  E(RB3LYP) =  -2600.65386262     A.U. after    8 cycles
 Optimization completed.
    -- Stationary point found.
 Normal termination of Gaussian 16 at Sat Dec 12 16:42:14 2020.

 --------------------------------------------------------------------
 #N Geom=AllCheck Guess=TCheck SCRF=Check GenChk RB3LYP/6-31G(d) Freq
 --------------------------------------------------------------------

 Structure from the checkpoint file:  "JID_10975.chk"
 --------------------------------
 CID_122446137_JID_10975_neutraal
 --------------------------------
 Charge =  0 Multiplicity = 1

 SCF Done:  E(RB3LYP) =  -2600.65386262     A.U. after    1 cycles

  Exact polarizability: 569.154   7.905 236.675  -1.181   1.515 104.042
 Approx polarizability: 940.399  24.986 456.075  -2.730   6.115 175.061

                      1                      2                      3
                      A                      A                      A
 Frequencies --     12.3792                23.8569                37.9750
 Red. masses --      6.9311                 5.3579                10.1681
 Frc consts  --      0.0006                 0.0018                 0.0086
 IR Inten    --      2.7034                 0.3056                 1.4443

                      4                      5                      6
                      A                      A                      A
 Frequencies --     48.7605                50.6429                72.4616
 Red. masses --      8.0070                 9.7857                10.1370
 Frc consts  --      0.0112                 0.0148                 0.0314
 IR Inten    --      2.3540                 1.0880                 0.0451

                      7                      8                      9
                      A                      A                      A
 Frequencies --    105.7995               109.4205               139.7364
 Red. masses --     17.0375                12.6044                13.1282
 Frc consts  --      0.1124                 0.0889                 0.1510
 IR Inten    --      0.2780                 3.0753                 6.3740

                     10                     11                     12
                      A                      A                      A
 Frequencies --    151.7013               192.3140               194.2048
 Red. masses --      5.0951                 9.5995                 7.3652
 Frc consts  --      0.0691                 0.2092                 0.1637
 IR Inten    --      2.1465                 0.9889                 3.0856

                     13                     14                     15
                      A                      A                      A
 Frequencies --    216.5508               218.4601               249.1017
 Red. masses --      1.1207                 5.6599                 8.8908
 Frc consts  --      0.0310                 0.1591                 0.3250
 IR Inten    --      0.1685                 0.4603                 1.0346

                     16                     17                     18
                      A                      A                      A
 Frequencies --    267.4421               278.3654               314.8635
 Red. masses --      3.8942                 2.8823                 8.1138
 Frc consts  --      0.1641                 0.1316                 0.4739
 IR Inten    --      1.1161                 0.1279                 6.1549

                     19                     20                     21
                      A                      A                      A
 Frequencies --    322.1363               324.2093               363.4764
 Red. masses --      8.7660                 6.4821                 9.7978
 Frc consts  --      0.5360                 0.4014                 0.7627
 IR Inten    --      1.4545                 1.7338                 0.0883

                     22                     23                     24
                      A                      A                      A
 Frequencies --    399.8559               403.3482               424.7166
 Red. masses --     11.5463                 6.0380                11.7238
 Frc consts  --      1.0877                 0.5788                 1.2460
 IR Inten    --      0.6694                 5.1317                 0.2019

                     25                     26                     27
                      A                      A                      A
 Frequencies --    464.9229               466.7831               473.3559
 Red. masses --     12.2176                 9.5684                 3.4536
 Frc consts  --      1.5560                 1.2283                 0.4559
 IR Inten    --      0.1264                 0.1334                 0.6356

                     28                     29                     30
                      A                      A                      A
 Frequencies --    489.3995               502.5496               509.6676
 Red. masses --     21.4153                10.5116                11.3421
 Frc consts  --      3.0221                 1.5641                 1.7359
 IR Inten    --     87.0516                31.7904                 0.0887

                     31                     32                     33
                      A                      A                      A
 Frequencies --    547.6785               588.4046               601.0341
 Red. masses --      7.9482                 5.3390                 5.5386
 Frc consts  --      1.4046                 1.0891                 1.1788
 IR Inten    --      1.0964                 0.5514                 0.4481

                     34                     35                     36
                      A                      A                      A
 Frequencies --    620.0172               653.7721               682.0515
 Red. masses --     11.5050                 4.8452                 7.7209
 Frc consts  --      2.6058                 1.2202                 2.1162
 IR Inten    --      0.8762                 2.2393                 7.0214

                     37                     38                     39
                      A                      A                      A
 Frequencies --    684.0356               690.6076               785.5427
 Red. masses --      7.5828                 4.5970                 4.9956
 Frc consts  --      2.0904                 1.2918                 1.8163
 IR Inten    --     33.1439                 2.4834                 1.8165

                     40                     41                     42
                      A                      A                      A
 Frequencies --    818.9097               868.8455               884.9959
 Red. masses --      9.0444                 1.3765                10.1356
 Frc consts  --      3.5736                 0.6122                 4.6772
 IR Inten    --     76.1897                11.2928                 2.9501

                     43                     44                     45
                      A                      A                      A
 Frequencies --    912.0265               931.9609               947.1369
 Red. masses --      2.3905                 5.6401                 1.7329
 Frc consts  --      1.1715                 2.8863                 0.9159
 IR Inten    --     10.5662                 7.3189                13.7566

                     46                     47                     48
                      A                      A                      A
 Frequencies --    959.7106              1001.8996              1016.3828
 Red. masses --      9.6004                 6.4861                 7.5975
 Frc consts  --      5.2098                 3.8361                 4.6242
 IR Inten    --      6.2434                 0.1192                 7.1209

                     49                     50                     51
                      A                      A                      A
 Frequencies --   1020.2596              1053.9022              1072.9403
 Red. masses --      2.7943                 1.5169                 1.4837
 Frc consts  --      1.7137                 0.9927                 1.0064
 IR Inten    --      0.8395                28.4024                 1.7308

                     52                     53                     54
                      A                      A                      A
 Frequencies --   1167.4490              1221.3975              1225.4760
 Red. masses --      1.0423                 1.2037                 4.8598
 Frc consts  --      0.8370                 1.0580                 4.3001
 IR Inten    --      2.4538                 0.7838                 0.8495

                     55                     56                     57
                      A                      A                      A
 Frequencies --   1235.4464              1280.6122              1319.0283
 Red. masses --      2.3670                 5.2818                 1.2641
 Frc consts  --      2.1286                 5.1035                 1.2958
 IR Inten    --     59.7821                15.6045                 3.1125

                     58                     59                     60
                      A                      A                      A
 Frequencies --   1347.7714              1367.7322              1449.9902
 Red. masses --      1.2355                 3.3885                 1.2464
 Frc consts  --      1.3223                 3.7347                 1.5440
 IR Inten    --     56.8383                99.8299                 1.0112

                     61                     62                     63
                      A                      A                      A
 Frequencies --   1489.6432              1495.6920              1510.2883
 Red. masses --      1.0814                 1.0866                 1.0434
 Frc consts  --      1.4138                 1.4322                 1.4022
 IR Inten    --      9.5812                 3.3396                10.7757

                     64                     65                     66
                      A                      A                      A
 Frequencies --   1510.7679              1526.5644              1574.1615
 Red. masses --      1.3171                 4.4099                 9.5225
 Frc consts  --      1.7712                 6.0549                13.9027
 IR Inten    --    178.8098              1358.0930                53.7574

                     67                     68                     69
                      A                      A                      A
 Frequencies --   1604.6336              1614.2150              2314.4583
 Red. masses --      8.0088                 6.5209                12.6721
 Frc consts  --     12.1498                10.0110                39.9944
 IR Inten    --     12.8301               134.0420                34.3405

                     70                     71                     72
                      A                      A                      A
 Frequencies --   2332.8112              3066.0454              3086.0938
 Red. masses --     12.6739                 1.0355                 1.0600
 Frc consts  --     40.6370                 5.7352                 5.9479
 IR Inten    --    213.9792                13.7001                 4.0737

                     73                     74                     75
                      A                      A                      A
 Frequencies --   3091.5395              3129.5464              3141.0388
 Red. masses --      1.0594                 1.1009                 1.1036
 Frc consts  --      5.9655                 6.3530                 6.4151
 IR Inten    --     22.7332                 4.7761                 8.4528

                     76                     77                     78
                      A                      A                      A
 Frequencies --   3143.0900              3154.3482              3210.1567
 Red. masses --      1.1078                 1.1062                 1.0928
 Frc consts  --      6.4479                 6.4850                 6.6349
 IR Inten    --      0.1794                 3.4048                 1.9328

 - Thermochemistry -
 -------------------
 Temperature   298.150 Kelvin.  Pressure   1.00000 Atm.
 Atom     1 has atomic number  6 and mass  12.00000

 Molecular mass:   351.92911 amu.
 Principal axes and moments of inertia in atomic units:
                           1         2         3
     Eigenvalues --  2767.64458********************
           X            0.99994  -0.01060  -0.00047
           Y            0.01060   0.99994  -0.00156
           Z            0.00048   0.00156   1.00000
 This molecule is an asymmetric top.
 Rotational symmetry number  1.
 Warning -- assumption of classical behavior for rotation
           may cause significant error
 Rotational temperatures (Kelvin)      0.03130     0.00473     0.00412
 Rotational constants (GHZ):           0.65209     0.09855     0.08593
 Zero-point vibrational energy     471212.5 (Joules/Mol)
                                  112.62248 (Kcal/Mol)
 Warning -- explicit consideration of  34 degrees of freedom as
           vibrations may cause significant error
 Vibrational temperatures:     17.81    34.32    54.64    70.16    72.86
          (Kelvin)            104.26   152.22   157.43   201.05   218.26
                              276.70   279.42   311.57   314.32   358.40
                              384.79   400.51   453.02   463.48   466.46
                              522.96   575.30   580.33   611.07   668.92
                              671.60   681.05   704.14   723.06   733.30
                              787.99   846.58   864.75   892.07   940.63
                              981.32   984.17   993.63  1130.22  1178.23
                             1250.07  1273.31  1312.20  1340.88  1362.72
                             1380.81  1441.51  1462.35  1467.93  1516.33
                             1543.72  1679.70  1757.32  1763.19  1777.53
                             1842.52  1897.79  1939.14  1967.86  2086.21
                             2143.26  2151.97  2172.97  2173.66  2196.39
                             2264.87  2308.71  2322.50  3329.99  3356.39
                             4411.36  4440.20  4448.04  4502.72  4519.25
                             4522.21  4538.40  4618.70

 Zero-point correction=                           0.179475 (Hartree/Particle)
 Thermal correction to Energy=                    0.199560
 Thermal correction to Enthalpy=                  0.200504
 Thermal correction to Gibbs Free Energy=         0.127193
 Sum of electronic and zero-point Energies=          -2600.474387
 Sum of electronic and thermal Energies=             -2600.454303
 Sum of electronic and thermal Enthalpies=           -2600.453358
 Sum of electronic and thermal Free Energies=        -2600.526669

                     E (Thermal)             CV                S
                      KCal/Mol        Cal/Mol-Kelvin    Cal/Mol-Kelvin
 Total                  125.226             72.129            154.296
 Electronic               0.000              0.000              0.000
 Translational            0.889              2.981             43.469
 Rotational               0.889              2.981             35.319
 Vibrational            123.448             66.168             75.508
 Vibration     1          0.593              1.987              7.587
 Vibration     2          0.593              1.985              6.284
 Vibration     3          0.594              1.982              5.362
 Vibration     4          0.595              1.978              4.867
 Vibration     5          0.595              1.977              4.792
 Vibration     6          0.599              1.967              4.085
 Vibration     7          0.605              1.945              3.345
 Vibration     8          0.606              1.942              3.279
 Vibration     9          0.615              1.914              2.807
 Vibration    10          0.619              1.901              2.651
 Vibration    11          0.634              1.851              2.205
 Vibration    12          0.635              1.848              2.187
 Vibration    13          0.645              1.816              1.988
 Vibration    14          0.646              1.813              1.972
 Vibration    15          0.662              1.764              1.737
 Vibration    16          0.673              1.733              1.613
 Vibration    17          0.679              1.714              1.544
 Vibration    18          0.702              1.645              1.337
 Vibration    19          0.707              1.631              1.299
 Vibration    20          0.709              1.627              1.289
 Vibration    21          0.737              1.547              1.107
 Vibration    22          0.766              1.470              0.963
 Vibration    23          0.769              1.463              0.950
 Vibration    24          0.787              1.416              0.876
 Vibration    25          0.822              1.328              0.752
 Vibration    26          0.824              1.324              0.747
 Vibration    27          0.830              1.309              0.728
 Vibration    28          0.845              1.274              0.685
 Vibration    29          0.858              1.244              0.652
 Vibration    30          0.865              1.229              0.634
 Vibration    31          0.903              1.145              0.549
 Vibration    32          0.946              1.057              0.470
 Vibration    33          0.959              1.030              0.448
 Vibration    34          0.980              0.990              0.416

 Optimization completed.
    -- Stationary point found.
 Normal termination of Gaussian 16 at Sat Dec 12 16:54:33 2020.

 ----------------------------------------------------------------------
 # B3LYP/6-311++G(d,p) empiricaldispersion=gd3bj scf=xqc pop=npa geom=c
 heck
 ----------------------------------------------------------------------

 ----------------------------------------
 CID_122446137_JID_10975_Energie_neutraal
 ----------------------------------------
 Structure from the checkpoint file:  "JID_10975.chk"
 Charge =  0 Multiplicity = 1

 SCF Done:  E(RB3LYP) =  -2600.93904690     A.U. after   19 cycles
 Normal termination of Gaussian 16 at Sat Dec 12 17:00:45 2020.

 ----------------------------------------------------------------------
 # B3LYP/6-311++G(d,p) empiricaldispersion=gd3bj scf=xqc pop=npa geom=c
 heck
 ----------------------------------------------------------------------

 --------------------------------------
 CID_122446137_JID_10975_Energie_kation
 --------------------------------------
 Structure from the checkpoint file:  "JID_10975.chk"
 Charge =  1 Multiplicity = 2

 SCF Done:  E(UB3LYP) =  -2600.68254841     A.U. after   26 cycles
 Normal termination of Gaussian 16 at Sat Dec 12 17:11:56 2020.
 Gaussian 16:  ES64L-G16RevA.03 25-Dec-2016

 ----------------------------------------------------------------------
 # B3LYP/6-311++G(d,p) empiricaldispersion=gd3bj scf=xqc pop=npa geom=c
 heck
 ----------------------------------------------------------------------

 -------------------------------------
 CID_122446137_JID_10975_Energie_anion
 -------------------------------------
 Structure from the checkpoint file:  "JID_10975.chk"
 Charge = -1 Multiplicity = 2

                         Standard orientation:
 ---------------------------------------------------------------------
 Center     Atomic      Atomic             Coordinates (Angstroms)
 Number     Number       Type             X           Y           Z
 ---------------------------------------------------------------------
      1          6           0        4.089346   -2.573075   -0.042682
      2          6           0        3.119593   -1.426577   -0.018649
      3          6           0        1.759484   -1.580058   -0.013804
      4          6           0        0.997655   -0.372763    0.005592
      5          6           0       -0.364177   -0.244917    0.016424
      6         16           0       -1.454140   -1.629103    0.021557
      7          6           0       -2.951631   -0.681490   -0.030889
      8          6           0       -2.827644    0.661816   -0.015676
      9         16           0       -1.178718    1.312949    0.041792
     10         16           0       -4.087242    1.905053   -0.016757
     11          6           0       -5.569968    0.887261   -0.367015
     12          6           0       -5.635828   -0.389707    0.466899
     13         16           0       -4.430187   -1.651937   -0.083011
     14         16           0        2.094082    1.023313    0.018391
     15          6           0        3.507742   -0.032243   -0.000936
     16          6           0        4.778573    0.525679    0.001681
     17          6           0        4.928455    1.941381    0.017182
     18          7           0        5.007834    3.104248    0.030275
     19          6           0        5.975718   -0.242220   -0.008960
     20          7           0        6.973679   -0.844293   -0.017251
     21          1           0        3.544208   -3.521021   -0.056413
     22          1           0        4.746283   -2.566097    0.832589
     23          1           0        4.738105   -2.535992   -0.923297
     24          1           0        1.281628   -2.554705   -0.027274
     25          1           0       -5.618371    0.659260   -1.433694
     26          1           0       -6.405666    1.546813   -0.112581
     27          1           0       -5.492548   -0.178375    1.528856
     28          1           0       -6.608842   -0.872477    0.334075
 ---------------------------------------------------------------------

 SCF Done:  E(UB3LYP) =  -2601.00486021     A.U. after   25 cycles

 The electronic state is 2-A.
 Alpha  occ. eigenvalues --  -88.80172 -88.80148 -88.78982 -88.78900 -88.75670
 Alpha  occ. eigenvalues --  -14.17679 -14.17657 -10.16432 -10.16386 -10.16041
 Alpha  occ. eigenvalues --  -10.15894 -10.12326 -10.09925 -10.09844 -10.08592
 Alpha  occ. eigenvalues --  -10.08501 -10.08239 -10.06895 -10.06291 -10.05995
 Alpha  occ. eigenvalues --   -7.88767  -7.88740  -7.87553  -7.87480  -7.84289
 Alpha  occ. eigenvalues --   -5.85180  -5.85159  -5.84791  -5.84758  -5.84116
 Alpha  occ. eigenvalues --   -5.84087  -5.83954  -5.83881  -5.83541  -5.83463
 Alpha  occ. eigenvalues --   -5.82977  -5.82907  -5.80634  -5.80267  -5.79756
 Alpha  occ. eigenvalues --   -0.82208  -0.78915  -0.77917  -0.77258  -0.76164
 Alpha  occ. eigenvalues --   -0.73066  -0.70608  -0.67568  -0.66630  -0.65607
 Alpha  occ. eigenvalues --   -0.61100  -0.58854  -0.56556  -0.56284  -0.51526
 Alpha  occ. eigenvalues --   -0.46794  -0.45717  -0.44331  -0.41939  -0.41067
 Alpha  occ. eigenvalues --   -0.40278  -0.39419  -0.36356  -0.35087  -0.33148
 Alpha  occ. eigenvalues --   -0.32955  -0.32350  -0.31905  -0.31411  -0.30100
 Alpha  occ. eigenvalues --   -0.29128  -0.28029  -0.27483  -0.26822  -0.26396
 Alpha  occ. eigenvalues --   -0.26215  -0.24875  -0.24556  -0.23707  -0.22762
 Alpha  occ. eigenvalues --   -0.22554  -0.22274  -0.21503  -0.21052  -0.20142
 Alpha  occ. eigenvalues --   -0.17666  -0.16719  -0.14497  -0.13156  -0.08111
 Alpha  occ. eigenvalues --   -0.01628
 Alpha virt. eigenvalues --    0.03321   0.05255   0.05363   0.06435   0.06862
 Alpha virt. eigenvalues --    0.07877   0.08141   0.08268   0.08765   0.09000
 Alpha virt. eigenvalues --    0.10073   0.10915   0.11216   0.11517   0.11736

  Beta  occ. eigenvalues --  -88.80172 -88.80149 -88.78961 -88.78875 -88.75677
  Beta  occ. eigenvalues --  -14.17527 -14.17519 -10.16433 -10.16387 -10.16046
  Beta  occ. eigenvalues --  -10.15888 -10.11733 -10.10006 -10.09557 -10.08539
  Beta  occ. eigenvalues --  -10.08422 -10.08272 -10.06898 -10.06291 -10.05654
  Beta  occ. eigenvalues --   -7.88767  -7.88740  -7.87535  -7.87458  -7.84295
  Beta  occ. eigenvalues --   -5.85181  -5.85160  -5.84791  -5.84759  -5.84117
  Beta  occ. eigenvalues --   -5.84088  -5.83951  -5.83875  -5.83542  -5.83462
  Beta  occ. eigenvalues --   -5.82890  -5.82809  -5.80642  -5.80276  -5.79766
  Beta  occ. eigenvalues --   -0.82088  -0.78630  -0.77688  -0.77051  -0.75907
  Beta  occ. eigenvalues --   -0.73046  -0.70211  -0.67184  -0.66517  -0.65562
  Beta  occ. eigenvalues --   -0.60829  -0.58570  -0.56476  -0.56184  -0.50881
  Beta  occ. eigenvalues --   -0.46628  -0.45587  -0.44137  -0.41753  -0.41037
  Beta  occ. eigenvalues --   -0.40158  -0.39344  -0.36248  -0.35027  -0.32980
  Beta  occ. eigenvalues --   -0.32607  -0.32100  -0.31619  -0.31207  -0.29900
  Beta  occ. eigenvalues --   -0.28957  -0.27431  -0.27345  -0.26673  -0.26301
  Beta  occ. eigenvalues --   -0.25592  -0.24703  -0.24332  -0.23498  -0.22629
  Beta  occ. eigenvalues --   -0.22351  -0.21387  -0.20961  -0.20880  -0.20057
  Beta  occ. eigenvalues --   -0.17334  -0.15855  -0.13762  -0.12395  -0.06806
  Beta virt. eigenvalues --    0.03324   0.04288   0.05280   0.05528   0.06507
  Beta virt. eigenvalues --    0.06868   0.07884   0.08154   0.08275   0.08781
  Beta virt. eigenvalues --    0.09017   0.10094   0.11246   0.11518   0.11751

 Mulliken charges and spin densities:
               1          2
     1  C   -0.675275   0.021829
     2  C    1.093127  -0.014652
     3  C    1.158377   0.322446
     4  C   -0.249516  -0.096012
     5  C    0.364139   0.298206
     6  S   -0.831200   0.057930
     7  C    0.893843   0.005993
     8  C    0.777413   0.018879
     9  S   -0.703438   0.055888
    10  S   -0.466266  -0.000209
    11  C   -0.344992  -0.000782
    12  C   -0.347006  -0.000817
    13  S   -0.475228   0.000074
    14  S   -1.270395  -0.024337
    15  C    0.406318   0.203047
    16  C    1.237934   0.127470
    17  C   -0.968419  -0.041787
    18  N   -0.289309   0.077314
    19  C   -1.439468  -0.057888
    20  N   -0.271400   0.072187
    21  H    0.117073  -0.000646
    22  H    0.181341  -0.000490
    23  H    0.181099  -0.000484
    24  H    0.111984  -0.025019
    25  H    0.222161   0.000723
    26  H    0.181685  -0.000023
    27  H    0.220889   0.001166
    28  H    0.184528  -0.000005
 Sum of Mulliken charges =  -1.00000   1.00000

 Dipole moment (field-independent basis, Debye):
    X=            -20.5274    Y=             -3.5965    Z=              0.0784  Tot=             20.8402
 Quadrupole moment (field-independent basis, Debye-Ang):
   XX=           -262.7118   YY=           -184.7951   ZZ=           -161.4990
   XY=            -19.2252   XZ=             -0.8805   YZ=             -0.4731

 Summary of Natural Population Analysis:

                                       Natural Population
                Natural  -----------------------------------------------
    Atom  No    Charge         Core      Valence    Rydberg      Total
 -----------------------------------------------------------------------
      C    1   -0.29294      0.99963     2.28831    0.00500     3.29294
      C    2   -0.05139      0.99949     2.04188    0.01002     3.05139
      C    3    0.00090      0.99945     1.99353    0.00612     2.99910
      C    4   -0.17941      0.99941     2.16502    0.01499     3.17941
      C    5   -0.06061      0.99926     2.04816    0.01319     3.06061
      S    6    0.21079      4.99938     2.76862    0.02121     7.78921
      C    7   -0.21413      0.99923     2.20089    0.01401     3.21413
      C    8   -0.21327      0.99923     2.20004    0.01400     3.21327
      S    9    0.21891      4.99938     2.76093    0.02078     7.78109
      S   10    0.14447      4.99951     2.83424    0.02179     7.85553
      C   11   -0.25648      0.99958     2.24697    0.00993     3.25648
      C   12   -0.25741      0.99958     2.24769    0.01014     3.25741
      S   13    0.14138      4.99951     2.83726    0.02186     7.85862
      S   14    0.18067      4.99946     2.80127    0.01859     7.81933
      C   15    0.03595      0.99943     1.95256    0.01206     2.96405
      C   16   -0.17445      0.99927     2.16318    0.01200     3.17445
      C   17    0.14494      0.99964     1.83726    0.01816     2.85506
      N   18   -0.17726      0.99979     2.66614    0.01133     3.67726
      C   19    0.15036      0.99964     1.83267    0.01732     2.84964
      N   20   -0.18739      0.99979     2.67663    0.01098     3.68739
      H   21    0.09642      0.00000     0.40242    0.00116     0.40358
      H   22    0.10777      0.00000     0.39123    0.00100     0.39223
      H   23    0.10771      0.00000     0.39129    0.00100     0.39229
      H   24    0.09488      0.00000     0.40411    0.00101     0.40512
      H   25    0.10634      0.00000     0.39173    0.00192     0.39366
      H   26    0.10783      0.00000     0.39064    0.00153     0.39217
      H   27    0.10753      0.00000     0.39053    0.00194     0.39247
      H   28    0.10806      0.00000     0.39042    0.00152     0.39194
 =======================================================================
   * Total *    0.00016     39.98966    49.71561    0.29456    89.99984

 Normal termination of Gaussian 16 at Sat Dec 12 17:22:53 2020.
