 Gaussian 16, Revision A.03,

 -----------------------------------------------------------
 # opt freq B3LYP/6-31G(d) empiricaldispersion=gd3bj scf=xqc
 -----------------------------------------------------------

 -------------------------------
 CID_66201462_JID_10780_neutraal
 -------------------------------
 Symbolic Z-matrix:
 Charge =  0 Multiplicity = 1

 SCF Done:  E(RB3LYP) =  -934.873288151     A.U. after   15 cycles
 SCF Done:  E(RB3LYP) =  -934.888288019     A.U. after   12 cycles
 SCF Done:  E(RB3LYP) =  -934.890574248     A.U. after   13 cycles
 SCF Done:  E(RB3LYP) =  -934.891787798     A.U. after   12 cycles
 SCF Done:  E(RB3LYP) =  -934.892254478     A.U. after   12 cycles
 SCF Done:  E(RB3LYP) =  -934.892581857     A.U. after   11 cycles
 SCF Done:  E(RB3LYP) =  -934.892724553     A.U. after   11 cycles
 SCF Done:  E(RB3LYP) =  -934.892780874     A.U. after   11 cycles
 SCF Done:  E(RB3LYP) =  -934.892856999     A.U. after   11 cycles
 SCF Done:  E(RB3LYP) =  -934.892919995     A.U. after   11 cycles
 SCF Done:  E(RB3LYP) =  -934.892952870     A.U. after    8 cycles
 SCF Done:  E(RB3LYP) =  -934.892953555     A.U. after    9 cycles
 SCF Done:  E(RB3LYP) =  -934.892954068     A.U. after    9 cycles
 SCF Done:  E(RB3LYP) =  -934.892954191     A.U. after    8 cycles
 SCF Done:  E(RB3LYP) =  -934.892954246     A.U. after    7 cycles
 Optimization completed.
    -- Stationary point found.
 Normal termination of Gaussian 16 at Sat Dec 12 16:39:55 2020.

 --------------------------------------------------------------------
 #N Geom=AllCheck Guess=TCheck SCRF=Check GenChk RB3LYP/6-31G(d) Freq
 --------------------------------------------------------------------

 Structure from the checkpoint file:  "JID_10780.chk"
 -------------------------------
 CID_66201462_JID_10780_neutraal
 -------------------------------
 Charge =  0 Multiplicity = 1

 SCF Done:  E(RB3LYP) =  -934.892954246     A.U. after    1 cycles

  Exact polarizability: 213.765 -24.479 165.465  19.334  18.893 144.122
 Approx polarizability: 276.826 -44.274 273.193  36.755  48.762 239.395

                      1                      2                      3
                      A                      A                      A
 Frequencies --      8.8862                33.3656                39.7195
 Red. masses --      5.4098                 4.8269                 3.5173
 Frc consts  --      0.0003                 0.0032                 0.0033
 IR Inten    --      0.8643                 1.2202                 0.9346

                      4                      5                      6
                      A                      A                      A
 Frequencies --     54.4302                99.1770               131.2624
 Red. masses --      5.2069                 5.4704                 6.1898
 Frc consts  --      0.0091                 0.0317                 0.0628
 IR Inten    --      0.4585                 1.5681                 1.1526

                      7                      8                      9
                      A                      A                      A
 Frequencies --    146.6003               170.3790               221.2095
 Red. masses --      3.4288                 4.8429                 2.5107
 Frc consts  --      0.0434                 0.0828                 0.0724
 IR Inten    --      0.9860                 6.4289                 3.3782

                     10                     11                     12
                      A                      A                      A
 Frequencies --    228.4156               255.0367               266.0342
 Red. masses --      4.9605                 2.9640                 3.9015
 Frc consts  --      0.1525                 0.1136                 0.1627
 IR Inten    --      1.4523                 1.8662                 3.4009

                     13                     14                     15
                      A                      A                      A
 Frequencies --    293.6959               314.0053               338.0955
 Red. masses --      5.0915                 5.3295                 2.1015
 Frc consts  --      0.2588                 0.3096                 0.1415
 IR Inten    --      5.3570                 5.0494                 3.7328

                     16                     17                     18
                      A                      A                      A
 Frequencies --    353.2108               374.2642               383.8037
 Red. masses --      2.5268                 5.9063                 1.1086
 Frc consts  --      0.1857                 0.4874                 0.0962
 IR Inten    --      1.7426                12.1020               111.7577

                     19                     20                     21
                      A                      A                      A
 Frequencies --    395.3072               431.8989               464.6311
 Red. masses --      3.3703                 4.8748                 3.0981
 Frc consts  --      0.3103                 0.5358                 0.3941
 IR Inten    --      5.6931                10.1355                 0.8811

                     22                     23                     24
                      A                      A                      A
 Frequencies --    465.3496               487.7033               510.2487
 Red. masses --      2.5849                 2.6299                 3.2755
 Frc consts  --      0.3298                 0.3686                 0.5024
 IR Inten    --      3.2942                 7.7614                 7.3126

                     25                     26                     27
                      A                      A                      A
 Frequencies --    536.1521               578.8072               604.4256
 Red. masses --      5.0760                 4.0449                 2.4730
 Frc consts  --      0.8597                 0.7984                 0.5323
 IR Inten    --      5.6770                 2.4465                 2.2970

                     28                     29                     30
                      A                      A                      A
 Frequencies --    613.8080               647.8397               659.5417
 Red. masses --      3.4059                 4.4321                 3.7314
 Frc consts  --      0.7560                 1.0960                 0.9563
 IR Inten    --     33.3189                 4.7402                 9.5148

                     31                     32                     33
                      A                      A                      A
 Frequencies --    687.7668               718.9701               745.3529
 Red. masses --      4.4282                 3.0584                 2.4198
 Frc consts  --      1.2341                 0.9315                 0.7921
 IR Inten    --      2.6168                 3.2501                23.9054

                     34                     35                     36
                      A                      A                      A
 Frequencies --    766.4512               788.9265               809.8322
 Red. masses --      7.1906                 2.4013                 2.2345
 Frc consts  --      2.4888                 0.8806                 0.8634
 IR Inten    --      1.4012                12.2881               139.9203

                     37                     38                     39
                      A                      A                      A
 Frequencies --    832.9810               837.0718               849.7697
 Red. masses --      1.1630                 1.6221                 2.8080
 Frc consts  --      0.4754                 0.6697                 1.1947
 IR Inten    --    119.2779                 0.0376                61.0990

                     40                     41                     42
                      A                      A                      A
 Frequencies --    859.4448               874.5321               888.9056
 Red. masses --      1.3539                 2.0535                 1.6583
 Frc consts  --      0.5892                 0.9253                 0.7720
 IR Inten    --      1.6048                 9.2909                 6.1078

                     43                     44                     45
                      A                      A                      A
 Frequencies --    896.5947               930.2903               932.7481
 Red. masses --      2.5590                 1.4437                 1.7481
 Frc consts  --      1.2120                 0.7361                 0.8961
 IR Inten    --      3.9255                 9.3421                 0.4555

                     46                     47                     48
                      A                      A                      A
 Frequencies --    979.4468               998.0773              1003.0021
 Red. masses --      3.6608                 2.8756                 3.2876
 Frc consts  --      2.0691                 1.6877                 1.9487
 IR Inten    --     13.7535                14.7145                26.3998

                     49                     50                     51
                      A                      A                      A
 Frequencies --   1022.0300              1034.9616              1046.9784
 Red. masses --      2.6631                 1.5895                 2.4034
 Frc consts  --      1.6390                 1.0032                 1.5522
 IR Inten    --      3.3189                10.2886                15.1504

                     52                     53                     54
                      A                      A                      A
 Frequencies --   1085.0815              1129.1029              1135.3225
 Red. masses --      2.3547                 1.9673                 1.2469
 Frc consts  --      1.6335                 1.4777                 0.9470
 IR Inten    --     11.9845                24.4327                 3.9242

                     55                     56                     57
                      A                      A                      A
 Frequencies --   1146.6773              1158.1862              1172.8006
 Red. masses --      4.1186                 2.0032                 2.3917
 Frc consts  --      3.1907                 1.5832                 1.9382
 IR Inten    --     30.8480                31.9174                 7.0903

                     58                     59                     60
                      A                      A                      A
 Frequencies --   1179.6228              1195.4590              1205.8718
 Red. masses --      1.6695                 1.4542                 2.1206
 Frc consts  --      1.3687                 1.2245                 1.8169
 IR Inten    --     93.8826               107.6775                23.7988

                     61                     62                     63
                      A                      A                      A
 Frequencies --   1217.4893              1229.5931              1243.1165
 Red. masses --      1.2135                 1.9669                 1.7466
 Frc consts  --      1.0598                 1.7521                 1.5903
 IR Inten    --     16.4593                20.3680                38.2958

                     64                     65                     66
                      A                      A                      A
 Frequencies --   1261.9656              1271.8670              1280.7945
 Red. masses --      1.9662                 1.3290                 1.6083
 Frc consts  --      1.8449                 1.2666                 1.5545
 IR Inten    --     14.6812                 2.4337                 2.7202

                     67                     68                     69
                      A                      A                      A
 Frequencies --   1292.7255              1300.0368              1338.7766
 Red. masses --      1.2866                 1.5045                 1.5497
 Frc consts  --      1.2668                 1.4982                 1.6365
 IR Inten    --     14.4025                 2.4024                11.2254

                     70                     71                     72
                      A                      A                      A
 Frequencies --   1348.1643              1354.7164              1369.6535
 Red. masses --      4.9288                 1.3002                 1.2711
 Frc consts  --      5.2781                 1.4059                 1.4049
 IR Inten    --    453.9151                 2.6405                 0.6861

                     73                     74                     75
                      A                      A                      A
 Frequencies --   1376.4081              1396.1331              1398.1920
 Red. masses --      2.9215                 1.2625                 1.4911
 Frc consts  --      3.2611                 1.4499                 1.7175
 IR Inten    --     79.4839                 7.4063                 5.4829

                     76                     77                     78
                      A                      A                      A
 Frequencies --   1418.5261              1430.9174              1437.2013
 Red. masses --      1.2541                 1.5995                 2.2119
 Frc consts  --      1.4868                 1.9296                 2.6918
 IR Inten    --     13.8569                28.7147               151.1299

                     79                     80                     81
                      A                      A                      A
 Frequencies --   1454.3196              1478.7831              1493.3727
 Red. masses --      1.9913                 2.6990                 1.1044
 Frc consts  --      2.4815                 3.4775                 1.4511
 IR Inten    --    283.6036               274.9228                10.7172

                     82                     83                     84
                      A                      A                      A
 Frequencies --   1503.6876              1504.8261              1509.5952
 Red. masses --      2.9483                 1.1621                 1.1270
 Frc consts  --      3.9277                 1.5505                 1.5132
 IR Inten    --     88.9773                10.9281                24.7844

                     85                     86                     87
                      A                      A                      A
 Frequencies --   1514.2015              1514.4327              1530.1886
 Red. masses --      1.1634                 1.1019                 1.0959
 Frc consts  --      1.5716                 1.4890                 1.5119
 IR Inten    --      2.0602                 2.8882                 2.0815

                     88                     89                     90
                      A                      A                      A
 Frequencies --   1548.5989              1562.5080              1650.8389
 Red. masses --      1.1984                 2.4774                 4.3673
 Frc consts  --      1.6933                 3.5636                 7.0124
 IR Inten    --     68.8965                90.4390               288.0948

                     91                     92                     93
                      A                      A                      A
 Frequencies --   1661.3864              1709.4514              2996.9628
 Red. masses --      4.9606                 4.9679                 1.0695
 Frc consts  --      8.0672                 8.5533                 5.6595
 IR Inten    --     63.7407               289.5043                47.5312

                     94                     95                     96
                      A                      A                      A
 Frequencies --   3007.7838              3032.5012              3053.3815
 Red. masses --      1.0720                 1.0620                 1.0598
 Frc consts  --      5.7137                 5.7543                 5.8214
 IR Inten    --     65.3297                30.5148                33.9858

                     97                     98                     99
                      A                      A                      A
 Frequencies --   3061.0472              3079.5262              3082.3240
 Red. masses --      1.0645                 1.0873                 1.0675
 Frc consts  --      5.8769                 6.0751                 5.9753
 IR Inten    --     34.1976                30.8284                22.4711

                    100                    101                    102
                      A                      A                      A
 Frequencies --   3085.3467              3094.6645              3097.8628
 Red. masses --      1.1035                 1.1015                 1.0877
 Frc consts  --      6.1893                 6.2153                 6.1499
 IR Inten    --     69.8431                47.6123                49.2350

                    103                    104                    105
                      A                      A                      A
 Frequencies --   3103.3028              3132.2623              3137.4532
 Red. masses --      1.0947                 1.1057                 1.1015
 Frc consts  --      6.2117                 6.3916                 6.3884
 IR Inten    --     46.2365                12.6857                32.8965

                    106                    107                    108
                      A                      A                      A
 Frequencies --   3180.2552              3229.1137              3235.1557
 Red. masses --      1.0898                 1.0694                 1.0894
 Frc consts  --      6.4943                 6.5700                 6.7179
 IR Inten    --     14.6993               441.4887                33.0162

                    109                    110                    111
                      A                      A                      A
 Frequencies --   3237.2045              3456.8210              3750.6470
 Red. masses --      1.0913                 1.0735                 1.0659
 Frc consts  --      6.7383                 7.5581                 8.8346
 IR Inten    --      7.0684                 3.8815                55.0199

 - Thermochemistry -
 -------------------
 Temperature   298.150 Kelvin.  Pressure   1.00000 Atm.
 Atom     1 has atomic number  6 and mass  12.00000

 Molecular mass:   277.14264 amu.
 Principal axes and moments of inertia in atomic units:
                           1         2         3
     Eigenvalues --  3038.85538********************
           X            1.00000   0.00158  -0.00237
           Y           -0.00156   0.99994   0.01052
           Z            0.00239  -0.01052   0.99994
 This molecule is an asymmetric top.
 Rotational symmetry number  1.
 Warning -- assumption of classical behavior for rotation
           may cause significant error
 Rotational temperatures (Kelvin)      0.02850     0.00849     0.00760
 Rotational constants (GHZ):           0.59389     0.17686     0.15830
 Zero-point vibrational energy     865352.5 (Joules/Mol)
                                  206.82422 (Kcal/Mol)
 Warning -- explicit consideration of  28 degrees of freedom as
           vibrations may cause significant error
 Vibrational temperatures:     12.79    48.01    57.15    78.31   142.69
          (Kelvin)            188.86   210.93   245.14   318.27   328.64
                              366.94   382.76   422.56   451.78   486.44
                              508.19   538.48   552.21   568.76   621.41
                              668.50   669.53   701.70   734.13   771.40
                              832.77   869.63   883.13   932.10   948.93
                              989.54  1034.44  1072.40  1102.75  1135.09
                             1165.17  1198.47  1204.36  1222.63  1236.55
                             1258.26  1278.94  1290.00  1338.48  1342.02
                             1409.21  1436.01  1443.10  1470.47  1489.08
                             1506.37  1561.19  1624.53  1633.48  1649.81
                             1666.37  1687.40  1697.21  1720.00  1734.98
                             1751.70  1769.11  1788.57  1815.69  1829.93
                             1842.78  1859.94  1870.46  1926.20  1939.71
                             1949.13  1970.63  1980.34  2008.72  2011.69
                             2040.94  2058.77  2067.81  2092.44  2127.64
                             2148.63  2163.47  2165.11  2171.97  2178.60
                             2178.93  2201.60  2228.09  2248.10  2375.19
                             2390.36  2459.52  4311.96  4327.53  4363.09
                             4393.13  4404.16  4430.75  4434.78  4439.13
                             4452.53  4457.13  4464.96  4506.63  4514.10
                             4575.68  4645.97  4654.67  4657.62  4973.59
                             5396.34

 Zero-point correction=                           0.329595 (Hartree/Particle)
 Thermal correction to Energy=                    0.347013
 Thermal correction to Enthalpy=                  0.347957
 Thermal correction to Gibbs Free Energy=         0.282144
 Sum of electronic and zero-point Energies=           -934.563359
 Sum of electronic and thermal Energies=              -934.545942
 Sum of electronic and thermal Enthalpies=            -934.544997
 Sum of electronic and thermal Free Energies=         -934.610810

                     E (Thermal)             CV                S
                      KCal/Mol        Cal/Mol-Kelvin    Cal/Mol-Kelvin
 Total                  217.754             69.205            138.515
 Electronic               0.000              0.000              0.000
 Translational            0.889              2.981             42.757
 Rotational               0.889              2.981             34.224
 Vibrational            215.976             63.243             61.535
 Vibration     1          0.593              1.987              8.246
 Vibration     2          0.594              1.983              5.619
 Vibration     3          0.594              1.981              5.273
 Vibration     4          0.596              1.976              4.650
 Vibration     5          0.604              1.950              3.470
 Vibration     6          0.612              1.922              2.927
 Vibration     7          0.617              1.906              2.716
 Vibration     8          0.625              1.879              2.431
 Vibration     9          0.648              1.809              1.949
 Vibration    10          0.651              1.798              1.891
 Vibration    11          0.665              1.754              1.696
 Vibration    12          0.672              1.735              1.622
 Vibration    13          0.688              1.685              1.453
 Vibration    14          0.702              1.647              1.341
 Vibration    15          0.718              1.599              1.221
 Vibration    16          0.729              1.569              1.152
 Vibration    17          0.745              1.525              1.062
 Vibration    18          0.753              1.505              1.024
 Vibration    19          0.762              1.480              0.980
 Vibration    20          0.793              1.401              0.852
 Vibration    21          0.822              1.329              0.753
 Vibration    22          0.823              1.327              0.751
 Vibration    23          0.844              1.277              0.690
 Vibration    24          0.865              1.227              0.633
 Vibration    25          0.891              1.170              0.574
 Vibration    26          0.935              1.077              0.488
 Vibration    27          0.963              1.022              0.442
 Vibration    28          0.973              1.003              0.427

                           ! Non-Optimized Parameters !
 Normal termination of Gaussian 16 at Sat Dec 12 16:59:23 2020.

 ----------------------------------------------------------------------
 # B3LYP/6-311++G(d,p) empiricaldispersion=gd3bj scf=xqc pop=npa geom=c
 heck
 ----------------------------------------------------------------------

 ---------------------------------------
 CID_66201462_JID_10780_Energie_neutraal
 ---------------------------------------
 Structure from the checkpoint file:  "JID_10780.chk"
 Charge =  0 Multiplicity = 1

 SCF Done:  E(RB3LYP) =  -935.166121979     A.U. after   17 cycles
 Normal termination of Gaussian 16 at Sat Dec 12 17:09:32 2020.

 ----------------------------------------------------------------------
 # B3LYP/6-311++G(d,p) empiricaldispersion=gd3bj scf=xqc pop=npa geom=c
 heck
 ----------------------------------------------------------------------

 -------------------------------------
 CID_66201462_JID_10780_Energie_kation
 -------------------------------------
 Structure from the checkpoint file:  "JID_10780.chk"
 Charge =  1 Multiplicity = 2

 SCF Done:  E(UB3LYP) =  -934.896945371     A.U. after   27 cycles
 Normal termination of Gaussian 16 at Sat Dec 12 17:32:32 2020.
 Gaussian 16:  ES64L-G16RevA.03 25-Dec-2016

 ----------------------------------------------------------------------
 # B3LYP/6-311++G(d,p) empiricaldispersion=gd3bj scf=xqc pop=npa geom=c
 heck
 ----------------------------------------------------------------------

 ------------------------------------
 CID_66201462_JID_10780_Energie_anion
 ------------------------------------
 Structure from the checkpoint file:  "JID_10780.chk"
 Charge = -1 Multiplicity = 2

                         Standard orientation:
 ---------------------------------------------------------------------
 Center     Atomic      Atomic             Coordinates (Angstroms)
 Number     Number       Type             X           Y           Z
 ---------------------------------------------------------------------
      1          6           0       -2.705801   -1.210654    1.595344
      2          6           0       -2.950350    0.280365    1.286518
      3          7           0       -3.338584    0.547683   -0.100772
      4          6           0       -4.401139   -0.349942   -0.549770
      5          6           0       -4.090478   -1.830980   -0.287454
      6          7           0       -3.773248   -2.096918    1.119841
      7          6           0       -2.314295    0.866442   -1.059753
      8          6           0       -1.436474    2.110285   -0.747633
      9          7           0       -0.226305    1.299919   -0.965333
     10          6           0       -0.975868    0.047809   -1.198093
     11          6           0        0.916845    1.523522   -0.252850
     12          8           0        1.016962    2.589157    0.395005
     13          6           0        1.992431    0.516724   -0.255285
     14          6           0        3.031134    0.629303    0.715521
     15          6           0        4.039253   -0.337595    0.779725
     16          6           0        4.057327   -1.387091   -0.131421
     17          6           0        3.072192   -1.488608   -1.129483
     18          6           0        2.062346   -0.542576   -1.175632
     19          8           0        5.069919   -2.291836   -0.023390
     20          8           0        3.082560    1.641572    1.592126
     21          1           0       -1.770513   -1.547876    1.132655
     22          1           0       -2.591314   -1.349714    2.676751
     23          1           0       -2.065144    0.872431    1.540399
     24          1           0       -3.766519    0.637625    1.933538
     25          1           0       -5.320810   -0.087668   -0.002251
     26          1           0       -4.594559   -0.166015   -1.613052
     27          1           0       -3.226517   -2.142601   -0.891251
     28          1           0       -4.937820   -2.461600   -0.582537
     29          1           0       -4.611926   -1.929224    1.677262
     30          1           0       -2.805184    0.957426   -2.032013
     31          1           0       -1.536991    2.950783   -1.441018
     32          1           0       -1.506049    2.491093    0.274733
     33          1           0       -0.793271   -0.710366   -0.433281
     34          1           0       -0.812042   -0.395586   -2.186375
     35          1           0        4.815878   -0.248657    1.530035
     36          1           0        3.109555   -2.294132   -1.858753
     37          1           0        1.322939   -0.610880   -1.964158
     38          1           0        4.972204   -2.957549   -0.721796
     39          1           0        2.346782    2.264552    1.336629
 ---------------------------------------------------------------------

 SCF Done:  E(UB3LYP) =  -935.164267393     A.U. after   33 cycles
 SCF Done:  E(UB3LYP) =  -935.164267394     a.u. after    2 cycles

 The electronic state is 2-A.
 Alpha  occ. eigenvalues --  -19.05877 -19.03205 -18.98792 -14.23513 -14.22265
 Alpha  occ. eigenvalues --  -14.21511 -10.16327 -10.13662 -10.13331 -10.12316
 Alpha  occ. eigenvalues --  -10.11416 -10.11032 -10.10895 -10.10879 -10.10712
 Alpha  occ. eigenvalues --  -10.10597 -10.07409 -10.06999 -10.06648 -10.05842
 Alpha  occ. eigenvalues --   -0.97033  -0.95999  -0.93096  -0.86838  -0.84491
 Alpha  occ. eigenvalues --   -0.80478  -0.74788  -0.67964  -0.67776  -0.64959
 Alpha  occ. eigenvalues --   -0.63604  -0.60543  -0.59037  -0.56021  -0.54352
 Alpha  occ. eigenvalues --   -0.52506  -0.51481  -0.47859  -0.46355  -0.45272
 Alpha  occ. eigenvalues --   -0.43176  -0.42371  -0.40390  -0.39712  -0.38063
 Alpha  occ. eigenvalues --   -0.37109  -0.36998  -0.36096  -0.35721  -0.35443
 Alpha  occ. eigenvalues --   -0.33885  -0.32953  -0.32782  -0.32242  -0.31614
 Alpha  occ. eigenvalues --   -0.30866  -0.30459  -0.29944  -0.29089  -0.28200
 Alpha  occ. eigenvalues --   -0.27306  -0.27079  -0.26745  -0.26388  -0.25134
 Alpha  occ. eigenvalues --   -0.24727  -0.24202  -0.21809  -0.17088  -0.16418
 Alpha  occ. eigenvalues --   -0.15470  -0.13812  -0.12080  -0.11156   0.03560
 Alpha virt. eigenvalues --    0.04948   0.05548   0.06159   0.07216   0.07762
 Alpha virt. eigenvalues --    0.08709   0.09215   0.09453   0.09772   0.09906
 Alpha virt. eigenvalues --    0.10365   0.10798   0.11421   0.11975   0.12597

  Beta  occ. eigenvalues --  -19.05819 -19.03195 -18.98659 -14.23483 -14.22264
  Beta  occ. eigenvalues --  -14.21497 -10.16191 -10.13635 -10.13190 -10.12308
  Beta  occ. eigenvalues --  -10.11394 -10.11018 -10.10874 -10.10873 -10.10704
  Beta  occ. eigenvalues --  -10.10580 -10.07252 -10.06982 -10.06679 -10.05835
  Beta  occ. eigenvalues --   -0.96894  -0.95923  -0.92916  -0.86789  -0.84428
  Beta  occ. eigenvalues --   -0.80446  -0.74632  -0.67888  -0.67691  -0.64809
  Beta  occ. eigenvalues --   -0.63497  -0.60495  -0.58974  -0.55979  -0.54176
  Beta  occ. eigenvalues --   -0.52444  -0.51282  -0.47793  -0.46296  -0.45189
  Beta  occ. eigenvalues --   -0.43093  -0.42298  -0.40321  -0.39624  -0.38003
  Beta  occ. eigenvalues --   -0.37066  -0.36926  -0.36040  -0.35641  -0.35379
  Beta  occ. eigenvalues --   -0.33783  -0.32879  -0.32477  -0.32191  -0.31524
  Beta  occ. eigenvalues --   -0.30664  -0.30406  -0.29753  -0.28971  -0.28092
  Beta  occ. eigenvalues --   -0.27191  -0.26960  -0.26684  -0.26260  -0.25065
  Beta  occ. eigenvalues --   -0.24666  -0.24134  -0.21392  -0.17005  -0.16291
  Beta  occ. eigenvalues --   -0.15108  -0.13348  -0.11824  -0.11110
  Beta virt. eigenvalues --    0.05576   0.06247   0.06699   0.07088   0.07494
  Beta virt. eigenvalues --    0.07942   0.09005   0.09328   0.09596   0.09900
  Beta virt. eigenvalues --    0.10037   0.10469   0.10844   0.11630   0.12051

 Mulliken charges and spin densities:
               1          2
     1  C   -0.275776  -0.177939
     2  C    0.152104  -0.355664
     3  N    0.299211   0.035035
     4  C    0.108891  -0.137405
     5  C    0.201241  -0.680649
     6  N   -0.152366   0.073758
     7  C   -0.913212   0.101573
     8  C    0.268388  -0.566005
     9  N    0.172806  -0.022602
    10  C   -0.380328   0.026763
    11  C    0.203966  -0.886043
    12  O   -0.386310   0.050798
    13  C    0.543627   0.654418
    14  C   -0.711979   0.180684
    15  C   -0.101556  -0.083655
    16  C    0.573300  -0.945606
    17  C    0.102825  -0.212427
    18  C   -0.406611   0.803310
    19  O   -0.253277   0.022597
    20  O   -0.290524   0.002406
    21  H    0.053325   0.134482
    22  H    0.111522   0.044757
    23  H    0.194444  -0.050806
    24  H   -0.012809   0.204603
    25  H   -0.158837   0.331547
    26  H   -0.120913   0.252713
    27  H    0.078971   0.087614
    28  H   -0.348063   0.533173
    29  H    0.124264   0.096897
    30  H   -0.195585   0.341936
    31  H    0.102635   0.072743
    32  H    0.147221   0.024846
    33  H    0.360061  -0.304964
    34  H   -0.140109   0.306971
    35  H    0.164702   0.011663
    36  H   -0.596149   0.744555
    37  H    0.115084   0.056950
    38  H    0.045751   0.221164
    39  H    0.320065   0.005810
 Sum of Mulliken charges =  -1.00000   1.00000

 Dipole moment (field-independent basis, Debye):
    X=             -2.1345    Y=              1.5012    Z=              0.7750  Tot=              2.7222
 Quadrupole moment (field-independent basis, Debye-Ang):
   XX=           -214.9791   YY=           -164.8034   ZZ=           -148.5048
   XY=             -4.5715   XZ=             -3.4274   YZ=             -4.2012

 Summary of Natural Population Analysis:

                                       Natural Population
                Natural  -----------------------------------------------
    Atom  No    Charge         Core      Valence    Rydberg      Total
 -----------------------------------------------------------------------
      C    1   -0.09740      0.99962     2.08792    0.00986     3.09740
      C    2   -0.09749      0.99961     2.08663    0.01125     3.09749
      N    3   -0.27882      0.99970     2.76477    0.01435     3.77882
      C    4   -0.09001      0.99961     2.07848    0.01192     3.09001
      C    5   -0.09932      0.99963     2.08818    0.01152     3.09932
      N    6   -0.33567      0.99976     2.82303    0.01287     3.83567
      C    7   -0.00586      0.99956     1.99259    0.01371     3.00586
      C    8   -0.07976      0.99964     2.06832    0.01180     3.07976
      N    9   -0.25415      0.99965     2.74476    0.00975     3.75415
      C   10   -0.08817      0.99963     2.07880    0.00973     3.08817
      C   11    0.36015      0.99957     1.62038    0.01989     2.63985
      O   12   -0.34062      0.99987     3.33540    0.00535     4.34062
      C   13   -0.12308      0.99944     2.11445    0.00918     3.12308
      C   14    0.19940      0.99942     1.78727    0.01390     2.80060
      C   15   -0.16341      0.99949     2.15479    0.00914     3.16341
      C   16    0.19553      0.99940     1.79130    0.01376     2.80447
      C   17   -0.17141      0.99953     2.16150    0.01039     3.17141
      C   18   -0.04103      0.99956     2.03293    0.00854     3.04103
      O   19   -0.33727      0.99988     3.33090    0.00649     4.33727
      O   20   -0.34745      0.99987     3.34120    0.00638     4.34745
      H   21    0.09032      0.00000     0.40827    0.00141     0.40968
      H   22    0.09491      0.00000     0.40419    0.00090     0.40509
      H   23    0.10174      0.00000     0.39714    0.00111     0.39826
      H   24    0.09063      0.00000     0.40810    0.00128     0.40937
      H   25    0.08908      0.00000     0.40939    0.00153     0.41092
      H   26    0.09795      0.00000     0.40054    0.00151     0.40205
      H   27    0.08969      0.00000     0.40896    0.00135     0.41031
      H   28    0.09612      0.00000     0.40265    0.00123     0.40388
      H   29    0.16764      0.00000     0.33013    0.00223     0.33236
      H   30    0.09834      0.00000     0.40041    0.00125     0.40166
      H   31    0.09489      0.00000     0.40410    0.00101     0.40511
      H   32    0.10202      0.00000     0.39659    0.00139     0.39798
      H   33    0.09787      0.00000     0.40072    0.00141     0.40213
      H   34    0.09339      0.00000     0.40510    0.00150     0.40661
      H   35    0.10675      0.00000     0.39172    0.00152     0.39325
      H   36    0.09953      0.00000     0.39891    0.00156     0.40047
      H   37    0.09945      0.00000     0.39891    0.00164     0.40055
      H   38    0.23427      0.00000     0.26238    0.00335     0.26573
      H   39    0.25124      0.00000     0.24512    0.00364     0.24876
 =======================================================================
   * Total *   -0.00000     19.99244    53.75694    0.25061    74.00000

 Normal termination of Gaussian 16 at Sat Dec 12 19:26:29 2020.
