 Gaussian 16, Revision A.03,

 -----------------------------------------------------------
 # opt freq B3LYP/6-31G(d) empiricaldispersion=gd3bj scf=xqc
 -----------------------------------------------------------

 -------------------------------
 CID_129798307_JID_4647_neutraal
 -------------------------------
 Symbolic Z-matrix:
 Charge =  0 Multiplicity = 1

 SCF Done:  E(RB3LYP) =  -1096.11922622     A.U. after   16 cycles
 SCF Done:  E(RB3LYP) =  -1096.12662916     A.U. after   16 cycles
 SCF Done:  E(RB3LYP) =  -1096.12648969     A.U. after   16 cycles
 SCF Done:  E(RB3LYP) =  -1096.13300666     A.U. after   15 cycles
 SCF Done:  E(RB3LYP) =  -1096.13295212     A.U. after   14 cycles
 SCF Done:  E(RB3LYP) =  -1096.13408304     A.U. after   15 cycles
 SCF Done:  E(RB3LYP) =  -1096.13432339     A.U. after   14 cycles
 SCF Done:  E(RB3LYP) =  -1096.13465389     A.U. after   13 cycles
 SCF Done:  E(RB3LYP) =  -1096.13473374     A.U. after   12 cycles
 SCF Done:  E(RB3LYP) =  -1096.13477562     A.U. after   12 cycles
 SCF Done:  E(RB3LYP) =  -1096.13478998     A.U. after   11 cycles
 SCF Done:  E(RB3LYP) =  -1096.13479255     A.U. after    9 cycles
 SCF Done:  E(RB3LYP) =  -1096.13479343     A.U. after    8 cycles
 SCF Done:  E(RB3LYP) =  -1096.13479370     A.U. after    8 cycles
 Optimization completed.
    -- Stationary point found.
 Normal termination of Gaussian 16 at Thu Dec 10 10:15:20 2020.

 --------------------------------------------------------------------
 #N Geom=AllCheck Guess=TCheck SCRF=Check GenChk RB3LYP/6-31G(d) Freq
 --------------------------------------------------------------------

 Structure from the checkpoint file:  "JID_4647.chk"
 -------------------------------
 CID_129798307_JID_4647_neutraal
 -------------------------------
 Charge =  0 Multiplicity = 1

 SCF Done:  E(RB3LYP) =  -1096.13479370     A.U. after    1 cycles

  Exact polarizability: 160.160   2.237 120.444  12.911  -1.260  67.598
 Approx polarizability: 260.314  -3.679 212.054  32.379  -9.032 106.858

                      1                      2                      3
                      A                      A                      A
 Frequencies --     34.4037                52.7483                58.3768
 Red. masses --     10.8538                 9.3417                 6.4061
 Frc consts  --      0.0076                 0.0153                 0.0129
 IR Inten    --      0.4828                 1.5934                 1.7296

                      4                      5                      6
                      A                      A                      A
 Frequencies --     93.4972               113.0179               139.9887
 Red. masses --      8.2166                 4.5580                 8.0426
 Frc consts  --      0.0423                 0.0343                 0.0929
 IR Inten    --      0.8526                 3.8810                 1.7140

                      7                      8                      9
                      A                      A                      A
 Frequencies --    176.5145               189.5813               217.1941
 Red. masses --      1.2545                 2.8288                 5.8329
 Frc consts  --      0.0230                 0.0599                 0.1621
 IR Inten    --      0.4302                 0.6189                 2.0200

                     10                     11                     12
                      A                      A                      A
 Frequencies --    239.5359               292.3207               297.0915
 Red. masses --      5.6460                 5.2302                 4.1908
 Frc consts  --      0.1909                 0.2633                 0.2179
 IR Inten    --      4.9380                 0.7176                 2.2548

                     13                     14                     15
                      A                      A                      A
 Frequencies --    367.9347               419.2392               427.5584
 Red. masses --      6.0702                 6.9227                10.4132
 Frc consts  --      0.4842                 0.7169                 1.1216
 IR Inten    --      1.3206                 2.8063                 5.9904

                     16                     17                     18
                      A                      A                      A
 Frequencies --    499.8189               533.4493               581.4585
 Red. masses --      2.4933                 5.3153                 4.8351
 Frc consts  --      0.3670                 0.8912                 0.9632
 IR Inten    --     16.8268                 2.8457                13.0154

                     19                     20                     21
                      A                      A                      A
 Frequencies --    597.9001               611.3031               685.6386
 Red. masses --      3.3071                 4.1249                 2.0275
 Frc consts  --      0.6965                 0.9082                 0.5616
 IR Inten    --     41.8098                15.4410                93.7125

                     22                     23                     24
                      A                      A                      A
 Frequencies --    691.1729               747.5592               755.3378
 Red. masses --      3.5796                12.4296                 6.8554
 Frc consts  --      1.0075                 4.0926                 2.3045
 IR Inten    --     31.1106                 9.3091                 1.0407

                     25                     26                     27
                      A                      A                      A
 Frequencies --    769.2742               831.4727               842.0316
 Red. masses --      5.4783                12.8867                 1.4343
 Frc consts  --      1.9101                 5.2491                 0.5992
 IR Inten    --      9.0611                27.0730                 8.9492

                     28                     29                     30
                      A                      A                      A
 Frequencies --    873.0327               920.8023              1026.3955
 Red. masses --      3.4625                 2.3684                 7.9195
 Frc consts  --      1.5549                 1.1831                 4.9156
 IR Inten    --      0.9540                11.0821                16.9247

                     31                     32                     33
                      A                      A                      A
 Frequencies --   1096.3808              1162.2134              1185.1394
 Red. masses --      1.6134                 1.2989                 1.8140
 Frc consts  --      1.1426                 1.0337                 1.5011
 IR Inten    --      1.9843                 0.0476               175.8849

                     34                     35                     36
                      A                      A                      A
 Frequencies --   1195.7944              1234.7689              1253.3262
 Red. masses --      4.2373                 1.3893                 1.6382
 Frc consts  --      3.5699                 1.2480                 1.5162
 IR Inten    --     42.3309                47.5259                 7.8940

                     37                     38                     39
                      A                      A                      A
 Frequencies --   1292.1267              1314.1613              1372.9232
 Red. masses --      1.9156                 2.4941                 8.8550
 Frc consts  --      1.8843                 2.5378                 9.8340
 IR Inten    --    116.3458                66.0917                78.9476

                     40                     41                     42
                      A                      A                      A
 Frequencies --   1391.5192              1409.4436              1437.1339
 Red. masses --      2.6439                 5.0308                 6.6833
 Frc consts  --      3.0163                 5.8882                 8.1327
 IR Inten    --     54.0625               119.1717               242.3244

                     43                     44                     45
                      A                      A                      A
 Frequencies --   1456.9743              1475.2999              1502.7226
 Red. masses --      1.0905                 1.3779                 1.0419
 Frc consts  --      1.3639                 1.7670                 1.3863
 IR Inten    --     16.8558                26.1579                 8.8136

                     46                     47                     48
                      A                      A                      A
 Frequencies --   1512.3272              1537.3371              1551.9135
 Red. masses --      6.3868                 1.2361                 2.9528
 Frc consts  --      8.6065                 1.7213                 4.1901
 IR Inten    --     49.6481                46.3731               210.3281

                     49                     50                     51
                      A                      A                      A
 Frequencies --   1595.8463              1852.5153              3088.8653
 Red. masses --     10.0460                10.0634                 1.0652
 Frc consts  --     15.0739                20.3478                 5.9880
 IR Inten    --    253.4898               289.0688                 4.0668

                     52                     53                     54
                      A                      A                      A
 Frequencies --   3094.6639              3167.7442              3179.1334
 Red. masses --      1.0317                 1.0987                 1.1059
 Frc consts  --      5.8213                 6.4955                 6.5856
 IR Inten    --     23.0675                 0.2659                 6.0475

                     55                     56                     57
                      A                      A                      A
 Frequencies --   3183.9617              3268.8274              3691.1308
 Red. masses --      1.1069                 1.0974                 1.0639
 Frc consts  --      6.6114                 6.9088                 8.5403
 IR Inten    --      3.9640                 2.3961                53.4778

 - Thermochemistry -
 -------------------
 Temperature   298.150 Kelvin.  Pressure   1.00000 Atm.
 Atom     1 has atomic number  6 and mass  12.00000

 Molecular mass:   217.01573 amu.
 Principal axes and moments of inertia in atomic units:
                           1         2         3
     Eigenvalues --  1559.576944407.103335471.43385
           X            0.99949   0.03199   0.00176
           Y           -0.03200   0.99945   0.00836
           Z           -0.00149  -0.00841   0.99996
 This molecule is an asymmetric top.
 Rotational symmetry number  1.
 Warning -- assumption of classical behavior for rotation
           may cause significant error
 Rotational temperatures (Kelvin)      0.05554     0.01965     0.01583
 Rotational constants (GHZ):           1.15720     0.40951     0.32985
 Zero-point vibrational energy     386333.1 (Joules/Mol)
                                   92.33582 (Kcal/Mol)
 Warning -- explicit consideration of  20 degrees of freedom as
           vibrations may cause significant error
 Vibrational temperatures:     49.50    75.89    83.99   134.52   162.61
          (Kelvin)            201.41   253.96   272.77   312.49   344.64
                              420.58   427.45   529.38   603.19   615.16
                              719.13   767.51   836.59   860.24   879.53
                              986.48   994.44  1075.57  1086.76  1106.81
                             1196.30  1211.50  1256.10  1324.83  1476.75
                             1577.45  1672.17  1705.15  1720.48  1776.56
                             1803.26  1859.08  1890.78  1975.33  2002.09
                             2027.88  2067.72  2096.26  2122.63  2162.08
                             2175.90  2211.89  2232.86  2296.07  2665.36
                             4444.19  4452.53  4557.68  4574.06  4581.01
                             4703.11  5310.71

 Zero-point correction=                           0.147146 (Hartree/Particle)
 Thermal correction to Energy=                    0.160486
 Thermal correction to Enthalpy=                  0.161430
 Thermal correction to Gibbs Free Energy=         0.105498
 Sum of electronic and zero-point Energies=          -1095.987647
 Sum of electronic and thermal Energies=             -1095.974308
 Sum of electronic and thermal Enthalpies=           -1095.973364
 Sum of electronic and thermal Free Energies=        -1096.029296

                     E (Thermal)             CV                S
                      KCal/Mol        Cal/Mol-Kelvin    Cal/Mol-Kelvin
 Total                  100.706             47.248            117.720
 Electronic               0.000              0.000              0.000
 Translational            0.889              2.981             42.028
 Rotational               0.889              2.981             31.998
 Vibrational             98.929             41.287             43.694
 Vibration     1          0.594              1.983              5.558
 Vibration     2          0.596              1.977              4.712
 Vibration     3          0.596              1.974              4.511
 Vibration     4          0.603              1.954              3.586
 Vibration     5          0.607              1.939              3.216
 Vibration     6          0.615              1.913              2.804
 Vibration     7          0.628              1.871              2.365
 Vibration     8          0.633              1.854              2.232
 Vibration     9          0.646              1.815              1.982
 Vibration    10          0.657              1.780              1.806
 Vibration    11          0.688              1.688              1.460
 Vibration    12          0.691              1.679              1.433
 Vibration    13          0.741              1.538              1.088
 Vibration    14          0.782              1.428              0.895
 Vibration    15          0.789              1.410              0.867
 Vibration    16          0.855              1.250              0.659
 Vibration    17          0.888              1.176              0.580
 Vibration    18          0.938              1.071              0.483
 Vibration    19          0.956              1.036              0.453
 Vibration    20          0.970              1.008              0.431

                           ! Non-Optimized Parameters !
 Normal termination of Gaussian 16 at Thu Dec 10 10:20:05 2020.

 ----------------------------------------------------------------------
 # B3LYP/6-311++G(d,p) empiricaldispersion=gd3bj scf=xqc pop=npa geom=c
 heck
 ----------------------------------------------------------------------

 ---------------------------------------
 CID_129798307_JID_4647_Energie_neutraal
 ---------------------------------------
 Structure from the checkpoint file:  "JID_4647.chk"
 Charge =  0 Multiplicity = 1

 SCF Done:  E(RB3LYP) =  -1096.37193280     A.U. after   16 cycles
 Normal termination of Gaussian 16 at Thu Dec 10 10:21:48 2020.

 ----------------------------------------------------------------------
 # B3LYP/6-311++G(d,p) empiricaldispersion=gd3bj scf=xqc pop=npa geom=c
 heck
 ----------------------------------------------------------------------

 -------------------------------------
 CID_129798307_JID_4647_Energie_kation
 -------------------------------------
 Structure from the checkpoint file:  "JID_4647.chk"
 Charge =  1 Multiplicity = 2

 SCF Done:  E(UB3LYP) =  -1096.06149152     A.U. after   26 cycles
 Normal termination of Gaussian 16 at Thu Dec 10 10:25:33 2020.
 Gaussian 16:  ES64L-G16RevA.03 25-Dec-2016

 ----------------------------------------------------------------------
 # B3LYP/6-311++G(d,p) empiricaldispersion=gd3bj scf=xqc pop=npa geom=c
 heck
 ----------------------------------------------------------------------

 ------------------------------------
 CID_129798307_JID_4647_Energie_anion
 ------------------------------------
 Structure from the checkpoint file:  "JID_4647.chk"
 Charge = -1 Multiplicity = 2

                         Standard orientation:
 ---------------------------------------------------------------------
 Center     Atomic      Atomic             Coordinates (Angstroms)
 Number     Number       Type             X           Y           Z
 ---------------------------------------------------------------------
      1          6           0        3.101167    1.931033    0.100942
      2          7           0        1.788073    1.323018   -0.099039
      3          6           0        0.639783    1.986559   -0.367866
      4          7           0       -0.411757    1.188716   -0.502214
      5          6           0        0.060746   -0.076739   -0.311655
      6          6           0        1.430370   -0.022611   -0.058691
      7          7           0        2.314487   -1.083337    0.190341
      8          8           0        1.821893   -2.221014    0.185537
      9          8           0        3.512383   -0.830775    0.396626
     10         16           0       -0.948920   -1.499560   -0.382181
     11          6           0       -2.533099   -0.675394   -0.775240
     12          6           0       -3.111509    0.282714    0.252559
     13          8           0       -3.922377    1.133712   -0.029168
     14          8           0       -2.688386    0.048069    1.511665
     15          1           0        3.480097    1.695263    1.095646
     16          1           0        3.808680    1.556656   -0.639234
     17          1           0        2.980823    3.010662   -0.008326
     18          1           0        0.613599    3.064292   -0.458793
     19          1           0       -2.461305   -0.132296   -1.717838
     20          1           0       -3.243714   -1.498843   -0.908080
     21          1           0       -3.143946    0.705141    2.070331
 ---------------------------------------------------------------------

 SCF Done:  E(UB3LYP) =  -1096.40666624     A.U. after   22 cycles

 The electronic state is 2-A.
 Alpha  occ. eigenvalues --  -88.72573 -19.07290 -19.01430 -18.93055 -18.93006
 Alpha  occ. eigenvalues --  -14.30773 -14.24298 -14.17254 -10.20819 -10.09878
 Alpha  occ. eigenvalues --  -10.09837 -10.09362 -10.08962 -10.07648  -7.81116
 Alpha  occ. eigenvalues --   -5.77551  -5.77115  -5.76478  -1.01332  -1.01272
 Alpha  occ. eigenvalues --   -0.92330  -0.89564  -0.84013  -0.76960  -0.69172
 Alpha  occ. eigenvalues --   -0.65378  -0.60749  -0.57599  -0.53268  -0.50987
 Alpha  occ. eigenvalues --   -0.45571  -0.42924  -0.39457  -0.38796  -0.37290
 Alpha  occ. eigenvalues --   -0.36514  -0.36373  -0.34085  -0.32944  -0.32466
 Alpha  occ. eigenvalues --   -0.31248  -0.30777  -0.29990  -0.29285  -0.27707
 Alpha  occ. eigenvalues --   -0.26485  -0.22659  -0.22129  -0.18480  -0.17150
 Alpha  occ. eigenvalues --   -0.16213  -0.13594  -0.12668  -0.11470  -0.09391
 Alpha  occ. eigenvalues --   -0.08093   0.03386
 Alpha virt. eigenvalues --    0.07691   0.08168   0.09230   0.10170   0.10752
 Alpha virt. eigenvalues --    0.11935   0.12520   0.13378   0.13845   0.14938
 Alpha virt. eigenvalues --    0.15381   0.16311   0.16581   0.16965   0.17889

  Beta  occ. eigenvalues --  -88.72562 -19.07288 -19.01430 -18.92445 -18.92443
  Beta  occ. eigenvalues --  -14.29963 -14.24090 -14.17363 -10.20815 -10.09881
  Beta  occ. eigenvalues --  -10.09846 -10.09178 -10.09049 -10.07374  -7.81105
  Beta  occ. eigenvalues --   -5.77548  -5.77116  -5.76430  -1.01329  -0.99970
  Beta  occ. eigenvalues --   -0.92329  -0.89311  -0.82920  -0.76766  -0.69085
  Beta  occ. eigenvalues --   -0.64949  -0.60633  -0.57265  -0.52550  -0.50877
  Beta  occ. eigenvalues --   -0.45410  -0.42639  -0.39224  -0.38714  -0.37100
  Beta  occ. eigenvalues --   -0.36299  -0.35416  -0.33419  -0.32254  -0.31089
  Beta  occ. eigenvalues --   -0.30617  -0.30294  -0.29953  -0.28845  -0.26831
  Beta  occ. eigenvalues --   -0.26334  -0.22655  -0.22028  -0.18302  -0.16477
  Beta  occ. eigenvalues --   -0.16256  -0.13030  -0.10957  -0.08825  -0.08740
  Beta  occ. eigenvalues --   -0.07055
  Beta virt. eigenvalues --    0.07665   0.08132   0.09200   0.10163   0.10698
  Beta virt. eigenvalues --    0.11086   0.12342   0.12671   0.13360   0.13839
  Beta virt. eigenvalues --    0.15163   0.15485   0.16456   0.16846   0.17090

 Mulliken charges and spin densities:
               1          2
     1  C   -0.331817   0.005431
     2  N   -0.011471   0.065587
     3  C    0.084689   0.163679
     4  N   -0.044101  -0.060012
     5  C    0.549933   0.200344
     6  C   -0.410975  -0.083635
     7  N   -0.314631   0.257438
     8  O   -0.231492   0.227922
     9  O   -0.240618   0.214554
    10  S   -0.448361   0.013327
    11  C   -0.484763   0.015299
    12  C   -0.053742  -0.009258
    13  O   -0.280450  -0.000174
    14  O   -0.116913  -0.000332
    15  H    0.203486  -0.000451
    16  H    0.200668   0.000168
    17  H    0.078219  -0.000732
    18  H    0.148874  -0.011344
    19  H    0.266056   0.002053
    20  H    0.183396  -0.000655
    21  H    0.254013   0.000790
 Sum of Mulliken charges =  -1.00000   1.00000

 Dipole moment (field-independent basis, Debye):
    X=             -4.6609    Y=              5.4304    Z=              0.2898  Tot=              7.1622
 Quadrupole moment (field-independent basis, Debye-Ang):
   XX=           -129.6319   YY=           -107.2585   ZZ=            -90.2060
   XY=             25.5905   XZ=             -7.4184   YZ=              5.4760

 Summary of Natural Population Analysis:

                                       Natural Population
                Natural  -----------------------------------------------
    Atom  No    Charge         Core      Valence    Rydberg      Total
 -----------------------------------------------------------------------
      C    1   -0.17068      0.99965     2.16440    0.00663     3.17068
      N    2   -0.17373      0.99960     2.66525    0.00888     3.67373
      C    3    0.14255      0.99966     1.84109    0.01670     2.85745
      N    4   -0.30112      0.99969     2.78726    0.01418     3.80112
      C    5    0.02777      0.99944     1.95743    0.01536     2.97223
      C    6    0.09425      0.99937     1.89229    0.01408     2.90575
      N    7    0.31446      0.99967     2.16004    0.02584     3.18554
      O    8   -0.18206      0.99990     3.17404    0.00812     4.18206
      O    9   -0.20978      0.99990     3.20186    0.00802     4.20978
      S   10    0.16729      4.99954     2.81042    0.02275     7.83271
      C   11   -0.31155      0.99953     2.30095    0.01108     3.31155
      C   12    0.40874      0.99971     1.56537    0.02618     2.59126
      O   13   -0.31541      0.99986     3.30786    0.00769     4.31541
      O   14   -0.33563      0.99987     3.32890    0.00685     4.33563
      H   15    0.10562      0.00000     0.39298    0.00140     0.39438
      H   16    0.10566      0.00000     0.39296    0.00138     0.39434
      H   17    0.08596      0.00000     0.41302    0.00102     0.41404
      H   18    0.08206      0.00000     0.41692    0.00102     0.41794
      H   19    0.11929      0.00000     0.37919    0.00152     0.38071
      H   20    0.11333      0.00000     0.38544    0.00123     0.38667
      H   21    0.23297      0.00000     0.26257    0.00447     0.26703
 =======================================================================
   * Total *    0.00000     17.99541    37.80022    0.20437    56.00000

 Normal termination of Gaussian 16 at Thu Dec 10 10:28:47 2020.
