 Gaussian 16, Revision A.03,

 -----------------------------------------------------------
 # opt freq B3LYP/6-31G(d) empiricaldispersion=gd3bj scf=xqc
 -----------------------------------------------------------

 ------------------------------
 CID_61077144_JID_3613_neutraal
 ------------------------------
 Symbolic Z-matrix:
 Charge =  0 Multiplicity = 1

 SCF Done:  E(RB3LYP) =  -941.781006703     A.U. after   13 cycles
 SCF Done:  E(RB3LYP) =  -941.784338035     A.U. after   11 cycles
 SCF Done:  E(RB3LYP) =  -941.784724279     A.U. after   10 cycles
 SCF Done:  E(RB3LYP) =  -941.784697238     A.U. after   13 cycles
 SCF Done:  E(RB3LYP) =  -941.784960036     A.U. after   11 cycles
 SCF Done:  E(RB3LYP) =  -941.785064413     A.U. after   10 cycles
 SCF Done:  E(RB3LYP) =  -941.785102943     A.U. after   10 cycles
 SCF Done:  E(RB3LYP) =  -941.785125960     A.U. after   10 cycles
 SCF Done:  E(RB3LYP) =  -941.785143459     A.U. after   10 cycles
 SCF Done:  E(RB3LYP) =  -941.785151897     A.U. after    9 cycles
 SCF Done:  E(RB3LYP) =  -941.785214680     A.U. after    9 cycles
 SCF Done:  E(RB3LYP) =  -941.785224171     A.U. after   10 cycles
 SCF Done:  E(RB3LYP) =  -941.785223397     A.U. after   10 cycles
 SCF Done:  E(RB3LYP) =  -941.785234132     A.U. after   10 cycles
 SCF Done:  E(RB3LYP) =  -941.785234270     A.U. after    9 cycles
 SCF Done:  E(RB3LYP) =  -941.785234750     A.U. after    8 cycles
 Optimization completed.
    -- Stationary point found.
 Normal termination of Gaussian 16 at Mon Dec 14 16:43:39 2020.

 --------------------------------------------------------------------
 #N Geom=AllCheck Guess=TCheck SCRF=Check GenChk RB3LYP/6-31G(d) Freq
 --------------------------------------------------------------------

 Structure from the checkpoint file:  "JID_3613.chk"
 ------------------------------
 CID_61077144_JID_3613_neutraal
 ------------------------------
 Charge =  0 Multiplicity = 1

 SCF Done:  E(RB3LYP) =  -941.785234750     A.U. after    1 cycles

  Exact polarizability: 165.449   0.792 113.538  -0.328   3.568 112.073
 Approx polarizability: 192.027   3.278 165.794   3.180   9.349 177.158

                      1                      2                      3
                      A                      A                      A
 Frequencies --      9.8115                31.9437                52.3102
 Red. masses --      5.1621                 3.2217                 3.8434
 Frc consts  --      0.0003                 0.0019                 0.0062
 IR Inten    --      0.0989                 1.2119                 0.1743

                      4                      5                      6
                      A                      A                      A
 Frequencies --     63.3952                77.6094               103.3093
 Red. masses --      4.8517                 3.3795                 4.1268
 Frc consts  --      0.0115                 0.0120                 0.0260
 IR Inten    --      0.8045                 1.5279                 0.8342

                      7                      8                      9
                      A                      A                      A
 Frequencies --    152.0178               182.0542               224.8330
 Red. masses --      3.2727                 3.3836                 2.8212
 Frc consts  --      0.0446                 0.0661                 0.0840
 IR Inten    --      5.2766                 3.0863                 2.1462

                     10                     11                     12
                      A                      A                      A
 Frequencies --    229.6113               260.4977               298.5038
 Red. masses --      1.9358                 3.9045                 2.4046
 Frc consts  --      0.0601                 0.1561                 0.1262
 IR Inten    --      0.2760                 1.5042                 2.8229

                     13                     14                     15
                      A                      A                      A
 Frequencies --    331.7301               365.7113               379.5859
 Red. masses --      1.8761                 2.6234                 3.5047
 Frc consts  --      0.1216                 0.2067                 0.2975
 IR Inten    --      0.0247                 5.6968                 0.4301

                     16                     17                     18
                      A                      A                      A
 Frequencies --    443.3305               444.6516               469.8549
 Red. masses --      2.1874                 2.7397                 1.3198
 Frc consts  --      0.2533                 0.3191                 0.1717
 IR Inten    --      9.1795                 3.8620               113.3369

                     19                     20                     21
                      A                      A                      A
 Frequencies --    494.6099               516.9669               557.7473
 Red. masses --      1.8733                 2.0837                 2.3931
 Frc consts  --      0.2700                 0.3281                 0.4386
 IR Inten    --     36.5047                 2.0841                 7.7360

                     22                     23                     24
                      A                      A                      A
 Frequencies --    667.2444               742.8751               803.9474
 Red. masses --      3.7702                 2.9191                 1.4507
 Frc consts  --      0.9890                 0.9492                 0.5525
 IR Inten    --      0.3837                 7.2597                 0.1290

                     25                     26                     27
                      A                      A                      A
 Frequencies --    822.9156               830.1642               867.5855
 Red. masses --      1.9987                 3.2051                 1.7281
 Frc consts  --      0.7974                 1.3014                 0.7664
 IR Inten    --     12.8282                 2.9088                 0.0205

                     28                     29                     30
                      A                      A                      A
 Frequencies --    892.0972               904.8777               913.0621
 Red. masses --      1.9978                 1.9591                 2.0345
 Frc consts  --      0.9368                 0.9451                 0.9994
 IR Inten    --      4.8407                 3.9714                 1.6866

                     31                     32                     33
                      A                      A                      A
 Frequencies --    921.9309               937.6811               982.0982
 Red. masses --      2.1134                 1.4691                 1.9910
 Frc consts  --      1.0583                 0.7610                 1.1314
 IR Inten    --     21.9279                 0.7431                 8.9281

                     34                     35                     36
                      A                      A                      A
 Frequencies --   1022.5960              1038.1639              1046.2054
 Red. masses --      2.2192                 2.6862                 1.8475
 Frc consts  --      1.3673                 1.7058                 1.1914
 IR Inten    --     11.8730                 8.4377                 3.5126

                     37                     38                     39
                      A                      A                      A
 Frequencies --   1053.6782              1071.3102              1096.8386
 Red. masses --      1.9040                 1.4746                 2.5659
 Frc consts  --      1.2455                 0.9972                 1.8188
 IR Inten    --      8.4143                 0.1456               125.0758

                     40                     41                     42
                      A                      A                      A
 Frequencies --   1098.1517              1107.6268              1144.9538
 Red. masses --      1.1523                 2.6678                 2.0888
 Frc consts  --      0.8188                 1.9284                 1.6134
 IR Inten    --      1.4939                 0.3730                33.5564

                     43                     44                     45
                      A                      A                      A
 Frequencies --   1154.2968              1170.7264              1213.2199
 Red. masses --      2.7972                 2.6354                 1.3948
 Frc consts  --      2.1959                 2.1282                 1.2096
 IR Inten    --    100.3335                56.4985                 0.3473

                     46                     47                     48
                      A                      A                      A
 Frequencies --   1221.6158              1244.9043              1260.5239
 Red. masses --      1.2552                 1.2793                 1.3108
 Frc consts  --      1.1037                 1.1682                 1.2271
 IR Inten    --     12.8791                16.3898                10.9228

                     49                     50                     51
                      A                      A                      A
 Frequencies --   1278.9813              1296.4276              1302.9370
 Red. masses --      1.1264                 1.3056                 1.2927
 Frc consts  --      1.0856                 1.2928                 1.2930
 IR Inten    --     11.6729                 4.7843                 1.5589

                     52                     53                     54
                      A                      A                      A
 Frequencies --   1310.6981              1318.8938              1340.3182
 Red. masses --      1.3011                 1.2151                 1.2474
 Frc consts  --      1.3169                 1.2453                 1.3203
 IR Inten    --      7.1402                 3.7288                 0.3406

                     55                     56                     57
                      A                      A                      A
 Frequencies --   1358.6450              1381.5571              1389.6578
 Red. masses --      1.1805                 1.3700                 1.3376
 Frc consts  --      1.2839                 1.5407                 1.5219
 IR Inten    --     20.2522                 0.4780                 0.1358

                     58                     59                     60
                      A                      A                      A
 Frequencies --   1398.1615              1400.2452              1400.7397
 Red. masses --      1.3785                 1.2203                 1.4705
 Frc consts  --      1.5877                 1.4096                 1.6999
 IR Inten    --     15.9213                 4.1056                 0.1587

                     61                     62                     63
                      A                      A                      A
 Frequencies --   1404.5175              1410.9149              1442.7157
 Red. masses --      1.4445                 1.2305                 1.2778
 Frc consts  --      1.6789                 1.4432                 1.5670
 IR Inten    --      1.1204                56.1513                 2.8206

                     64                     65                     66
                      A                      A                      A
 Frequencies --   1459.4141              1495.9719              1512.0343
 Red. masses --      1.3759                 1.0921                 1.0866
 Frc consts  --      1.7266                 1.4400                 1.4636
 IR Inten    --     77.9577                 9.8776                 0.1378

                     67                     68                     69
                      A                      A                      A
 Frequencies --   1514.2608              1515.0639              1518.1416
 Red. masses --      1.0861                 1.0926                 1.0955
 Frc consts  --      1.4673                 1.4777                 1.4876
 IR Inten    --      6.5709                 0.7702                 2.4627

                     70                     71                     72
                      A                      A                      A
 Frequencies --   1522.7352              1531.1528              1536.3535
 Red. masses --      1.0839                 1.0940                 1.0990
 Frc consts  --      1.4808                 1.5112                 1.5284
 IR Inten    --     11.9255                 1.1397                 1.0828

                     73                     74                     75
                      A                      A                      A
 Frequencies --   1541.4217              2998.9078              3016.4767
 Red. masses --      1.0977                 1.0722                 1.0608
 Frc consts  --      1.5366                 5.6814                 5.6872
 IR Inten    --      8.3088                49.7787                20.9890

                     76                     77                     78
                      A                      A                      A
 Frequencies --   3021.7307              3023.0319              3026.0783
 Red. masses --      1.0615                 1.0705                 1.0665
 Frc consts  --      5.7107                 5.7641                 5.7543
 IR Inten    --     51.3053                16.0664                21.4606

                     79                     80                     81
                      A                      A                      A
 Frequencies --   3030.7019              3034.8130              3039.1582
 Red. masses --      1.0624                 1.0739                 1.0661
 Frc consts  --      5.7494                 5.8272                 5.8017
 IR Inten    --     28.8347                 4.6955                 1.5883

                     82                     83                     84
                      A                      A                      A
 Frequencies --   3048.3181              3065.1632              3073.3021
 Red. masses --      1.0717                 1.0616                 1.1044
 Frc consts  --      5.8673                 5.8767                 6.1458
 IR Inten    --     37.9739                 3.4819                43.3972

                     85                     86                     87
                      A                      A                      A
 Frequencies --   3076.5196              3077.3774              3081.8266
 Red. masses --      1.0977                 1.0923                 1.1013
 Frc consts  --      6.1215                 6.0949                 6.1624
 IR Inten    --     56.3713                63.2140                48.9015

                     88                     89                     90
                      A                      A                      A
 Frequencies --   3087.8618              3096.1594              3100.4083
 Red. masses --      1.0964                 1.0995                 1.1000
 Frc consts  --      6.1596                 6.2099                 6.2299
 IR Inten    --     42.1407                30.2278                52.0613

                     91                     92                     93
                      A                      A                      A
 Frequencies --   3105.1855              3122.6763              3712.4267
 Red. masses --      1.0933                 1.1069                 1.0649
 Frc consts  --      6.2111                 6.3592                 8.6473
 IR Inten    --     38.7200                13.2756                25.3825

 - Thermochemistry -
 -------------------
 Temperature   298.150 Kelvin.  Pressure   1.00000 Atm.
 Atom     1 has atomic number  6 and mass  12.00000

 Molecular mass:   204.11840 amu.
 Principal axes and moments of inertia in atomic units:
                           1         2         3
     Eigenvalues --   848.457437933.897968058.30017
           X            0.99999  -0.00137  -0.00351
           Y            0.00140   0.99997   0.00786
           Z            0.00350  -0.00786   0.99996
 This molecule is an asymmetric top.
 Rotational symmetry number  1.
 Warning -- assumption of classical behavior for rotation
           may cause significant error
 Rotational temperatures (Kelvin)      0.10208     0.01092     0.01075
 Rotational constants (GHZ):           2.12709     0.22747     0.22396
 Zero-point vibrational energy     779615.1 (Joules/Mol)
                                  186.33247 (Kcal/Mol)
 Warning -- explicit consideration of  21 degrees of freedom as
           vibrations may cause significant error
 Vibrational temperatures:     14.12    45.96    75.26    91.21   111.66
          (Kelvin)            148.64   218.72   261.94   323.48   330.36
                              374.80   429.48   477.29   526.18   546.14
                              637.85   639.75   676.02   711.63   743.80
                              802.47   960.02  1068.83  1156.70  1183.99
                             1194.42  1248.26  1283.53  1301.92  1313.69
                             1326.45  1349.11  1413.02  1471.29  1493.69
                             1505.26  1516.01  1541.38  1578.11  1580.00
                             1593.63  1647.33  1660.78  1684.41  1745.55
                             1757.63  1791.14  1813.61  1840.17  1865.27
                             1874.64  1885.80  1897.59  1928.42  1954.79
                             1987.75  1999.41  2011.64  2014.64  2015.35
                             2020.79  2029.99  2075.75  2099.77  2152.37
                             2175.48  2178.68  2179.84  2184.27  2190.88
                             2202.99  2210.47  2217.76  4314.76  4340.04
                             4347.60  4349.47  4353.85  4360.50  4366.42
                             4372.67  4385.85  4410.09  4421.80  4426.43
                             4427.66  4434.06  4442.74  4454.68  4460.80
                             4467.67  4492.83  5341.35

 Zero-point correction=                           0.296940 (Hartree/Particle)
 Thermal correction to Energy=                    0.311665
 Thermal correction to Enthalpy=                  0.312609
 Thermal correction to Gibbs Free Energy=         0.252174
 Sum of electronic and zero-point Energies=           -941.488295
 Sum of electronic and thermal Energies=              -941.473570
 Sum of electronic and thermal Enthalpies=            -941.472626
 Sum of electronic and thermal Free Energies=         -941.533061

                     E (Thermal)             CV                S
                      KCal/Mol        Cal/Mol-Kelvin    Cal/Mol-Kelvin
 Total                  195.573             54.227            127.197
 Electronic               0.000              0.000              0.000
 Translational            0.889              2.981             41.845
 Rotational               0.889              2.981             32.362
 Vibrational            193.795             48.266             52.991
 Vibration     1          0.593              1.987              8.049
 Vibration     2          0.594              1.983              5.705
 Vibration     3          0.596              1.977              4.728
 Vibration     4          0.597              1.972              4.349
 Vibration     5          0.599              1.964              3.950
 Vibration     6          0.605              1.947              3.391
 Vibration     7          0.619              1.900              2.647
 Vibration     8          0.630              1.864              2.307
 Vibration     9          0.649              1.803              1.920
 Vibration    10          0.652              1.796              1.882
 Vibration    11          0.669              1.745              1.658
 Vibration    12          0.692              1.676              1.425
 Vibration    13          0.714              1.612              1.252
 Vibration    14          0.739              1.543              1.098
 Vibration    15          0.750              1.514              1.041
 Vibration    16          0.803              1.376              0.816
 Vibration    17          0.804              1.373              0.812
 Vibration    18          0.827              1.317              0.738
 Vibration    19          0.850              1.262              0.672
 Vibration    20          0.872              1.212              0.617
 Vibration    21          0.913              1.123              0.528

                           ! Non-Optimized Parameters !
 Normal termination of Gaussian 16 at Mon Dec 14 16:51:11 2020.

 ----------------------------------------------------------------------
 # B3LYP/6-311++G(d,p) empiricaldispersion=gd3bj scf=xqc pop=npa geom=c
 heck
 ----------------------------------------------------------------------

 --------------------------------------
 CID_61077144_JID_3613_Energie_neutraal
 --------------------------------------
 Structure from the checkpoint file:  "JID_3613.chk"
 Charge =  0 Multiplicity = 1

 SCF Done:  E(RB3LYP) =  -941.978666582     A.U. after   13 cycles
 Normal termination of Gaussian 16 at Mon Dec 14 16:55:00 2020.

 ----------------------------------------------------------------------
 # B3LYP/6-311++G(d,p) empiricaldispersion=gd3bj scf=xqc pop=npa geom=c
 heck
 ----------------------------------------------------------------------

 ------------------------------------
 CID_61077144_JID_3613_Energie_kation
 ------------------------------------
 Structure from the checkpoint file:  "JID_3613.chk"
 Charge =  1 Multiplicity = 2

 SCF Done:  E(UB3LYP) =  -941.676130151     A.U. after   23 cycles
 Normal termination of Gaussian 16 at Mon Dec 14 17:04:32 2020.
 Gaussian 16:  ES64L-G16RevA.03 25-Dec-2016

 ----------------------------------------------------------------------
 # B3LYP/6-311++G(d,p) empiricaldispersion=gd3bj scf=xqc pop=npa geom=c
 heck
 ----------------------------------------------------------------------

 -----------------------------------
 CID_61077144_JID_3613_Energie_anion
 -----------------------------------
 Structure from the checkpoint file:  "JID_3613.chk"
 Charge = -1 Multiplicity = 2

                         Standard orientation:
 ---------------------------------------------------------------------
 Center     Atomic      Atomic             Coordinates (Angstroms)
 Number     Number       Type             X           Y           Z
 ---------------------------------------------------------------------
      1          6           0        4.526958    0.044096   -0.658652
      2          6           0        3.791397    1.384062   -0.531906
      3          6           0        2.268894    1.184658   -0.471220
      4          6           0        1.882910    0.228326    0.664891
      5          6           0        2.616605   -1.114344    0.546879
      6          6           0        4.138366   -0.907602    0.479631
      7         16           0        0.056918    0.045292    0.869543
      8          6           0       -0.452670   -0.578710   -0.783599
      9          6           0       -1.861547   -1.178733   -0.777863
     10          8           0       -2.905072   -0.222697   -0.768549
     11          6           0       -3.265859    0.304339    0.508627
     12          6           0       -4.649539    0.908987    0.334873
     13          8           0       -5.576071   -0.062780   -0.116767
     14          1           0        5.611904    0.204218   -0.667414
     15          1           0        4.269011   -0.419932   -1.621929
     16          1           0        4.125188    1.895318    0.382597
     17          1           0        4.046446    2.043541   -1.370429
     18          1           0        1.926232    0.767481   -1.427708
     19          1           0        1.755278    2.143079   -0.339007
     20          1           0        2.168770    0.692917    1.618366
     21          1           0        2.288261   -1.632273   -0.364737
     22          1           0        2.348910   -1.757123    1.392012
     23          1           0        4.639886   -1.875696    0.359859
     24          1           0        4.487083   -0.489685    1.435098
     25          1           0       -0.417427    0.227126   -1.522466
     26          1           0        0.248907   -1.361932   -1.089797
     27          1           0       -1.989427   -1.736510   -1.712663
     28          1           0       -1.974034   -1.884757    0.058651
     29          1           0       -3.299561   -0.508115    1.249611
     30          1           0       -2.542437    1.057611    0.846995
     31          1           0       -5.013842    1.287604    1.295423
     32          1           0       -4.585932    1.759110   -0.363965
     33          1           0       -5.127844   -0.503322   -0.858613
 ---------------------------------------------------------------------

 SCF Done:  E(UB3LYP) =  -941.964535115     A.U. after   32 cycles

 The electronic state is 2-A.
 Alpha  occ. eigenvalues --  -88.73910 -19.04757 -19.03962 -10.13762 -10.13513
 Alpha  occ. eigenvalues --  -10.13472 -10.10764 -10.10209 -10.07132 -10.07006
 Alpha  occ. eigenvalues --  -10.06766 -10.06721 -10.06293  -7.82561  -5.78953
 Alpha  occ. eigenvalues --   -5.78589  -5.77929  -0.96457  -0.93676  -0.74774
 Alpha  occ. eigenvalues --   -0.70499  -0.67427  -0.64761  -0.64419  -0.58807
 Alpha  occ. eigenvalues --   -0.54380  -0.51632  -0.51372  -0.48421  -0.45812
 Alpha  occ. eigenvalues --   -0.43326  -0.41926  -0.40135  -0.38343  -0.36398
 Alpha  occ. eigenvalues --   -0.35602  -0.34586  -0.34545  -0.34239  -0.32606
 Alpha  occ. eigenvalues --   -0.31570  -0.29708  -0.28676  -0.28590  -0.28446
 Alpha  occ. eigenvalues --   -0.25927  -0.25619  -0.24972  -0.24467  -0.22882
 Alpha  occ. eigenvalues --   -0.22167  -0.21106  -0.20035  -0.19708  -0.18162
 Alpha  occ. eigenvalues --   -0.12958   0.04423
 Alpha virt. eigenvalues --    0.06155   0.06763   0.07332   0.07853   0.08174
 Alpha virt. eigenvalues --    0.08588   0.09436   0.10048   0.10245   0.10480
 Alpha virt. eigenvalues --    0.10696   0.11019   0.12250   0.12452   0.13036

  Beta  occ. eigenvalues --  -88.73906 -19.04750 -19.03953 -10.13757 -10.13489
  Beta  occ. eigenvalues --  -10.13469 -10.10763 -10.10185 -10.07118 -10.06986
  Beta  occ. eigenvalues --  -10.06746 -10.06700 -10.06265  -7.82557  -5.78951
  Beta  occ. eigenvalues --   -5.78578  -5.77927  -0.96444  -0.93659  -0.74747
  Beta  occ. eigenvalues --   -0.70466  -0.67402  -0.64721  -0.64388  -0.58768
  Beta  occ. eigenvalues --   -0.54350  -0.51576  -0.51322  -0.48365  -0.45757
  Beta  occ. eigenvalues --   -0.43299  -0.41907  -0.40110  -0.38292  -0.36360
  Beta  occ. eigenvalues --   -0.35568  -0.34560  -0.34515  -0.34216  -0.32562
  Beta  occ. eigenvalues --   -0.31541  -0.29678  -0.28642  -0.28558  -0.28411
  Beta  occ. eigenvalues --   -0.25913  -0.25584  -0.24928  -0.24433  -0.22837
  Beta  occ. eigenvalues --   -0.22130  -0.21066  -0.20008  -0.19683  -0.18137
  Beta  occ. eigenvalues --   -0.12945
  Beta virt. eigenvalues --    0.06451   0.06873   0.07249   0.07815   0.08291
  Beta virt. eigenvalues --    0.08599   0.08824   0.10025   0.10341   0.10441
  Beta virt. eigenvalues --    0.10809   0.11073   0.11550   0.12512   0.12622

 Mulliken charges and spin densities:
               1          2
     1  C    0.941979  -1.315062
     2  C   -0.088904  -0.362360
     3  C    0.106927  -0.382935
     4  C   -0.505045   0.893582
     5  C    0.581400  -0.956458
     6  C   -0.560926   0.187113
     7  S    0.648716  -0.737009
     8  C   -0.639203   0.408271
     9  C    0.952689  -1.594618
    10  O   -0.159960   0.051471
    11  C   -0.244136   0.150487
    12  C    0.104613  -0.565863
    13  O   -0.273068   0.013303
    14  H   -0.582516   0.763149
    15  H   -0.036944   0.164996
    16  H    0.034815   0.081348
    17  H   -0.404388   0.589590
    18  H   -0.147975   0.284608
    19  H    0.006090   0.161826
    20  H    0.022968   0.230550
    21  H   -0.086116   0.216359
    22  H   -0.018796   0.172958
    23  H   -0.439230   0.621561
    24  H    0.057457   0.057550
    25  H    0.045708   0.197522
    26  H   -0.325022   0.487508
    27  H   -0.664181   0.854731
    28  H    0.087282   0.063872
    29  H    0.110968   0.049714
    30  H    0.145539  -0.018736
    31  H    0.115987   0.045499
    32  H    0.036904   0.109472
    33  H    0.176369   0.076004
 Sum of Mulliken charges =  -1.00000   1.00000

 Dipole moment (field-independent basis, Debye):
    X=             -5.3383    Y=              2.6517    Z=              4.9691  Tot=              7.7603
 Quadrupole moment (field-independent basis, Debye-Ang):
   XX=           -205.1854   YY=           -128.6843   ZZ=           -125.2371
   XY=             -2.2823   XZ=              5.1596   YZ=             -0.9424

 Summary of Natural Population Analysis:

                                       Natural Population
                Natural  -----------------------------------------------
    Atom  No    Charge         Core      Valence    Rydberg      Total
 -----------------------------------------------------------------------
      C    1   -0.18995      0.99963     2.18200    0.00832     3.18995
      C    2   -0.18833      0.99963     2.17938    0.00932     3.18833
      C    3   -0.19667      0.99959     2.18709    0.00999     3.19667
      C    4   -0.15817      0.99954     2.14711    0.01152     3.15817
      C    5   -0.19641      0.99959     2.18648    0.01034     3.19641
      C    6   -0.18841      0.99963     2.17946    0.00932     3.18841
      S    7    0.07869      4.99960     2.90519    0.01653     7.92131
      C    8   -0.26569      0.99958     2.25596    0.01014     3.26569
      C    9   -0.01051      0.99956     1.99503    0.01592     3.01051
      O   10   -0.31135      0.99988     3.30028    0.01119     4.31135
      C   11   -0.02702      0.99959     2.01726    0.01017     3.02702
      C   12   -0.01787      0.99961     2.00624    0.01202     3.01787
      O   13   -0.37161      0.99990     3.36476    0.00695     4.37161
      H   14    0.10072      0.00000     0.39753    0.00175     0.39928
      H   15    0.09586      0.00000     0.40219    0.00195     0.40414
      H   16    0.09064      0.00000     0.40806    0.00130     0.40936
      H   17    0.10208      0.00000     0.39662    0.00130     0.39792
      H   18    0.09781      0.00000     0.40028    0.00192     0.40219
      H   19    0.10230      0.00000     0.39644    0.00126     0.39770
      H   20    0.10102      0.00000     0.39762    0.00136     0.39898
      H   21    0.09734      0.00000     0.40069    0.00197     0.40266
      H   22    0.10212      0.00000     0.39650    0.00138     0.39788
      H   23    0.10243      0.00000     0.39621    0.00136     0.39757
      H   24    0.09034      0.00000     0.40837    0.00130     0.40966
      H   25    0.10407      0.00000     0.39399    0.00194     0.39593
      H   26    0.10858      0.00000     0.38909    0.00233     0.39142
      H   27    0.09710      0.00000     0.40062    0.00228     0.40290
      H   28    0.08145      0.00000     0.41688    0.00167     0.41855
      H   29    0.08172      0.00000     0.41666    0.00162     0.41828
      H   30    0.09186      0.00000     0.40629    0.00185     0.40814
      H   31    0.08491      0.00000     0.41374    0.00135     0.41509
      H   32    0.07741      0.00000     0.42087    0.00173     0.42259
      H   33    0.23355      0.00000     0.26306    0.00339     0.26645
 =======================================================================
   * Total *    0.00000     16.99532    38.82795    0.17672    56.00000

 Normal termination of Gaussian 16 at Mon Dec 14 17:17:51 2020.
