 Gaussian 16, Revision A.03,

 -----------------------------------------------------------
 # opt freq B3LYP/6-31G(d) empiricaldispersion=gd3bj scf=xqc
 -----------------------------------------------------------

 ------------------------------
 CID_85918663_JID_5480_neutraal
 ------------------------------
 Symbolic Z-matrix:
 Charge =  0 Multiplicity = 1

 SCF Done:  E(RB3LYP) =  -638.062745154     A.U. after   14 cycles
 SCF Done:  E(RB3LYP) =  -638.067546311     A.U. after   12 cycles
 SCF Done:  E(RB3LYP) =  -638.068069517     A.U. after   12 cycles
 SCF Done:  E(RB3LYP) =  -638.068572675     A.U. after   11 cycles
 SCF Done:  E(RB3LYP) =  -638.069011840     A.U. after   11 cycles
 SCF Done:  E(RB3LYP) =  -638.069230891     A.U. after   11 cycles
 SCF Done:  E(RB3LYP) =  -638.069296085     A.U. after   10 cycles
 SCF Done:  E(RB3LYP) =  -638.069328990     A.U. after   10 cycles
 SCF Done:  E(RB3LYP) =  -638.069367326     A.U. after   10 cycles
 SCF Done:  E(RB3LYP) =  -638.069365169     A.U. after   10 cycles
 SCF Done:  E(RB3LYP) =  -638.071756122     A.U. after    7 cycles
 SCF Done:  E(RB3LYP) =  -638.071756244     A.U. after    7 cycles
 SCF Done:  E(RB3LYP) =  -638.071756313     A.U. after    7 cycles
 SCF Done:  E(RB3LYP) =  -638.071756336     A.U. after    6 cycles
 SCF Done:  E(RB3LYP) =  -638.071756348     A.U. after    6 cycles
 Optimization completed.
    -- Stationary point found.
 Normal termination of Gaussian 16 at Thu Dec 10 16:35:24 2020.

 --------------------------------------------------------------------
 #N Geom=AllCheck Guess=TCheck SCRF=Check GenChk RB3LYP/6-31G(d) Freq
 --------------------------------------------------------------------

 Structure from the checkpoint file:  "JID_5480.chk"
 ------------------------------
 CID_85918663_JID_5480_neutraal
 ------------------------------
 Charge =  0 Multiplicity = 1

 SCF Done:  E(RB3LYP) =  -638.071756348     A.U. after    1 cycles

  Exact polarizability: 191.667  -0.475 152.462  -0.315  -5.204 103.695
 Approx polarizability: 264.572   5.270 241.301  -0.986 -12.671 147.579

                      1                      2                      3
                      A                      A                      A
 Frequencies --     46.5798                54.7958                74.3577
 Red. masses --      2.8294                 2.5988                 3.2788
 Frc consts  --      0.0036                 0.0046                 0.0107
 IR Inten    --      0.2169                 0.0874                 0.2299

                      4                      5                      6
                      A                      A                      A
 Frequencies --    105.5175               134.4788               143.0335
 Red. masses --      2.7360                 2.0627                 2.2043
 Frc consts  --      0.0179                 0.0220                 0.0266
 IR Inten    --      0.3956                 1.3580                 2.1551

                      7                      8                      9
                      A                      A                      A
 Frequencies --    165.9570               175.9676               176.3675
 Red. masses --      1.2657                 1.1694                 1.1541
 Frc consts  --      0.0205                 0.0213                 0.0212
 IR Inten    --      2.1443                 0.4745                 0.2742

                     10                     11                     12
                      A                      A                      A
 Frequencies --    192.7441               201.3659               240.4977
 Red. masses --      2.2373                 2.0906                 1.3501
 Frc consts  --      0.0490                 0.0499                 0.0460
 IR Inten    --      0.9166                 1.0822                 0.6611

                     13                     14                     15
                      A                      A                      A
 Frequencies --    275.4821               283.8521               290.3808
 Red. masses --      1.4310                 1.9796                 2.4546
 Frc consts  --      0.0640                 0.0940                 0.1219
 IR Inten    --      0.5273                24.5324                 3.2037

                     16                     17                     18
                      A                      A                      A
 Frequencies --    299.1836               322.0358               328.7552
 Red. masses --      1.8356                 1.6149                 2.0922
 Frc consts  --      0.0968                 0.0987                 0.1332
 IR Inten    --      4.8077                46.7154                13.8638

                     19                     20                     21
                      A                      A                      A
 Frequencies --    344.1585               352.0418               359.4357
 Red. masses --      3.3563                 2.8682                 3.4836
 Frc consts  --      0.2342                 0.2094                 0.2652
 IR Inten    --      3.8247                 3.2263                 2.8134

                     22                     23                     24
                      A                      A                      A
 Frequencies --    420.5101               465.2614               486.4022
 Red. masses --      3.4624                 4.3992                 3.6077
 Frc consts  --      0.3607                 0.5611                 0.5029
 IR Inten    --      0.2617                 5.7147                 5.0788

                     25                     26                     27
                      A                      A                      A
 Frequencies --    521.3460               539.5384               579.9329
 Red. masses --      3.4396                 3.1592                 4.1084
 Frc consts  --      0.5508                 0.5418                 0.8141
 IR Inten    --      2.4348                 1.8258                 0.1796

                     28                     29                     30
                      A                      A                      A
 Frequencies --    624.8864               674.6262               679.2227
 Red. masses --      3.1516                 4.8758                 4.5227
 Frc consts  --      0.7251                 1.3074                 1.2293
 IR Inten    --      7.5061                 0.6342                 2.6524

                     31                     32                     33
                      A                      A                      A
 Frequencies --    752.3054               789.6866               803.9894
 Red. masses --      4.4628                 1.2835                 1.4502
 Frc consts  --      1.4882                 0.4716                 0.5523
 IR Inten    --      0.2422                 5.4742                 2.6634

                     34                     35                     36
                      A                      A                      A
 Frequencies --    827.6923               880.1965               908.4543
 Red. masses --      2.1078                 1.2814                 2.2772
 Frc consts  --      0.8508                 0.5849                 1.1073
 IR Inten    --     13.6357                 7.0371                 2.7623

                     37                     38                     39
                      A                      A                      A
 Frequencies --    941.9245               966.2672              1022.6559
 Red. masses --      2.1767                 2.4460                 3.0255
 Frc consts  --      1.1378                 1.3455                 1.8643
 IR Inten    --      3.0086                 6.2659                20.1433

                     40                     41                     42
                      A                      A                      A
 Frequencies --   1038.7419              1048.8168              1058.1809
 Red. masses --      1.7103                 1.7313                 1.5942
 Frc consts  --      1.0873                 1.1221                 1.0517
 IR Inten    --      9.1860                 7.7399                11.4224

                     43                     44                     45
                      A                      A                      A
 Frequencies --   1068.6138              1074.8062              1078.9066
 Red. masses --      1.4609                 1.4886                 1.4636
 Frc consts  --      0.9829                 1.0132                 1.0038
 IR Inten    --      3.0330                 3.1844                 1.2318

                     46                     47                     48
                      A                      A                      A
 Frequencies --   1090.1896              1107.2798              1129.3263
 Red. masses --      2.1578                 1.7933                 2.1934
 Frc consts  --      1.5110                 1.2954                 1.6482
 IR Inten    --     13.1563                11.7584               105.7665

                     49                     50                     51
                      A                      A                      A
 Frequencies --   1135.6812              1217.1189              1245.3150
 Red. masses --      1.8150                 2.2512                 3.1077
 Frc consts  --      1.3793                 1.9649                 2.8396
 IR Inten    --     36.6070                40.0358                72.1982

                     52                     53                     54
                      A                      A                      A
 Frequencies --   1269.7708              1294.9513              1296.3858
 Red. masses --      1.8889                 1.5276                 2.4158
 Frc consts  --      1.7943                 1.5093                 2.3921
 IR Inten    --     14.0396                83.9940                38.5095

                     55                     56                     57
                      A                      A                      A
 Frequencies --   1343.0726              1346.6525              1367.0556
 Red. masses --      1.9534                 2.2736                 2.6511
 Frc consts  --      2.0761                 2.4292                 2.9191
 IR Inten    --     24.9370                 8.6619                14.6856

                     58                     59                     60
                      A                      A                      A
 Frequencies --   1397.1645              1409.3549              1425.9914
 Red. masses --      1.2560                 1.4983                 1.2768
 Frc consts  --      1.4446                 1.7534                 1.5297
 IR Inten    --     15.9833                 7.0624                 4.3733

                     61                     62                     63
                      A                      A                      A
 Frequencies --   1431.6989              1433.8243              1439.3952
 Red. masses --      1.2970                 1.3503                 1.3165
 Frc consts  --      1.5664                 1.6356                 1.6071
 IR Inten    --      5.6167                18.9323                 3.4325

                     64                     65                     66
                      A                      A                      A
 Frequencies --   1440.4977              1448.0657              1481.0860
 Red. masses --      1.3821                 1.2635                 2.5205
 Frc consts  --      1.6897                 1.5610                 3.2576
 IR Inten    --     21.0257                 5.8082                24.7847

                     67                     68                     69
                      A                      A                      A
 Frequencies --   1494.8467              1505.4824              1513.0321
 Red. masses --      1.8951                 1.1017                 1.0967
 Frc consts  --      2.4950                 1.4711                 1.4793
 IR Inten    --     70.2655                 8.8523                 2.3793

                     70                     71                     72
                      A                      A                      A
 Frequencies --   1518.4355              1520.1219              1521.1465
 Red. masses --      1.0633                 1.0459                 1.0540
 Frc consts  --      1.4444                 1.4240                 1.4370
 IR Inten    --     17.4837                 2.3014                 8.8744

                     73                     74                     75
                      A                      A                      A
 Frequencies --   1523.6650              1526.1862              1530.5030
 Red. masses --      1.0521                 1.0446                 1.0645
 Frc consts  --      1.4391                 1.4335                 1.4691
 IR Inten    --      3.2875                 0.3047                15.7522

                     76                     77                     78
                      A                      A                      A
 Frequencies --   1535.4977              1536.6244              1541.8210
 Red. masses --      1.0934                 1.0736                 1.3970
 Frc consts  --      1.5188                 1.4935                 1.9567
 IR Inten    --     10.3308                 5.1706                32.5131

                     79                     80                     81
                      A                      A                      A
 Frequencies --   1545.4648              1630.4982              1676.1251
 Red. masses --      1.1885                 6.5962                 6.0498
 Frc consts  --      1.6726                10.3321                10.0139
 IR Inten    --     25.3789                31.9157                13.9609

                     82                     83                     84
                      A                      A                      A
 Frequencies --   2978.2648              3013.4286              3040.0962
 Red. masses --      1.0724                 1.0423                 1.0491
 Frc consts  --      5.6044                 5.5767                 5.7125
 IR Inten    --     61.1980                52.7044                29.7464

                     85                     86                     87
                      A                      A                      A
 Frequencies --   3046.1987              3046.8587              3048.0848
 Red. masses --      1.0392                 1.0416                 1.0395
 Frc consts  --      5.6815                 5.6974                 5.6900
 IR Inten    --     18.7566                49.3296                12.4629

                     88                     89                     90
                      A                      A                      A
 Frequencies --   3055.0144              3057.2610              3093.5399
 Red. masses --      1.1005                 1.0577                 1.1024
 Frc consts  --      6.0515                 5.8246                 6.2156
 IR Inten    --     27.6651                53.6907                10.4891

                     91                     92                     93
                      A                      A                      A
 Frequencies --   3102.7818              3106.9489              3107.3166
 Red. masses --      1.0923                 1.0954                 1.0854
 Frc consts  --      6.1956                 6.2300                 6.1744
 IR Inten    --     20.7998                 2.4676                18.2729

                     94                     95                     96
                      A                      A                      A
 Frequencies --   3111.6556              3119.2681              3128.0949
 Red. masses --      1.1007                 1.0966                 1.1036
 Frc consts  --      6.2790                 6.2866                 6.3622
 IR Inten    --     57.2440                39.6139                27.2505

                     97                     98                     99
                      A                      A                      A
 Frequencies --   3128.8032              3132.8720              3143.7209
 Red. masses --      1.0947                 1.1019                 1.0987
 Frc consts  --      6.3141                 6.3720                 6.3973
 IR Inten    --     10.9956                60.2641                14.0330

                    100                    101                    102
                      A                      A                      A
 Frequencies --   3152.6638              3166.9312              3769.6162
 Red. masses --      1.1026                 1.0897                 1.0653
 Frc consts  --      6.4570                 6.4391                 8.9191
 IR Inten    --      6.2911                25.5163                44.6595

 - Thermochemistry -
 -------------------
 Temperature   298.150 Kelvin.  Pressure   1.00000 Atm.
 Atom     1 has atomic number  6 and mass  12.00000

 Molecular mass:   207.16231 amu.
 Principal axes and moments of inertia in atomic units:
                           1         2         3
     Eigenvalues --  1979.364804365.818925123.98102
           X            0.99993  -0.01188  -0.00014
           Y            0.01188   0.99990   0.00738
           Z            0.00005  -0.00738   0.99997
 This molecule is an asymmetric top.
 Rotational symmetry number  1.
 Warning -- assumption of classical behavior for rotation
           may cause significant error
 Rotational temperatures (Kelvin)      0.04376     0.01984     0.01690
 Rotational constants (GHZ):           0.91178     0.41338     0.35221
 Zero-point vibrational energy     838813.7 (Joules/Mol)
                                  200.48129 (Kcal/Mol)
 Warning -- explicit consideration of  27 degrees of freedom as
           vibrations may cause significant error
 Vibrational temperatures:     67.02    78.84   106.98   151.82   193.49
          (Kelvin)            205.79   238.78   253.18   253.75   277.32
                              289.72   346.02   396.36   408.40   417.79
                              430.46   463.34   473.01   495.17   506.51
                              517.15   605.02   669.41   699.82   750.10
                              776.28   834.39   899.07   970.64   977.25
                             1082.40  1136.18  1156.76  1190.86  1266.41
                             1307.06  1355.22  1390.24  1471.37  1494.52
                             1509.01  1522.49  1537.50  1546.41  1552.31
                             1568.54  1593.13  1624.85  1633.99  1751.16
                             1791.73  1826.92  1863.15  1865.21  1932.38
                             1937.53  1966.89  2010.21  2027.75  2051.68
                             2059.90  2062.95  2070.97  2072.55  2083.44
                             2130.95  2150.75  2166.05  2176.92  2184.69
                             2187.12  2188.59  2192.21  2195.84  2202.05
                             2209.24  2210.86  2218.34  2223.58  2345.92
                             2411.57  4285.06  4335.65  4374.02  4382.80
                             4383.75  4385.51  4395.48  4398.72  4450.91
                             4464.21  4470.21  4470.74  4476.98  4487.93
                             4500.63  4501.65  4507.50  4523.11  4535.98
                             4556.51  5423.64

 Zero-point correction=                           0.319487 (Hartree/Particle)
 Thermal correction to Energy=                    0.336650
 Thermal correction to Enthalpy=                  0.337594
 Thermal correction to Gibbs Free Energy=         0.275956
 Sum of electronic and zero-point Energies=           -637.752269
 Sum of electronic and thermal Energies=              -637.735107
 Sum of electronic and thermal Enthalpies=            -637.734162
 Sum of electronic and thermal Free Energies=         -637.795801

                     E (Thermal)             CV                S
                      KCal/Mol        Cal/Mol-Kelvin    Cal/Mol-Kelvin
 Total                  211.251             64.587            129.729
 Electronic               0.000              0.000              0.000
 Translational            0.889              2.981             41.889
 Rotational               0.889              2.981             32.160
 Vibrational            209.473             58.625             55.680
 Vibration     1          0.595              1.979              4.958
 Vibration     2          0.596              1.976              4.636
 Vibration     3          0.599              1.966              4.035
 Vibration     4          0.605              1.945              3.350
 Vibration     5          0.613              1.919              2.881
 Vibration     6          0.616              1.910              2.763
 Vibration     7          0.624              1.884              2.481
 Vibration     8          0.628              1.872              2.371
 Vibration     9          0.628              1.871              2.367
 Vibration    10          0.635              1.850              2.201
 Vibration    11          0.638              1.838              2.121
 Vibration    12          0.658              1.778              1.799
 Vibration    13          0.677              1.719              1.562
 Vibration    14          0.682              1.704              1.510
 Vibration    15          0.686              1.692              1.472
 Vibration    16          0.692              1.675              1.421
 Vibration    17          0.707              1.631              1.300
 Vibration    18          0.712              1.618              1.266
 Vibration    19          0.723              1.587              1.193
 Vibration    20          0.729              1.571              1.157
 Vibration    21          0.734              1.556              1.125
 Vibration    22          0.783              1.426              0.890
 Vibration    23          0.823              1.327              0.751
 Vibration    24          0.842              1.280              0.693
 Vibration    25          0.876              1.203              0.607
 Vibration    26          0.895              1.163              0.566
 Vibration    27          0.937              1.075              0.485

                           ! Non-Optimized Parameters !
 Normal termination of Gaussian 16 at Thu Dec 10 16:47:51 2020.

 ----------------------------------------------------------------------
 # B3LYP/6-311++G(d,p) empiricaldispersion=gd3bj scf=xqc pop=npa geom=c
 heck
 ----------------------------------------------------------------------

 --------------------------------------
 CID_85918663_JID_5480_Energie_neutraal
 --------------------------------------
 Structure from the checkpoint file:  "JID_5480.chk"
 Charge =  0 Multiplicity = 1

 SCF Done:  E(RB3LYP) =  -638.249920333     A.U. after   14 cycles
 Normal termination of Gaussian 16 at Thu Dec 10 16:53:16 2020.

 ----------------------------------------------------------------------
 # B3LYP/6-311++G(d,p) empiricaldispersion=gd3bj scf=xqc pop=npa geom=c
 heck
 ----------------------------------------------------------------------

 ------------------------------------
 CID_85918663_JID_5480_Energie_kation
 ------------------------------------
 Structure from the checkpoint file:  "JID_5480.chk"
 Charge =  1 Multiplicity = 2

 SCF Done:  E(UB3LYP) =  -637.993138017     A.U. after   23 cycles
 Normal termination of Gaussian 16 at Thu Dec 10 17:09:17 2020.
 Gaussian 16:  ES64L-G16RevA.03 25-Dec-2016

 ----------------------------------------------------------------------
 # B3LYP/6-311++G(d,p) empiricaldispersion=gd3bj scf=xqc pop=npa geom=c
 heck
 ----------------------------------------------------------------------

 -----------------------------------
 CID_85918663_JID_5480_Energie_anion
 -----------------------------------
 Structure from the checkpoint file:  "JID_5480.chk"
 Charge = -1 Multiplicity = 2

                         Standard orientation:
 ---------------------------------------------------------------------
 Center     Atomic      Atomic             Coordinates (Angstroms)
 Number     Number       Type             X           Y           Z
 ---------------------------------------------------------------------
      1          6           0        2.412001    0.560004    2.203639
      2          6           0        2.197653   -0.613802    1.238694
      3          7           0        1.622804   -0.255324   -0.053428
      4          6           0        2.522644    0.284097   -1.064012
      5          6           0        3.404135   -0.798469   -1.695196
      6          6           0        0.236480    0.060252   -0.084007
      7          6           0       -0.677861   -1.013718    0.000315
      8          6           0       -2.050814   -0.739415    0.004071
      9          6           0       -2.546969    0.565321   -0.114770
     10          6           0       -1.618575    1.599825   -0.216188
     11          6           0       -0.238260    1.388047   -0.188867
     12          6           0        0.681201    2.586149   -0.242258
     13          6           0       -4.032536    0.828901   -0.119877
     14          8           0       -2.894364   -1.820862    0.111315
     15          6           0       -0.221868   -2.447631    0.050972
     16          1           0        3.101161    1.302368    1.785620
     17          1           0        2.836267    0.206650    3.151230
     18          1           0        1.461028    1.057633    2.420664
     19          1           0        3.151927   -1.123102    1.059525
     20          1           0        1.542418   -1.351344    1.713999
     21          1           0        1.905913    0.732407   -1.846871
     22          1           0        3.162024    1.090623   -0.667749
     23          1           0        2.783704   -1.570589   -2.161538
     24          1           0        4.057260   -0.362550   -2.460801
     25          1           0        4.045679   -1.283694   -0.951711
     26          1           0       -1.988165    2.620522   -0.291897
     27          1           0        0.134573    3.493734    0.032597
     28          1           0        1.524117    2.481997    0.445366
     29          1           0        1.102045    2.753204   -1.241800
     30          1           0       -4.538968    0.350649   -0.971552
     31          1           0       -4.521091    0.468747    0.797188
     32          1           0       -4.235135    1.901023   -0.191880
     33          1           0       -3.808413   -1.512713    0.024722
     34          1           0       -0.220910   -2.842640    1.075981
     35          1           0       -0.896233   -3.084815   -0.527943
     36          1           0        0.792693   -2.531314   -0.344770
 ---------------------------------------------------------------------

 SCF Done:  E(UB3LYP) =  -638.236648666     A.U. after   33 cycles
 SCF Done:  E(UB3LYP) =  -638.236648666     a.u. after    1 cycles

 The electronic state is 2-A.
 Alpha  occ. eigenvalues --  -19.04886 -14.20679 -10.12407 -10.10132 -10.10076
 Alpha  occ. eigenvalues --  -10.10040 -10.07567 -10.07313 -10.07275 -10.07175
 Alpha  occ. eigenvalues --  -10.06813 -10.06643 -10.06569 -10.06391 -10.05954
 Alpha  occ. eigenvalues --   -0.95835  -0.83556  -0.74939  -0.68532  -0.67654
 Alpha  occ. eigenvalues --   -0.66758  -0.63452  -0.60368  -0.57704  -0.57435
 Alpha  occ. eigenvalues --   -0.54244  -0.50273  -0.48302  -0.47564  -0.43058
 Alpha  occ. eigenvalues --   -0.40402  -0.38679  -0.37399  -0.35326  -0.34078
 Alpha  occ. eigenvalues --   -0.33543  -0.33041  -0.32142  -0.31664  -0.31330
 Alpha  occ. eigenvalues --   -0.30992  -0.30852  -0.29858  -0.29199  -0.28456
 Alpha  occ. eigenvalues --   -0.27986  -0.27623  -0.27283  -0.26823  -0.25505
 Alpha  occ. eigenvalues --   -0.24917  -0.24154  -0.23513  -0.22023  -0.14913
 Alpha  occ. eigenvalues --   -0.11802  -0.10182   0.04182
 Alpha virt. eigenvalues --    0.05646   0.07023   0.07191   0.08257   0.08439
 Alpha virt. eigenvalues --    0.08811   0.09333   0.09724   0.10081   0.10364
 Alpha virt. eigenvalues --    0.10680   0.11085   0.11260   0.11579   0.12895

  Beta  occ. eigenvalues --  -19.04856 -14.20679 -10.12403 -10.10132 -10.10062
  Beta  occ. eigenvalues --  -10.10027 -10.07566 -10.07312 -10.07274 -10.07112
  Beta  occ. eigenvalues --  -10.06800 -10.06634 -10.06545 -10.06367 -10.05942
  Beta  occ. eigenvalues --   -0.95775  -0.83547  -0.74921  -0.68510  -0.67629
  Beta  occ. eigenvalues --   -0.66730  -0.63418  -0.60316  -0.57674  -0.57390
  Beta  occ. eigenvalues --   -0.54190  -0.50221  -0.48250  -0.47543  -0.43020
  Beta  occ. eigenvalues --   -0.40385  -0.38652  -0.37372  -0.35297  -0.34040
  Beta  occ. eigenvalues --   -0.33504  -0.33017  -0.32112  -0.31644  -0.31296
  Beta  occ. eigenvalues --   -0.30967  -0.30818  -0.29812  -0.29171  -0.28427
  Beta  occ. eigenvalues --   -0.27954  -0.27589  -0.27247  -0.26801  -0.25480
  Beta  occ. eigenvalues --   -0.24893  -0.24134  -0.23491  -0.22004  -0.14899
  Beta  occ. eigenvalues --   -0.11786  -0.10169
  Beta virt. eigenvalues --    0.06083   0.06909   0.07353   0.07591   0.08726
  Beta virt. eigenvalues --    0.08807   0.08930   0.09619   0.10033   0.10287
  Beta virt. eigenvalues --    0.10796   0.10813   0.11344   0.11568   0.11924

 Mulliken charges and spin densities:
               1          2
     1  C    0.238720  -0.822705
     2  C   -0.353701   0.276913
     3  N    0.230861   0.096259
     4  C   -0.403224   0.505601
     5  C    0.885714  -1.470366
     6  C   -0.382690   0.241881
     7  C    0.350315  -0.374016
     8  C   -0.205040  -0.628019
     9  C   -1.707423   3.088356
    10  C   -0.433749  -0.190422
    11  C   -0.134241  -0.111333
    12  C    0.079030  -0.514587
    13  C    3.261962  -3.780789
    14  O   -0.256519   0.038798
    15  C   -0.613145  -0.098091
    16  H   -0.127094   0.283152
    17  H   -0.214049   0.349740
    18  H    0.092859   0.055194
    19  H   -0.015297   0.143464
    20  H    0.103619   0.014354
    21  H    0.141464  -0.027467
    22  H   -0.128103   0.268456
    23  H    0.014485   0.133237
    24  H   -0.242602   0.376831
    25  H   -0.098408   0.218965
    26  H    0.105268  -0.019533
    27  H   -0.238783   0.407785
    28  H    0.256747  -0.133827
    29  H   -0.019897   0.176102
    30  H   -0.381472   0.543548
    31  H   -0.318215   0.484752
    32  H   -0.552665   0.732184
    33  H   -0.193769   0.485968
    34  H    0.039045   0.146051
    35  H    0.052712   0.115511
    36  H    0.167283  -0.011945
 Sum of Mulliken charges =  -1.00000   1.00000

 Dipole moment (field-independent basis, Debye):
    X=              3.7421    Y=             -0.2999    Z=              0.1285  Tot=              3.7563
 Quadrupole moment (field-independent basis, Debye-Ang):
   XX=           -190.7563   YY=           -132.2931   ZZ=           -129.5104
   XY=             -0.4967   XZ=             -0.2603   YZ=             -0.3713

 Summary of Natural Population Analysis:

                                       Natural Population
                Natural  -----------------------------------------------
    Atom  No    Charge         Core      Valence    Rydberg      Total
 -----------------------------------------------------------------------
      C    1   -0.29662      0.99966     2.29175    0.00520     3.29662
      C    2   -0.07930      0.99960     2.06919    0.01051     3.07930
      N    3   -0.28814      0.99967     2.77358    0.01489     3.78814
      C    4   -0.08095      0.99961     2.06979    0.01156     3.08095
      C    5   -0.28589      0.99966     2.28182    0.00442     3.28589
      C    6    0.09168      0.99939     1.89724    0.01170     2.90832
      C    7   -0.03789      0.99944     2.02892    0.00953     3.03789
      C    8    0.16010      0.99928     1.82741    0.01321     2.83990
      C    9   -0.04894      0.99948     2.03993    0.00953     3.04894
      C   10   -0.09183      0.99949     2.08319    0.00915     3.09183
      C   11   -0.03718      0.99947     2.02847    0.00923     3.03718
      C   12   -0.29151      0.99963     2.28722    0.00466     3.29151
      C   13   -0.30337      0.99964     2.29666    0.00708     3.30337
      O   14   -0.34577      0.99988     3.33938    0.00651     4.34577
      C   15   -0.29610      0.99963     2.29148    0.00499     3.29610
      H   16    0.09582      0.00000     0.40304    0.00114     0.40418
      H   17    0.09799      0.00000     0.40093    0.00108     0.40201
      H   18    0.10047      0.00000     0.39845    0.00108     0.39953
      H   19    0.09158      0.00000     0.40723    0.00119     0.40842
      H   20    0.09559      0.00000     0.40312    0.00129     0.40441
      H   21    0.09869      0.00000     0.39987    0.00144     0.40131
      H   22    0.08322      0.00000     0.41520    0.00158     0.41678
      H   23    0.09774      0.00000     0.40100    0.00126     0.40226
      H   24    0.09702      0.00000     0.40180    0.00119     0.40298
      H   25    0.09524      0.00000     0.40333    0.00143     0.40476
      H   26    0.09597      0.00000     0.40306    0.00096     0.40403
      H   27    0.10066      0.00000     0.39842    0.00092     0.39934
      H   28    0.10435      0.00000     0.39414    0.00151     0.39565
      H   29    0.10079      0.00000     0.39793    0.00127     0.39921
      H   30    0.10466      0.00000     0.39299    0.00235     0.39534
      H   31    0.10435      0.00000     0.39371    0.00193     0.39565
      H   32    0.10900      0.00000     0.38953    0.00148     0.39100
      H   33    0.24054      0.00000     0.25492    0.00454     0.25946
      H   34    0.10205      0.00000     0.39674    0.00121     0.39795
      H   35    0.10901      0.00000     0.38990    0.00110     0.39099
      H   36    0.10696      0.00000     0.39174    0.00131     0.39304
 =======================================================================
   * Total *    0.00000     14.99354    41.84306    0.16340    57.00000

 Normal termination of Gaussian 16 at Thu Dec 10 17:33:37 2020.
