 Gaussian 16, Revision A.03,

 -----------------------------------------------------------
 # opt freq B3LYP/6-31G(d) empiricaldispersion=gd3bj scf=xqc
 -----------------------------------------------------------

 -------------------------------
 CID_106100839_JID_5088_neutraal
 -------------------------------
 Symbolic Z-matrix:
 Charge =  0 Multiplicity = 1

 SCF Done:  E(RB3LYP) =  -722.034528981     A.U. after   14 cycles
 SCF Done:  E(RB3LYP) =  -722.040552647     A.U. after   12 cycles
 SCF Done:  E(RB3LYP) =  -722.041576471     A.U. after   12 cycles
 SCF Done:  E(RB3LYP) =  -722.041953859     A.U. after   11 cycles
 SCF Done:  E(RB3LYP) =  -722.042064561     A.U. after   11 cycles
 SCF Done:  E(RB3LYP) =  -722.042138543     A.U. after   10 cycles
 SCF Done:  E(RB3LYP) =  -722.042253914     A.U. after   10 cycles
 SCF Done:  E(RB3LYP) =  -722.042400699     A.U. after   11 cycles
 SCF Done:  E(RB3LYP) =  -722.042473176     A.U. after   10 cycles
 SCF Done:  E(RB3LYP) =  -722.042600419     A.U. after   11 cycles
 SCF Done:  E(RB3LYP) =  -722.042668817     A.U. after    8 cycles
 SCF Done:  E(RB3LYP) =  -722.042668852     A.U. after    7 cycles
 SCF Done:  E(RB3LYP) =  -722.042668891     A.U. after    7 cycles
 SCF Done:  E(RB3LYP) =  -722.042668915     A.U. after    6 cycles
 SCF Done:  E(RB3LYP) =  -722.042668935     A.U. after    7 cycles
 Optimization completed.
    -- Stationary point found.
 Normal termination of Gaussian 16 at Sat Feb 27 18:29:08 2021.

 --------------------------------------------------------------------
 #N Geom=AllCheck Guess=TCheck SCRF=Check GenChk RB3LYP/6-31G(d) Freq
 --------------------------------------------------------------------

 Structure from the checkpoint file:  "JID_5088.chk"
 -------------------------------
 CID_106100839_JID_5088_neutraal
 -------------------------------
 Charge =  0 Multiplicity = 1

 SCF Done:  E(RB3LYP) =  -722.042668935     A.U. after    1 cycles

  Exact polarizability: 142.597  -1.727 123.560  11.148  -0.930  96.874
 Approx polarizability: 177.156   0.764 191.007  22.366   3.622 152.175

                      1                      2                      3
                      A                      A                      A
 Frequencies --     32.3011                34.4260                51.5444
 Red. masses --      5.4343                 4.0423                 4.7251
 Frc consts  --      0.0033                 0.0028                 0.0074
 IR Inten    --      4.8641                 6.2359                 0.6186

                      4                      5                      6
                      A                      A                      A
 Frequencies --     62.0435               111.2953               127.8981
 Red. masses --      4.0607                 3.4959                 1.2716
 Frc consts  --      0.0092                 0.0255                 0.0123
 IR Inten    --      1.0451                13.9316                 0.4611

                      7                      8                      9
                      A                      A                      A
 Frequencies --    152.0896               199.6037               207.6687
 Red. masses --      2.3017                 3.3979                 2.5822
 Frc consts  --      0.0314                 0.0798                 0.0656
 IR Inten    --      0.1631                 1.0640                 1.5503

                     10                     11                     12
                      A                      A                      A
 Frequencies --    217.5283               250.7380               270.8134
 Red. masses --      2.4930                 4.6128                 2.7629
 Frc consts  --      0.0695                 0.1709                 0.1194
 IR Inten    --      3.0820                 0.0663                 1.6186

                     13                     14                     15
                      A                      A                      A
 Frequencies --    305.4916               345.6336               378.3120
 Red. masses --      3.6518                 1.1974                 2.5788
 Frc consts  --      0.2008                 0.0843                 0.2175
 IR Inten    --      1.8176                84.2383                56.3127

                     16                     17                     18
                      A                      A                      A
 Frequencies --    405.0312               430.3958               438.5708
 Red. masses --      2.9780                 2.1372                 3.2068
 Frc consts  --      0.2878                 0.2333                 0.3634
 IR Inten    --      7.6331                 0.9557                 5.9877

                     19                     20                     21
                      A                      A                      A
 Frequencies --    487.5553               639.2915               657.8028
 Red. masses --      3.9035                 2.8520                 3.5060
 Frc consts  --      0.5467                 0.6867                 0.8938
 IR Inten    --      6.0133                 2.8366                 6.8178

                     22                     23                     24
                      A                      A                      A
 Frequencies --    684.0343               704.1496               727.2245
 Red. masses --      6.2186                 4.7345                 5.5202
 Frc consts  --      1.7143                 1.3831                 1.7200
 IR Inten    --      5.2278                 9.8611                 9.4562

                     25                     26                     27
                      A                      A                      A
 Frequencies --    789.9925               809.3962               817.3744
 Red. masses --      3.7059                 2.4021                 1.6299
 Frc consts  --      1.3627                 0.9272                 0.6416
 IR Inten    --      2.3689                13.5653                 8.0323

                     28                     29                     30
                      A                      A                      A
 Frequencies --    868.1060               879.3475               926.3671
 Red. masses --      1.2652                 2.1296                 2.8924
 Frc consts  --      0.5618                 0.9702                 1.4624
 IR Inten    --     50.6299                11.2025                32.2606

                     31                     32                     33
                      A                      A                      A
 Frequencies --    942.7928               963.9685               974.1054
 Red. masses --      2.5396                 2.1575                 2.6913
 Frc consts  --      1.3300                 1.1812                 1.5046
 IR Inten    --     11.7013                10.8044                 3.1172

                     34                     35                     36
                      A                      A                      A
 Frequencies --    983.3084              1017.1982              1031.0481
 Red. masses --      2.5451                 2.3141                 1.6631
 Frc consts  --      1.4499                 1.4108                 1.0417
 IR Inten    --     23.8949                22.8310                12.4658

                     37                     38                     39
                      A                      A                      A
 Frequencies --   1056.5687              1077.2442              1092.6414
 Red. masses --      5.8747                 2.4635                 1.6581
 Frc consts  --      3.8640                 1.6843                 1.1663
 IR Inten    --      9.9413                25.3559                13.3391

                     40                     41                     42
                      A                      A                      A
 Frequencies --   1111.8471              1125.3624              1156.1451
 Red. masses --      3.3056                 2.3097                 3.7978
 Frc consts  --      2.4077                 1.7234                 2.9909
 IR Inten    --     62.6899                19.1294                50.6633

                     43                     44                     45
                      A                      A                      A
 Frequencies --   1168.8744              1174.6311              1197.4683
 Red. masses --      1.3076                 2.4417                 1.8789
 Frc consts  --      1.0526                 1.9850                 1.5874
 IR Inten    --      5.6760                30.3736                 7.6028

                     46                     47                     48
                      A                      A                      A
 Frequencies --   1210.7383              1227.9556              1230.0001
 Red. masses --      1.2288                 1.3880                 1.5090
 Frc consts  --      1.0613                 1.2332                 1.3451
 IR Inten    --     15.6227                26.9730                 4.2473

                     49                     50                     51
                      A                      A                      A
 Frequencies --   1256.1901              1261.5490              1290.8484
 Red. masses --      2.3974                 1.2941                 1.6559
 Frc consts  --      2.2290                 1.2134                 1.6257
 IR Inten    --      0.7473                24.9630                20.6655

                     52                     53                     54
                      A                      A                      A
 Frequencies --   1300.8576              1333.4192              1355.9672
 Red. masses --      1.3118                 1.3318                 1.3832
 Frc consts  --      1.3079                 1.3952                 1.4984
 IR Inten    --     26.6078                 2.5449                14.0373

                     55                     56                     57
                      A                      A                      A
 Frequencies --   1384.1581              1387.5207              1390.4771
 Red. masses --      1.5035                 1.4292                 3.8707
 Frc consts  --      1.6972                 1.6211                 4.4092
 IR Inten    --     18.7289                 9.4964                 5.8009

                     58                     59                     60
                      A                      A                      A
 Frequencies --   1422.2920              1436.7991              1443.4669
 Red. masses --      1.9202                 1.6033                 2.7328
 Frc consts  --      2.2886                 1.9501                 3.3548
 IR Inten    --      6.1879                 3.7082                18.1800

                     61                     62                     63
                      A                      A                      A
 Frequencies --   1472.0692              1502.2549              1508.8793
 Red. masses --      1.4299                 1.1109                 1.2422
 Frc consts  --      1.8257                 1.4772                 1.6663
 IR Inten    --      3.9490                 1.0378                67.0738

                     64                     65                     66
                      A                      A                      A
 Frequencies --   1518.2469              1527.6565              1537.4939
 Red. masses --      1.0944                 1.0879                 1.0847
 Frc consts  --      1.4863                 1.4959                 1.5107
 IR Inten    --     17.2947                 9.8948                 3.6572

                     67                     68                     69
                      A                      A                      A
 Frequencies --   1542.0653              1546.6903              1552.8771
 Red. masses --      1.0901                 1.1945                 1.0993
 Frc consts  --      1.5273                 1.6836                 1.5618
 IR Inten    --      2.5596                 1.7784                 0.0332

                     70                     71                     72
                      A                      A                      A
 Frequencies --   1561.3935              1576.8521              2906.6713
 Red. masses --      3.0967                 4.1631                 1.0736
 Frc consts  --      4.4481                 6.0988                 5.3445
 IR Inten    --     57.1636                 9.4496                84.1298

                     73                     74                     75
                      A                      A                      A
 Frequencies --   3000.0431              3008.3139              3034.1877
 Red. masses --      1.0634                 1.0630                 1.0693
 Frc consts  --      5.6388                 5.6682                 5.8000
 IR Inten    --     39.2152                79.6882                53.0674

                     76                     77                     78
                      A                      A                      A
 Frequencies --   3042.9324              3050.2026              3062.0082
 Red. masses --      1.0980                 1.0998                 1.0429
 Frc consts  --      5.9901                 6.0287                 5.7610
 IR Inten    --     20.9956                19.6030                22.6457

                     79                     80                     81
                      A                      A                      A
 Frequencies --   3063.1968              3082.5238              3116.4770
 Red. masses --      1.0805                 1.0667                 1.0972
 Frc consts  --      5.9735                 5.9717                 6.2789
 IR Inten    --     60.0608                25.9509                42.3030

                     82                     83                     84
                      A                      A                      A
 Frequencies --   3136.1333              3153.9950              3168.4510
 Red. masses --      1.1004                 1.1010                 1.1063
 Frc consts  --      6.3768                 6.4528                 6.5436
 IR Inten    --     14.1446                14.5235                 0.9659

                     85                     86                     87
                      A                      A                      A
 Frequencies --   3272.8154              3490.4686              3727.7059
 Red. masses --      1.0979                 1.0736                 1.0660
 Frc consts  --      6.9289                 7.7062                 8.7276
 IR Inten    --      1.7058                 9.3318                12.3352

 - Thermochemistry -
 -------------------
 Temperature   298.150 Kelvin.  Pressure   1.00000 Atm.
 Atom     1 has atomic number  8 and mass  15.99491

 Molecular mass:   212.12733 amu.
 Principal axes and moments of inertia in atomic units:
                           1         2         3
     Eigenvalues --  1138.108777351.725987773.65400
           X            0.99995  -0.00912  -0.00360
           Y            0.00902   0.99959  -0.02717
           Z            0.00385   0.02714   0.99962
 This molecule is an asymmetric top.
 Rotational symmetry number  1.
 Warning -- assumption of classical behavior for rotation
           may cause significant error
 Rotational temperatures (Kelvin)      0.07610     0.01178     0.01114
 Rotational constants (GHZ):           1.58574     0.24549     0.23216
 Zero-point vibrational energy     694911.2 (Joules/Mol)
                                  166.08776 (Kcal/Mol)
 Warning -- explicit consideration of  19 degrees of freedom as
           vibrations may cause significant error
 Vibrational temperatures:     46.47    49.53    74.16    89.27   160.13
          (Kelvin)            184.02   218.82   287.19   298.79   312.97
                              360.76   389.64   439.53   497.29   544.31
                              582.75   619.24   631.01   701.48   919.80
                              946.43   984.17  1013.11  1046.31  1136.62
                             1164.54  1176.02  1249.01  1265.18  1332.84
                             1356.47  1386.94  1401.52  1414.76  1463.52
                             1483.45  1520.17  1549.91  1572.07  1599.70
                             1619.15  1663.43  1681.75  1690.03  1722.89
                             1741.98  1766.75  1769.70  1807.38  1815.09
                             1857.24  1871.64  1918.49  1950.93  1991.49
                             1996.33  2000.59  2046.36  2067.23  2076.83
                             2117.98  2161.41  2170.94  2184.42  2197.96
                             2212.11  2218.69  2225.34  2234.24  2246.50
                             2268.74  4182.05  4316.39  4328.29  4365.52
                             4378.10  4388.56  4405.55  4407.26  4435.06
                             4483.92  4512.20  4537.90  4558.69  4708.85
                             5022.01  5363.34

 Zero-point correction=                           0.264678 (Hartree/Particle)
 Thermal correction to Energy=                    0.279363
 Thermal correction to Enthalpy=                  0.280307
 Thermal correction to Gibbs Free Energy=         0.221156
 Sum of electronic and zero-point Energies=           -721.777991
 Sum of electronic and thermal Energies=              -721.763306
 Sum of electronic and thermal Enthalpies=            -721.762362
 Sum of electronic and thermal Free Energies=         -721.821513

                     E (Thermal)             CV                S
                      KCal/Mol        Cal/Mol-Kelvin    Cal/Mol-Kelvin
 Total                  175.303             54.207            124.494
 Electronic               0.000              0.000              0.000
 Translational            0.889              2.981             41.960
 Rotational               0.889              2.981             32.542
 Vibrational            173.525             48.245             49.992
 Vibration     1          0.594              1.983              5.683
 Vibration     2          0.594              1.983              5.556
 Vibration     3          0.596              1.977              4.757
 Vibration     4          0.597              1.972              4.391
 Vibration     5          0.607              1.940              3.246
 Vibration     6          0.611              1.925              2.977
 Vibration     7          0.619              1.900              2.646
 Vibration     8          0.638              1.840              2.137
 Vibration     9          0.641              1.829              2.064
 Vibration    10          0.646              1.814              1.980
 Vibration    11          0.663              1.762              1.725
 Vibration    12          0.675              1.727              1.591
 Vibration    13          0.696              1.663              1.387
 Vibration    14          0.724              1.584              1.186
 Vibration    15          0.749              1.516              1.046
 Vibration    16          0.770              1.459              0.944
 Vibration    17          0.792              1.404              0.857
 Vibration    18          0.799              1.386              0.831
 Vibration    19          0.844              1.278              0.690

                           ! Non-Optimized Parameters !
 Normal termination of Gaussian 16 at Sat Feb 27 18:39:25 2021.

 ----------------------------------------------------------------------
 # B3LYP/6-311++G(d,p) empiricaldispersion=gd3bj scf=xqc pop=npa geom=c
 heck
 ----------------------------------------------------------------------

 ---------------------------------------
 CID_106100839_JID_5088_Energie_neutraal
 ---------------------------------------
 Structure from the checkpoint file:  "JID_5088.chk"
 Charge =  0 Multiplicity = 1

 SCF Done:  E(RB3LYP) =  -722.256086194     A.U. after   15 cycles
 Normal termination of Gaussian 16 at Sat Feb 27 18:43:52 2021.

 ----------------------------------------------------------------------
 # B3LYP/6-311++G(d,p) empiricaldispersion=gd3bj scf=xqc pop=npa geom=c
 heck
 ----------------------------------------------------------------------

 -------------------------------------
 CID_106100839_JID_5088_Energie_kation
 -------------------------------------
 Structure from the checkpoint file:  "JID_5088.chk"
 Charge =  1 Multiplicity = 2

 SCF Done:  E(UB3LYP) =  -721.934000740     A.U. after   33 cycles
 SCF Done:  E(UB3LYP) =  -721.935809008     a.u. after   11 cycles
 Normal termination of Gaussian 16 at Sat Feb 27 21:00:11 2021.
 Gaussian 16:  ES64L-G16RevA.03 25-Dec-2016

 ----------------------------------------------------------------------
 # B3LYP/6-311++G(d,p) empiricaldispersion=gd3bj scf=xqc pop=npa geom=c
 heck
 ----------------------------------------------------------------------

 ------------------------------------
 CID_106100839_JID_5088_Energie_anion
 ------------------------------------
 Structure from the checkpoint file:  "JID_5088.chk"
 Charge = -1 Multiplicity = 2

                         Standard orientation:
 ---------------------------------------------------------------------
 Center     Atomic      Atomic             Coordinates (Angstroms)
 Number     Number       Type             X           Y           Z
 ---------------------------------------------------------------------
      1          8           0        4.518982    0.287894    0.229964
      2          8           0        2.049092   -0.869797   -1.407782
      3          7           0       -0.188762   -0.393551    0.239685
      4          7           0       -3.007708    0.796679    0.136597
      5          7           0       -3.512341   -1.303063   -0.315105
      6          7           0       -4.523412   -0.501043   -0.813312
      7          6           0        2.233912   -0.377616   -0.068258
      8          6           0        2.378929    1.141888   -0.205861
      9          6           0        3.616510   -0.781539    0.489178
     10          6           0        1.073190   -0.841901    0.809162
     11          6           0        3.855494    1.269930   -0.572766
     12          6           0       -1.358324   -0.971614    0.903478
     13          6           0       -2.621818   -0.516977    0.251493
     14          6           0       -4.200239    0.738349   -0.531796
     15          6           0       -2.319189    1.973768    0.645529
     16          1           0        2.175491    1.622365    0.757082
     17          1           0        1.695050    1.543007   -0.956008
     18          1           0        3.581756   -0.955668    1.573164
     19          1           0        3.967791   -1.707854    0.009539
     20          1           0        1.182216   -0.423727    1.817981
     21          1           0        1.123696   -1.945586    0.917264
     22          1           0        4.006891    1.061224   -1.641090
     23          1           0        4.292950    2.243507   -0.334596
     24          1           0       -0.194096   -0.651271   -0.746749
     25          1           0        2.214214   -1.826520   -1.398622
     26          1           0       -1.336144   -0.654528    1.955764
     27          1           0       -1.372346   -2.073640    0.900548
     28          1           0       -2.579237    2.155703    1.694043
     29          1           0       -1.243972    1.807698    0.554705
     30          1           0       -2.610261    2.843174    0.051843
     31          1           0       -4.773816    1.618463   -0.788323
 ---------------------------------------------------------------------

 SCF Done:  E(UB3LYP) =  -722.251779274     A.U. after   31 cycles

 The electronic state is 2-A.
 Alpha  occ. eigenvalues --  -19.03697 -19.03282 -14.29010 -14.22962 -14.22783
 Alpha  occ. eigenvalues --  -14.21378 -10.14447 -10.14186 -10.13889 -10.12639
 Alpha  occ. eigenvalues --  -10.12434 -10.12030 -10.11991 -10.10627 -10.07739
 Alpha  occ. eigenvalues --   -0.97014  -0.95777  -0.93337  -0.83560  -0.82411
 Alpha  occ. eigenvalues --   -0.72812  -0.69538  -0.65851  -0.64079  -0.61937
 Alpha  occ. eigenvalues --   -0.55999  -0.53623  -0.51904  -0.49543  -0.48466
 Alpha  occ. eigenvalues --   -0.43937  -0.43052  -0.41570  -0.39666  -0.39325
 Alpha  occ. eigenvalues --   -0.37497  -0.36937  -0.36914  -0.35737  -0.33859
 Alpha  occ. eigenvalues --   -0.33636  -0.32468  -0.32145  -0.31284  -0.29840
 Alpha  occ. eigenvalues --   -0.28753  -0.27198  -0.26789  -0.25844  -0.22848
 Alpha  occ. eigenvalues --   -0.22150  -0.19731  -0.19526  -0.16996  -0.16911
 Alpha  occ. eigenvalues --   -0.16771  -0.14869   0.03594
 Alpha virt. eigenvalues --    0.05479   0.06931   0.07292   0.08241   0.08447
 Alpha virt. eigenvalues --    0.09059   0.09764   0.09787   0.10547   0.11207
 Alpha virt. eigenvalues --    0.11416   0.11748   0.11924   0.12232   0.13812

  Beta  occ. eigenvalues --  -19.03656 -19.03280 -14.29006 -14.22962 -14.22780
  Beta  occ. eigenvalues --  -14.21367 -10.14446 -10.14185 -10.13879 -10.12611
  Beta  occ. eigenvalues --  -10.12426 -10.11974 -10.11973 -10.10593 -10.07715
  Beta  occ. eigenvalues --   -0.97006  -0.95744  -0.93270  -0.83547  -0.82388
  Beta  occ. eigenvalues --   -0.72796  -0.69503  -0.65816  -0.64013  -0.61898
  Beta  occ. eigenvalues --   -0.55932  -0.53605  -0.51854  -0.49478  -0.48424
  Beta  occ. eigenvalues --   -0.43884  -0.43006  -0.41530  -0.39632  -0.39289
  Beta  occ. eigenvalues --   -0.37464  -0.36896  -0.36872  -0.35689  -0.33829
  Beta  occ. eigenvalues --   -0.33599  -0.32433  -0.32098  -0.31257  -0.29796
  Beta  occ. eigenvalues --   -0.28714  -0.27164  -0.26749  -0.25817  -0.22806
  Beta  occ. eigenvalues --   -0.22141  -0.19711  -0.19490  -0.16984  -0.16904
  Beta  occ. eigenvalues --   -0.16750  -0.14833
  Beta virt. eigenvalues --    0.06117   0.06728   0.07625   0.07905   0.08515
  Beta virt. eigenvalues --    0.08895   0.09374   0.10040   0.10308   0.10758
  Beta virt. eigenvalues --    0.11207   0.11687   0.11860   0.12253   0.12631

 Mulliken charges and spin densities:
               1          2
     1  O   -0.200867   0.042827
     2  O   -0.163898  -0.008290
     3  N   -0.032178   0.080099
     4  N   -0.204843   0.197143
     5  N   -0.036071   0.042703
     6  N   -0.153950  -0.031048
     7  C   -2.116932   2.143467
     8  C    1.029504  -1.153166
     9  C    0.553926  -0.890319
    10  C    1.429944  -2.119393
    11  C   -0.548384   0.134959
    12  C    0.688187  -1.355746
    13  C   -0.943465   0.725311
    14  C    0.094919   0.106475
    15  C    1.142980  -1.506457
    16  H   -0.213717   0.402254
    17  H    0.102654   0.072657
    18  H   -0.152982   0.334723
    19  H   -0.166781   0.326873
    20  H   -0.159908   0.350824
    21  H   -0.166157   0.328022
    22  H    0.123129   0.031046
    23  H   -0.022878   0.191172
    24  H    0.348079  -0.045564
    25  H   -0.069499   0.329648
    26  H   -0.031128   0.208849
    27  H    0.030520   0.149516
    28  H   -0.478214   0.669033
    29  H   -0.090556   0.316474
    30  H   -0.395228   0.545846
    31  H   -0.196206   0.380063
 Sum of Mulliken charges =  -1.00000   1.00000

 Dipole moment (field-independent basis, Debye):
    X=              1.7997    Y=              0.3544    Z=             -0.9558  Tot=              2.0684
 Quadrupole moment (field-independent basis, Debye-Ang):
   XX=           -176.6130   YY=           -136.6324   ZZ=           -124.8785
   XY=              0.1377   XZ=             -5.9312   YZ=             -8.6249

 Summary of Natural Population Analysis:

                                       Natural Population
                Natural  -----------------------------------------------
    Atom  No    Charge         Core      Valence    Rydberg      Total
 -----------------------------------------------------------------------
      O    1   -0.30299      0.99990     3.29443    0.00867     4.30299
      O    2   -0.38104      0.99989     3.37400    0.00715     4.38104
      N    3   -0.34205      0.99973     2.83190    0.01041     3.84205
      N    4   -0.20792      0.99961     2.69817    0.01014     3.70792
      N    5   -0.16367      0.99969     2.65166    0.01232     3.66367
      N    6   -0.16484      0.99973     2.65158    0.01353     3.66484
      C    7    0.11517      0.99952     1.86929    0.01602     2.88483
      C    8   -0.20971      0.99958     2.19947    0.01067     3.20971
      C    9   -0.01430      0.99952     2.00101    0.01377     3.01430
      C   10   -0.09287      0.99956     2.08143    0.01188     3.09287
      C   11   -0.00822      0.99960     1.99775    0.01087     3.00822
      C   12   -0.10760      0.99959     2.09745    0.01055     3.10760
      C   13    0.18304      0.99960     1.79939    0.01797     2.81696
      C   14    0.09593      0.99964     1.88733    0.01710     2.90407
      C   15   -0.18031      0.99963     2.17270    0.00797     3.18031
      H   16    0.10578      0.00000     0.39273    0.00150     0.39422
      H   17    0.11317      0.00000     0.38557    0.00126     0.38683
      H   18    0.08978      0.00000     0.40853    0.00169     0.41022
      H   19    0.08566      0.00000     0.41262    0.00172     0.41434
      H   20    0.09995      0.00000     0.39792    0.00213     0.40005
      H   21    0.08348      0.00000     0.41424    0.00228     0.41652
      H   22    0.08172      0.00000     0.41675    0.00153     0.41828
      H   23    0.08827      0.00000     0.41041    0.00132     0.41173
      H   24    0.18163      0.00000     0.31487    0.00350     0.31837
      H   25    0.23266      0.00000     0.26300    0.00434     0.26734
      H   26    0.10129      0.00000     0.39726    0.00145     0.39871
      H   27    0.09853      0.00000     0.39967    0.00180     0.40147
      H   28    0.10051      0.00000     0.39747    0.00202     0.39949
      H   29    0.11892      0.00000     0.37883    0.00225     0.38108
      H   30    0.10299      0.00000     0.39488    0.00213     0.39701
      H   31    0.09703      0.00000     0.40155    0.00142     0.40297
 =======================================================================
   * Total *    0.00000     14.99478    41.79388    0.21135    57.00000

 Normal termination of Gaussian 16 at Sat Feb 27 21:11:31 2021.
