 Gaussian 16, Revision A.03,

 -----------------------------------------------------------
 # opt freq B3LYP/6-31G(d) empiricaldispersion=gd3bj scf=xqc
 -----------------------------------------------------------

 ------------------------------
 CID_145837481_JID_141_neutraal
 ------------------------------
 Symbolic Z-matrix:
 Charge =  0 Multiplicity = 1

 SCF Done:  E(RB3LYP) =  -834.701439998     A.U. after   14 cycles
 SCF Done:  E(RB3LYP) =  -834.719617826     A.U. after   13 cycles
 SCF Done:  E(RB3LYP) =  -834.726545873     A.U. after   13 cycles
 SCF Done:  E(RB3LYP) =  -834.729211082     A.U. after   14 cycles
 SCF Done:  E(RB3LYP) =  -834.731639237     A.U. after   13 cycles
 SCF Done:  E(RB3LYP) =  -834.734430449     A.U. after   14 cycles
 SCF Done:  E(RB3LYP) =  -834.735413853     A.U. after   13 cycles
 SCF Done:  E(RB3LYP) =  -834.735996332     A.U. after   12 cycles
 SCF Done:  E(RB3LYP) =  -834.736182607     A.U. after   12 cycles
 SCF Done:  E(RB3LYP) =  -834.736252057     A.U. after   10 cycles
 SCF Done:  E(RB3LYP) =  -834.736388234     A.U. after    9 cycles
 SCF Done:  E(RB3LYP) =  -834.736389707     A.U. after    9 cycles
 SCF Done:  E(RB3LYP) =  -834.736389993     A.U. after    9 cycles
 SCF Done:  E(RB3LYP) =  -834.736390023     A.U. after    8 cycles
 SCF Done:  E(RB3LYP) =  -834.736390006     A.U. after    8 cycles
 Optimization completed.
    -- Stationary point found.
 Normal termination of Gaussian 16 at Tue Dec  8 10:21:03 2020.

 --------------------------------------------------------------------
 #N Geom=AllCheck Guess=TCheck SCRF=Check GenChk RB3LYP/6-31G(d) Freq
 --------------------------------------------------------------------

 Structure from the checkpoint file:  "JID_141.chk"
 ------------------------------
 CID_145837481_JID_141_neutraal
 ------------------------------
 Charge =  0 Multiplicity = 1

 SCF Done:  E(RB3LYP) =  -834.736390006     A.U. after    1 cycles

  Exact polarizability:  98.642  -2.521  95.877   7.222   3.136  77.471
 Approx polarizability: 127.133  -1.418 167.767  14.739  13.958 130.870

                      1                      2                      3
                      A                      A                      A
 Frequencies --     28.4854                91.5117               106.7975
 Red. masses --      4.5532                 3.2898                 3.5514
 Frc consts  --      0.0022                 0.0162                 0.0239
 IR Inten    --      8.0090                 0.8062                 9.4661

                      4                      5                      6
                      A                      A                      A
 Frequencies --    117.7916               195.5626               221.2003
 Red. masses --      1.9465                 2.4416                 1.6118
 Frc consts  --      0.0159                 0.0550                 0.0465
 IR Inten    --      2.8628                 8.1547                 9.0918

                      7                      8                      9
                      A                      A                      A
 Frequencies --    246.2452               268.9878               341.6075
 Red. masses --      2.5281                 1.7680                 4.5129
 Frc consts  --      0.0903                 0.0754                 0.3103
 IR Inten    --      8.0599                10.5052                27.1915

                     10                     11                     12
                      A                      A                      A
 Frequencies --    364.1395               440.5364               447.8974
 Red. masses --      3.0491                 2.4465                 3.5834
 Frc consts  --      0.2382                 0.2797                 0.4235
 IR Inten    --      5.0143                26.7552                26.9626

                     13                     14                     15
                      A                      A                      A
 Frequencies --    473.9074               519.7023               577.6026
 Red. masses --      4.2861                 1.5747                 4.1372
 Frc consts  --      0.5672                 0.2506                 0.8132
 IR Inten    --      1.4400                76.7241                 4.4632

                     16                     17                     18
                      A                      A                      A
 Frequencies --    628.9418               649.0492               675.2653
 Red. masses --      4.1334                 1.4940                 2.6548
 Frc consts  --      0.9633                 0.3708                 0.7132
 IR Inten    --     58.1181                26.0623                34.5824

                     19                     20                     21
                      A                      A                      A
 Frequencies --    730.8735               781.7279               826.8379
 Red. masses --      5.7036                 1.5085                 2.5828
 Frc consts  --      1.7951                 0.5431                 1.0404
 IR Inten    --     18.8594                20.7382                81.2009

                     22                     23                     24
                      A                      A                      A
 Frequencies --    841.0316               857.0022               914.5067
 Red. masses --      4.6344                 1.3024                 1.7589
 Frc consts  --      1.9314                 0.5636                 0.8667
 IR Inten    --     32.9017                 1.2539                 1.5268

                     25                     26                     27
                      A                      A                      A
 Frequencies --    945.3023               984.8539              1053.6258
 Red. masses --      2.2734                 2.2804                 2.2829
 Frc consts  --      1.1969                 1.3032                 1.4932
 IR Inten    --     12.9695                24.3057                26.1484

                     28                     29                     30
                      A                      A                      A
 Frequencies --   1058.9677              1067.2699              1124.4725
 Red. masses --      2.6807                 2.4059                 3.4899
 Frc consts  --      1.7712                 1.6146                 2.5999
 IR Inten    --      8.7718               103.8230                34.2547

                     31                     32                     33
                      A                      A                      A
 Frequencies --   1152.6528              1156.8891              1199.2221
 Red. masses --      2.5987                 1.4106                 2.3613
 Frc consts  --      2.0342                 1.1124                 2.0008
 IR Inten    --      8.4897                 6.6259                14.7158

                     34                     35                     36
                      A                      A                      A
 Frequencies --   1296.5974              1313.2439              1333.8263
 Red. masses --      1.2165                 1.4175                 1.1455
 Frc consts  --      1.2050                 1.4403                 1.2007
 IR Inten    --      2.8944                 9.9766                15.2637

                     37                     38                     39
                      A                      A                      A
 Frequencies --   1350.1415              1407.8395              1427.1422
 Red. masses --      1.2602                 1.3209                 1.1762
 Frc consts  --      1.3535                 1.5425                 1.4114
 IR Inten    --      3.3299                48.2352                21.0852

                     40                     41                     42
                      A                      A                      A
 Frequencies --   1438.4951              1453.7302              1511.4513
 Red. masses --      1.3075                 1.2587                 1.0932
 Frc consts  --      1.5941                 1.5672                 1.4714
 IR Inten    --     27.4340                12.8144                12.1823

                     43                     44                     45
                      A                      A                      A
 Frequencies --   1521.2851              1531.9147              1540.9494
 Red. masses --      1.1392                 1.0652                 1.1248
 Frc consts  --      1.5533                 1.4729                 1.5736
 IR Inten    --     10.7724                 9.9191                32.1826

                     46                     47                     48
                      A                      A                      A
 Frequencies --   1657.1720              2999.7909              3045.5296
 Red. masses --      6.1422                 1.0815                 1.0387
 Frc consts  --      9.9382                 5.7339                 5.6761
 IR Inten    --     12.8647                27.5202                19.6618

                     49                     50                     51
                      A                      A                      A
 Frequencies --   3057.5809              3093.4830              3115.3402
 Red. masses --      1.0645                 1.0981                 1.1008
 Frc consts  --      5.8633                 6.1911                 6.2947
 IR Inten    --     27.0501                 4.7120                49.6312

                     52                     53                     54
                      A                      A                      A
 Frequencies --   3124.4970              3235.9767              3264.1571
 Red. masses --      1.1022                 1.0882                 1.1020
 Frc consts  --      6.3395                 6.7137                 6.9181
 IR Inten    --     35.9112                 0.8862                 2.9544

                     55                     56                     57
                      A                      A                      A
 Frequencies --   3453.0339              3577.1819              3710.5662
 Red. masses --      1.0750                 1.0755                 1.0657
 Frc consts  --      7.5523                 8.1087                 8.6448
 IR Inten    --      3.8602                 9.9322                67.1043

 - Thermochemistry -
 -------------------
 Temperature   298.150 Kelvin.  Pressure   1.00000 Atm.
 Atom     1 has atomic number  6 and mass  12.00000

 Molecular mass:   161.06228 amu.
 Principal axes and moments of inertia in atomic units:
                           1         2         3
     Eigenvalues --   989.123832082.618452495.17020
           X            0.99873  -0.05031   0.00291
           Y            0.05028   0.99868   0.01051
           Z           -0.00343  -0.01035   0.99994
 This molecule is an asymmetric top.
 Rotational symmetry number  1.
 Warning -- assumption of classical behavior for rotation
           may cause significant error
 Rotational temperatures (Kelvin)      0.08757     0.04159     0.03471
 Rotational constants (GHZ):           1.82459     0.86657     0.72329
 Zero-point vibrational energy     451897.7 (Joules/Mol)
                                  108.00614 (Kcal/Mol)
 Warning -- explicit consideration of  15 degrees of freedom as
           vibrations may cause significant error
 Vibrational temperatures:     40.98   131.66   153.66   169.48   281.37
          (Kelvin)            318.26   354.29   387.01   491.50   523.92
                              633.83   644.42   681.85   747.74   831.04
                              904.91   933.84   971.56  1051.56  1124.73
                             1189.64  1210.06  1233.03  1315.77  1360.08
                             1416.99  1515.93  1523.62  1535.56  1617.87
                             1658.41  1664.51  1725.41  1865.51  1889.47
                             1919.08  1942.55  2025.57  2053.34  2069.67
                             2091.59  2174.64  2188.79  2204.08  2217.08
                             2384.30  4316.03  4381.84  4399.18  4450.83
                             4482.28  4495.45  4655.85  4696.39  4968.15
                             5146.77  5338.68

 Zero-point correction=                           0.172119 (Hartree/Particle)
 Thermal correction to Energy=                    0.183114
 Thermal correction to Enthalpy=                  0.184058
 Thermal correction to Gibbs Free Energy=         0.134864
 Sum of electronic and zero-point Energies=           -834.564271
 Sum of electronic and thermal Energies=              -834.553276
 Sum of electronic and thermal Enthalpies=            -834.552332
 Sum of electronic and thermal Free Energies=         -834.601526

                     E (Thermal)             CV                S
                      KCal/Mol        Cal/Mol-Kelvin    Cal/Mol-Kelvin
 Total                  114.906             40.846            103.539
 Electronic               0.000              0.000              0.000
 Translational            0.889              2.981             41.139
 Rotational               0.889              2.981             30.020
 Vibrational            113.128             34.885             32.380
 Vibration     1          0.593              1.984              5.932
 Vibration     2          0.602              1.955              3.627
 Vibration     3          0.606              1.944              3.326
 Vibration     4          0.608              1.935              3.136
 Vibration     5          0.636              1.846              2.174
 Vibration     6          0.648              1.809              1.949
 Vibration     7          0.661              1.769              1.757
 Vibration     8          0.673              1.730              1.603
 Vibration     9          0.721              1.592              1.205
 Vibration    10          0.738              1.546              1.104
 Vibration    11          0.800              1.382              0.825
 Vibration    12          0.807              1.366              0.802
 Vibration    13          0.831              1.308              0.727
 Vibration    14          0.875              1.206              0.611
 Vibration    15          0.934              1.080              0.490

 Optimization completed.
    -- Stationary point found.
 Normal termination of Gaussian 16 at Tue Dec  8 10:24:30 2020.

 ----------------------------------------------------------------------
 # B3LYP/6-311++G(d,p) empiricaldispersion=gd3bj scf=xqc pop=npa geom=c
 heck
 ----------------------------------------------------------------------

 --------------------------------------
 CID_145837481_JID_141_Energie_neutraal
 --------------------------------------
 Structure from the checkpoint file:  "JID_141.chk"
 Charge =  0 Multiplicity = 1

 SCF Done:  E(RB3LYP) =  -834.905310797     A.U. after   16 cycles
 Normal termination of Gaussian 16 at Tue Dec  8 10:26:07 2020.

 ----------------------------------------------------------------------
 # B3LYP/6-311++G(d,p) empiricaldispersion=gd3bj scf=xqc pop=npa geom=c
 heck
 ----------------------------------------------------------------------

 ------------------------------------
 CID_145837481_JID_141_Energie_kation
 ------------------------------------
 Structure from the checkpoint file:  "JID_141.chk"
 Charge =  1 Multiplicity = 2

 SCF Done:  E(UB3LYP) =  -834.611432502     A.U. after   24 cycles
 Normal termination of Gaussian 16 at Tue Dec  8 10:29:25 2020.
 Gaussian 16:  ES64L-G16RevA.03 25-Dec-2016

 ----------------------------------------------------------------------
 # B3LYP/6-311++G(d,p) empiricaldispersion=gd3bj scf=xqc pop=npa geom=c
 heck
 ----------------------------------------------------------------------

 -----------------------------------
 CID_145837481_JID_141_Energie_anion
 -----------------------------------
 Structure from the checkpoint file:  "JID_141.chk"
 Charge = -1 Multiplicity = 2

                         Standard orientation:
 ---------------------------------------------------------------------
 Center     Atomic      Atomic             Coordinates (Angstroms)
 Number     Number       Type             X           Y           Z
 ---------------------------------------------------------------------
      1          6           0        3.044605   -1.197192   -0.240085
      2          6           0        2.660387    0.283687   -0.186555
      3          6           0        1.154180    0.531922   -0.226890
      4          7           0        0.554894    0.148991    1.048332
      5          7           0       -0.808523   -0.176606    1.126556
      6          7           0       -1.577000    0.992725    0.774152
      7          6           0       -2.098013    0.903834   -0.553005
      8          6           0       -2.017238   -0.294625   -1.137011
      9         16           0       -1.342854   -1.508677   -0.044763
     10          8           0        0.918148    1.912034   -0.467121
     11          1           0        2.678960   -1.756173    0.630449
     12          1           0        4.132410   -1.317417   -0.266776
     13          1           0        2.629226   -1.679412   -1.132427
     14          1           0        3.064406    0.767737    0.711778
     15          1           0        3.085639    0.814615   -1.044725
     16          1           0        0.708831   -0.053147   -1.047307
     17          1           0        1.064781   -0.577328    1.538088
     18          1           0       -2.318452    1.076270    1.471205
     19          1           0       -2.477645    1.813583   -1.002690
     20          1           0       -2.303612   -0.537360   -2.152265
     21          1           0        0.226817    2.169657    0.165848
 ---------------------------------------------------------------------

 SCF Done:  E(UB3LYP) =  -834.891019599     A.U. after   33 cycles
 SCF Done:  E(UB3LYP) =  -834.891019599     a.u. after    1 cycles

 The electronic state is 2-A.
 Alpha  occ. eigenvalues --  -88.73433 -18.99756 -14.26358 -14.23997 -14.22307
 Alpha  occ. eigenvalues --  -10.13016 -10.08634 -10.07761 -10.06013 -10.05726
 Alpha  occ. eigenvalues --   -7.81886  -5.78324  -5.77933  -5.77244  -0.92949
 Alpha  occ. eigenvalues --   -0.89529  -0.79507  -0.68308  -0.67486  -0.63540
 Alpha  occ. eigenvalues --   -0.56431  -0.51745  -0.48504  -0.46754  -0.42822
 Alpha  occ. eigenvalues --   -0.40064  -0.38313  -0.37266  -0.34377  -0.32696
 Alpha  occ. eigenvalues --   -0.31505  -0.30925  -0.26757  -0.26205  -0.25386
 Alpha  occ. eigenvalues --   -0.24315  -0.24101  -0.22525  -0.17775  -0.16523
 Alpha  occ. eigenvalues --   -0.14998  -0.12604  -0.08592   0.05159
 Alpha virt. eigenvalues --    0.07025   0.07749   0.08580   0.09731   0.10059
 Alpha virt. eigenvalues --    0.10535   0.10875   0.11791   0.12788   0.13340
 Alpha virt. eigenvalues --    0.13628   0.14638   0.15243   0.15979   0.16889

  Beta  occ. eigenvalues --  -88.73348 -18.99749 -14.26081 -14.23980 -14.22301
  Beta  occ. eigenvalues --  -10.13014 -10.08604 -10.07717 -10.05998 -10.05696
  Beta  occ. eigenvalues --   -7.81801  -5.78100  -5.77880  -5.77184  -0.92808
  Beta  occ. eigenvalues --   -0.89386  -0.79445  -0.68225  -0.67237  -0.63317
  Beta  occ. eigenvalues --   -0.56333  -0.51531  -0.48436  -0.46476  -0.42755
  Beta  occ. eigenvalues --   -0.39910  -0.38149  -0.37217  -0.34269  -0.32573
  Beta  occ. eigenvalues --   -0.31324  -0.30724  -0.26707  -0.26149  -0.25324
  Beta  occ. eigenvalues --   -0.24192  -0.23939  -0.22247  -0.17619  -0.16406
  Beta  occ. eigenvalues --   -0.14907  -0.12365  -0.08391
  Beta virt. eigenvalues --    0.07564   0.08042   0.09120   0.09607   0.09926
  Beta virt. eigenvalues --    0.10509   0.10983   0.11345   0.11999   0.12944
  Beta virt. eigenvalues --    0.13653   0.13900   0.14729   0.15331   0.15985

 Mulliken charges and spin densities:
               1          2
     1  C    0.575628  -1.059246
     2  C   -0.772572   0.575512
     3  C    0.373428  -0.567396
     4  N   -0.569385   0.052660
     5  N    0.562057   0.104406
     6  N   -0.684974  -0.030046
     7  C    0.412552  -0.592294
     8  C   -0.243545  -0.014894
     9  S    0.663609  -0.621364
    10  O   -0.259572   0.012440
    11  H   -0.033255   0.142684
    12  H   -0.576028   0.729852
    13  H   -0.196776   0.338482
    14  H   -0.006101   0.165296
    15  H    0.011757   0.156863
    16  H    0.303989  -0.179399
    17  H    0.238442   0.027743
    18  H   -0.026306   0.338394
    19  H   -0.032357   0.170347
    20  H   -0.966876   1.199851
    21  H    0.226285   0.050109
 Sum of Mulliken charges =  -1.00000   1.00000

 Dipole moment (field-independent basis, Debye):
    X=             -0.6827    Y=              2.4664    Z=              2.8582  Tot=              3.8364
 Quadrupole moment (field-independent basis, Debye-Ang):
   XX=           -122.0975   YY=           -101.3892   ZZ=            -97.7682
   XY=             -2.9756   XZ=             -2.7924   YZ=             -5.7750

 Summary of Natural Population Analysis:

                                       Natural Population
                Natural  -----------------------------------------------
    Atom  No    Charge         Core      Valence    Rydberg      Total
 -----------------------------------------------------------------------
      C    1   -0.28858      0.99966     2.28362    0.00530     3.28858
      C    2   -0.20294      0.99962     2.19252    0.01080     3.20294
      C    3    0.13642      0.99958     1.84824    0.01576     2.86358
      N    4   -0.24459      0.99969     2.73102    0.01387     3.74459
      N    5   -0.12069      0.99982     2.60130    0.01958     3.62069
      N    6   -0.25430      0.99972     2.73897    0.01561     3.75430
      C    7   -0.03811      0.99948     2.02435    0.01428     3.03811
      C    8   -0.19902      0.99947     2.18639    0.01315     3.19902
      S    9    0.19108      4.99959     2.78834    0.02099     7.80892
      O   10   -0.38324      0.99989     3.37717    0.00618     4.38324
      H   11    0.09239      0.00000     0.40638    0.00123     0.40761
      H   12    0.10028      0.00000     0.39845    0.00126     0.39972
      H   13    0.10186      0.00000     0.39674    0.00140     0.39814
      H   14    0.09757      0.00000     0.40097    0.00146     0.40243
      H   15    0.10389      0.00000     0.39494    0.00117     0.39611
      H   16    0.08115      0.00000     0.41633    0.00252     0.41885
      H   17    0.18354      0.00000     0.31380    0.00266     0.31646
      H   18    0.18680      0.00000     0.31053    0.00267     0.31320
      H   19    0.10094      0.00000     0.39805    0.00101     0.39906
      H   20    0.11418      0.00000     0.38432    0.00150     0.38582
      H   21    0.24137      0.00000     0.25481    0.00382     0.25863
 =======================================================================
   * Total *   -0.00000     13.99652    28.84725    0.15623    43.00000

 Normal termination of Gaussian 16 at Tue Dec  8 10:37:20 2020.
