 Gaussian 16, Revision A.03,

 -----------------------------------------------------------
 # opt freq B3LYP/6-31G(d) empiricaldispersion=gd3bj scf=xqc
 -----------------------------------------------------------

 -------------------------------
 CID_117569485_JID_1570_neutraal
 -------------------------------
 Symbolic Z-matrix:
 Charge =  0 Multiplicity = 1

 SCF Done:  E(RB3LYP) =  -460.920545917     A.U. after   13 cycles
 SCF Done:  E(RB3LYP) =  -460.924406001     A.U. after   12 cycles
 SCF Done:  E(RB3LYP) =  -460.924658005     A.U. after   11 cycles
 SCF Done:  E(RB3LYP) =  -460.924712921     A.U. after   10 cycles
 SCF Done:  E(RB3LYP) =  -460.924728831     A.U. after    9 cycles
 SCF Done:  E(RB3LYP) =  -460.924731708     A.U. after    8 cycles
 SCF Done:  E(RB3LYP) =  -460.924732204     A.U. after    8 cycles
 SCF Done:  E(RB3LYP) =  -460.924732293     A.U. after    7 cycles
 SCF Done:  E(RB3LYP) =  -460.924732329     A.U. after    7 cycles
 Optimization completed.
    -- Stationary point found.

 1\1\GINC-NODE201\FOpt\RB3LYP\6-31G(d)\C9H14N2\VSC10255\08-Dec-2020\0\\
 # opt freq B3LYP/6-31G(d) empiricaldispersion=gd3bj scf=xqc\\CID_11756
 9485_JID_1570_neutraal\\0,1\C,2.4986060628,0.0404397463,-0.0150155689\
 C,0.9961730212,0.1021406177,0.0918314989\C,0.2493980665,-1.0448541779,
 0.3569620847\C,-1.1435807389,-1.0155111506,0.4464502093\C,-1.802474455
 5,0.1971843097,0.2650576066\C,-1.0815589757,1.3621921703,0.0055204344\
 C,0.3197571963,1.3332309077,-0.0885603793\N,1.0712233957,2.4752821923,
 -0.401733658\C,0.5022201093,3.7946577379,-0.2586762256\N,0.2954033544,

 Normal termination of Gaussian 16 at Tue Dec  8 20:23:42 2020.

 --------------------------------------------------------------------
 #N Geom=AllCheck Guess=TCheck SCRF=Check GenChk RB3LYP/6-31G(d) Freq
 --------------------------------------------------------------------

 Structure from the checkpoint file:  "JID_1570.chk"
 -------------------------------
 CID_117569485_JID_1570_neutraal
 -------------------------------
 Charge =  0 Multiplicity = 1

 SCF Done:  E(RB3LYP) =  -460.924732329     A.U. after    1 cycles

  Exact polarizability: 138.492  -5.229 118.736  12.577   2.059  63.949
 Approx polarizability: 192.717 -12.480 188.913  26.351   3.714  97.371

                      1                      2                      3
                      A                      A                      A
 Frequencies --     46.3598                61.9889               118.3757
 Red. masses --      3.6498                 3.2805                 2.0406
 Frc consts  --      0.0046                 0.0074                 0.0168
 IR Inten    --      0.2577                 1.7548                 0.9969

                      4                      5                      6
                      A                      A                      A
 Frequencies --    173.2157               206.1509               223.0397
 Red. masses --      3.1071                 1.0647                 1.5784
 Frc consts  --      0.0549                 0.0267                 0.0463
 IR Inten    --      0.3354                 1.8620                 1.1724

                      7                      8                      9
                      A                      A                      A
 Frequencies --    252.7644               262.5993               309.3443
 Red. masses --      3.4510                 1.9173                 2.6831
 Frc consts  --      0.1299                 0.0779                 0.1513
 IR Inten    --      0.4030                 0.5509                 1.0337

                     10                     11                     12
                      A                      A                      A
 Frequencies --    333.2623               426.4915               450.1379
 Red. masses --      2.0485                 2.5943                 2.9518
 Frc consts  --      0.1340                 0.2780                 0.3524
 IR Inten    --      9.9422                 5.9247                 4.9368

                     13                     14                     15
                      A                      A                      A
 Frequencies --    496.2869               538.9334               572.1111
 Red. masses --      4.5118                 3.2680                 3.4559
 Frc consts  --      0.6547                 0.5592                 0.6665
 IR Inten    --     20.7862                12.6781                 8.6064

                     16                     17                     18
                      A                      A                      A
 Frequencies --    607.5420               642.7227               729.4879
 Red. masses --      4.3032                 2.0509                 2.4032
 Frc consts  --      0.9358                 0.4992                 0.7535
 IR Inten    --     32.5663                49.2052                 6.6130

                     19                     20                     21
                      A                      A                      A
 Frequencies --    761.0228               778.3956               829.6191
 Red. masses --      1.5417                 3.1230                 1.3078
 Frc consts  --      0.5261                 1.1149                 0.5304
 IR Inten    --     45.1455                 8.4278               102.0126

                     22                     23                     24
                      A                      A                      A
 Frequencies --    843.0278               852.4958               925.0360
 Red. masses --      3.1289                 1.4945                 1.3290
 Frc consts  --      1.3102                 0.6399                 0.6700
 IR Inten    --      4.0873                 5.4434                 0.6767

                     25                     26                     27
                      A                      A                      A
 Frequencies --    962.4425               982.0849              1016.5414
 Red. masses --      1.2373                 1.9017                 1.5635
 Frc consts  --      0.6753                 1.0806                 0.9519
 IR Inten    --      0.5958                20.5837                 5.4540

                     28                     29                     30
                      A                      A                      A
 Frequencies --   1043.4463              1074.2170              1091.3461
 Red. masses --      1.6705                 1.4854                 2.0991
 Frc consts  --      1.0716                 1.0099                 1.4730
 IR Inten    --      5.3593                 1.8548                 6.1726

                     31                     32                     33
                      A                      A                      A
 Frequencies --   1110.4006              1134.9662              1164.1587
 Red. masses --      2.6793                 2.8106                 1.8037
 Frc consts  --      1.9464                 2.1331                 1.4403
 IR Inten    --      0.2608                33.3746                74.7596

                     34                     35                     36
                      A                      A                      A
 Frequencies --   1189.2285              1200.3198              1218.6017
 Red. masses --      1.5179                 1.2313                 1.5515
 Frc consts  --      1.2648                 1.0452                 1.3574
 IR Inten    --      9.8853                 8.0889                 6.3968

                     37                     38                     39
                      A                      A                      A
 Frequencies --   1225.5706              1300.1588              1305.5073
 Red. masses --      2.6462                 1.7696                 1.8080
 Frc consts  --      2.3418                 1.7625                 1.8156
 IR Inten    --      5.9774                13.7732                64.3641

                     40                     41                     42
                      A                      A                      A
 Frequencies --   1345.5912              1371.4380              1421.1929
 Red. masses --      1.5243                 3.9912                 1.2713
 Frc consts  --      1.6261                 4.4229                 1.5129
 IR Inten    --     14.2746                41.3132                14.7241

                     43                     44                     45
                      A                      A                      A
 Frequencies --   1442.5906              1483.4105              1501.4500
 Red. masses --      1.2743                 1.1783                 1.4306
 Frc consts  --      1.5624                 1.5277                 1.9002
 IR Inten    --      0.9730                 1.3508                 6.9179

                     46                     47                     48
                      A                      A                      A
 Frequencies --   1501.6101              1511.9116              1515.8939
 Red. masses --      1.8872                 1.2089                 1.0673
 Frc consts  --      2.5072                 1.6281                 1.4450
 IR Inten    --     36.9350                39.8741                14.7401

                     49                     50                     51
                      A                      A                      A
 Frequencies --   1522.7140              1542.6015              1544.6972
 Red. masses --      1.1095                 1.2345                 1.1323
 Frc consts  --      1.5156                 1.7309                 1.5918
 IR Inten    --      5.6686                31.7241                13.0198

                     52                     53                     54
                      A                      A                      A
 Frequencies --   1555.9801              1568.9389              1647.4750
 Red. masses --      1.0853                 1.8668                 4.6422
 Frc consts  --      1.5482                 2.7074                 7.4236
 IR Inten    --      1.4122               102.0803                27.7632

                     55                     56                     57
                      A                      A                      A
 Frequencies --   1671.0798              2951.1202              2974.4896
 Red. masses --      5.6672                 1.0613                 1.0726
 Frc consts  --      9.3242                 5.4457                 5.5914
 IR Inten    --     42.2794                81.0535                81.8454

                     58                     59                     60
                      A                      A                      A
 Frequencies --   3017.5534              3069.5514              3071.4899
 Red. masses --      1.0463                 1.0932                 1.0789
 Frc consts  --      5.6134                 6.0689                 5.9970
 IR Inten    --     34.9575                24.4633                13.4638

                     61                     62                     63
                      A                      A                      A
 Frequencies --   3073.3760              3124.7651              3129.5717
 Red. masses --      1.0851                 1.1009                 1.0977
 Frc consts  --      6.0388                 6.3334                 6.3344
 IR Inten    --     86.5443                29.1274                15.6971

                     64                     65                     66
                      A                      A                      A
 Frequencies --   3175.0396              3185.4180              3204.9893
 Red. masses --      1.0870                 1.0877                 1.0914
 Frc consts  --      6.4565                 6.5027                 6.6050
 IR Inten    --     14.7760                12.2812                36.7416

                     67                     68                     69
                      A                      A                      A
 Frequencies --   3213.1032              3489.9622              3580.9552
 Red. masses --      1.0960                 1.0738                 1.0746
 Frc consts  --      6.6666                 7.7057                 8.1186
 IR Inten    --     17.0340                 0.1977                 7.9658

 - Thermochemistry -
 -------------------
 Temperature   298.150 Kelvin.  Pressure   1.00000 Atm.
 Atom     1 has atomic number  6 and mass  12.00000

 Molecular mass:   150.11570 amu.
 Principal axes and moments of inertia in atomic units:
                           1         2         3
     Eigenvalues --   941.119742643.256693327.94187
           X            0.99975   0.02179   0.00401
           Y           -0.02181   0.99975   0.00505
           Z           -0.00390  -0.00514   0.99998
 This molecule is an asymmetric top.
 Rotational symmetry number  1.
 Warning -- assumption of classical behavior for rotation
           may cause significant error
 Rotational temperatures (Kelvin)      0.09203     0.03277     0.02603
 Rotational constants (GHZ):           1.91765     0.68277     0.54230
 Zero-point vibrational energy     579407.5 (Joules/Mol)
                                  138.48171 (Kcal/Mol)
 Warning -- explicit consideration of  16 degrees of freedom as
           vibrations may cause significant error
 Vibrational temperatures:     66.70    89.19   170.32   249.22   296.61
          (Kelvin)            320.90   363.67   377.82   445.08   479.49
                              613.63   647.65   714.05   775.40   823.14
                              874.12   924.73  1049.57  1094.94  1119.94
                             1193.64  1212.93  1226.55  1330.92  1384.74
                             1413.00  1462.58  1501.29  1545.56  1570.20
                             1597.62  1632.96  1674.96  1711.03  1726.99
                             1753.30  1763.32  1870.64  1878.33  1936.01
                             1973.19  2044.78  2075.57  2134.30  2160.25
                             2160.48  2175.30  2181.03  2190.85  2219.46
                             2222.47  2238.71  2257.35  2370.35  2404.31
                             4246.00  4279.63  4341.59  4416.40  4419.19
                             4421.90  4495.84  4502.76  4568.17  4583.11
                             4611.26  4622.94  5021.28  5152.20

 Zero-point correction=                           0.220685 (Hartree/Particle)
 Thermal correction to Energy=                    0.231693
 Thermal correction to Enthalpy=                  0.232637
 Thermal correction to Gibbs Free Energy=         0.183709
 Sum of electronic and zero-point Energies=           -460.704048
 Sum of electronic and thermal Energies=              -460.693039
 Sum of electronic and thermal Enthalpies=            -460.692095
 Sum of electronic and thermal Free Energies=         -460.741023

                     E (Thermal)             CV                S
                      KCal/Mol        Cal/Mol-Kelvin    Cal/Mol-Kelvin
 Total                  145.390             41.920            102.979
 Electronic               0.000              0.000              0.000
 Translational            0.889              2.981             40.929
 Rotational               0.889              2.981             30.494
 Vibrational            143.612             35.959             31.556
 Vibration     1          0.595              1.979              4.967
 Vibration     2          0.597              1.972              4.393
 Vibration     3          0.609              1.934              3.127
 Vibration     4          0.627              1.875              2.400
 Vibration     5          0.641              1.831              2.077
 Vibration     6          0.649              1.806              1.934
 Vibration     7          0.664              1.758              1.711
 Vibration     8          0.670              1.741              1.644
 Vibration     9          0.699              1.656              1.366
 Vibration    10          0.715              1.609              1.244
 Vibration    11          0.788              1.413              0.870
 Vibration    12          0.809              1.361              0.795
 Vibration    13          0.852              1.258              0.667
 Vibration    14          0.894              1.164              0.568
 Vibration    15          0.928              1.092              0.500
 Vibration    16          0.966              1.016              0.437

                           ! Non-Optimized Parameters !

 1\1\GINC-NODE201\Freq\RB3LYP\6-31G(d)\C9H14N2\VSC10255\08-Dec-2020\0\\
 #N Geom=AllCheck Guess=TCheck SCRF=Check GenChk RB3LYP/6-31G(d) Freq\\
 CID_117569485_JID_1570_neutraal\\0,1\C,2.4986060628,0.0404397463,-0.01
 50155689\C,0.9961730212,0.1021406177,0.0918314989\C,0.2493980665,-1.04
 48541779,0.3569620847\C,-1.1435807389,-1.0155111506,0.4464502093\C,-1.
 8024744555,0.1971843097,0.2650576066\C,-1.0815589757,1.3621921703,0.00
 55204344\C,0.3197571963,1.3332309077,-0.0885603793\N,1.0712233957,2.47
 52821923,-0.401733658\C,0.5022201093,3.7946577379,-0.2586762256\N,0.29

 Normal termination of Gaussian 16 at Tue Dec  8 20:29:30 2020.

 ----------------------------------------------------------------------
 # B3LYP/6-311++G(d,p) empiricaldispersion=gd3bj scf=xqc pop=npa geom=c
 heck
 ----------------------------------------------------------------------

 ---------------------------------------
 CID_117569485_JID_1570_Energie_neutraal
 ---------------------------------------
 Structure from the checkpoint file:  "JID_1570.chk"
 Charge =  0 Multiplicity = 1

 SCF Done:  E(RB3LYP) =  -461.056773391     A.U. after   15 cycles
 Normal termination of Gaussian 16 at Tue Dec  8 20:32:32 2020.

 ----------------------------------------------------------------------
 # B3LYP/6-311++G(d,p) empiricaldispersion=gd3bj scf=xqc pop=npa geom=c
 heck
 ----------------------------------------------------------------------

 -------------------------------------
 CID_117569485_JID_1570_Energie_kation
 -------------------------------------
 Structure from the checkpoint file:  "JID_1570.chk"
 Charge =  1 Multiplicity = 2

 SCF Done:  E(UB3LYP) =  -460.782454876     A.U. after   22 cycles
 Normal termination of Gaussian 16 at Tue Dec  8 20:37:39 2020.
 Gaussian 16:  ES64L-G16RevA.03 25-Dec-2016

 ------------------------------------
 CID_117569485_JID_1570_Energie_anion
 ------------------------------------
 Structure from the checkpoint file:  "JID_1570.chk"
 Charge = -1 Multiplicity = 2

                         Standard orientation:
 ---------------------------------------------------------------------
 Center     Atomic      Atomic             Coordinates (Angstroms)
 Number     Number       Type             X           Y           Z
 ---------------------------------------------------------------------
      1          6           0        1.705383    2.279323    0.235911
      2          6           0        1.609500    0.781133    0.098938
      3          6           0        2.711909   -0.033287    0.353848
      4          6           0        2.651696   -1.421725    0.220156
      5          6           0        1.453287   -2.006243   -0.179630
      6          6           0        0.331986   -1.217659   -0.434857
      7          6           0        0.392415    0.179734   -0.304406
      8          7           0       -0.700148    1.006063   -0.605313
      9          6           0       -2.036041    0.463462   -0.682500
     10          7           0       -2.552960    0.054724    0.622423
     11          6           0       -3.876072   -0.550591    0.530907
     12          1           0        2.725112    2.583006    0.488382
     13          1           0        1.421331    2.787690   -0.694788
     14          1           0        1.046996    2.666697    1.027989
     15          1           0        3.642214    0.438010    0.662716
     16          1           0        3.526448   -2.031430    0.424340
     17          1           0        1.378877   -3.084657   -0.291006
     18          1           0       -0.590658   -1.696998   -0.744330
     19          1           0       -0.681604    1.880862   -0.095763
     20          1           0       -2.697886    1.244042   -1.075510
     21          1           0       -2.036102   -0.350115   -1.428571
     22          1           0       -1.898900   -0.611943    1.030370
     23          1           0       -3.937499   -1.412060   -0.160811
     24          1           0       -4.195202   -0.884419    1.522843
     25          1           0       -4.595753    0.200931    0.184163
 ---------------------------------------------------------------------

 SCF Done:  E(UB3LYP) =  -461.040137442     A.U. after   33 cycles
 SCF Done:  E(UB3LYP) =  -461.040137442     a.u. after    1 cycles

 The electronic state is 2-A.
 Alpha  occ. eigenvalues --  -14.22310 -14.19868 -10.12396 -10.11397 -10.08446
 Alpha  occ. eigenvalues --  -10.07963 -10.07345 -10.07240 -10.07158 -10.06883
 Alpha  occ. eigenvalues --  -10.06619  -0.85302  -0.79020  -0.74407  -0.67532
 Alpha  occ. eigenvalues --   -0.64137  -0.59516  -0.58213  -0.53973  -0.49804
 Alpha  occ. eigenvalues --   -0.48924  -0.43190  -0.41191  -0.37991  -0.36891
 Alpha  occ. eigenvalues --   -0.35668  -0.34076  -0.33195  -0.32591  -0.31252
 Alpha  occ. eigenvalues --   -0.30123  -0.29455  -0.28182  -0.27409  -0.26566
 Alpha  occ. eigenvalues --   -0.25331  -0.24115  -0.20627  -0.15077  -0.13406
 Alpha  occ. eigenvalues --   -0.10819   0.04543
 Alpha virt. eigenvalues --    0.06243   0.06753   0.08113   0.08353   0.08534
 Alpha virt. eigenvalues --    0.09199   0.09778   0.10229   0.10817   0.11154
 Alpha virt. eigenvalues --    0.12032   0.12635   0.12812   0.13131   0.14626

  Beta  occ. eigenvalues --  -14.22299 -14.19852 -10.12373 -10.11396 -10.08398
  Beta  occ. eigenvalues --  -10.07963 -10.07336 -10.07227 -10.07126 -10.06869
  Beta  occ. eigenvalues --  -10.06612  -0.85279  -0.78995  -0.74388  -0.67506
  Beta  occ. eigenvalues --   -0.64113  -0.59461  -0.58158  -0.53885  -0.49764
  Beta  occ. eigenvalues --   -0.48890  -0.43155  -0.41152  -0.37951  -0.36855
  Beta  occ. eigenvalues --   -0.35608  -0.34037  -0.33154  -0.32559  -0.31214
  Beta  occ. eigenvalues --   -0.30073  -0.29420  -0.28145  -0.27357  -0.26542
  Beta  occ. eigenvalues --   -0.25304  -0.24085  -0.20611  -0.15061  -0.13359
  Beta  occ. eigenvalues --   -0.10806
  Beta virt. eigenvalues --    0.06686   0.07345   0.07487   0.08377   0.08891
  Beta virt. eigenvalues --    0.09251   0.09666   0.09860   0.10716   0.11324
  Beta virt. eigenvalues --    0.11605   0.12530   0.12996   0.13194   0.13536

 Mulliken charges and spin densities:
               1          2
     1  C    2.607707  -3.306724
     2  C   -2.768758   3.577494
     3  C    0.330694  -0.547974
     4  C    0.584329  -1.002592
     5  C    1.524683  -1.637071
     6  C    1.044689  -1.061023
     7  C   -2.285977   1.525410
     8  N   -0.074787   0.091611
     9  C    0.062775  -0.489546
    10  N   -0.293193   0.191082
    11  C    1.174645  -1.510877
    12  H   -0.459355   0.612462
    13  H   -0.125978   0.296684
    14  H   -0.098588   0.256812
    15  H   -0.278364   0.408050
    16  H   -0.123987   0.263560
    17  H   -0.459843   0.622233
    18  H    0.016432   0.143574
    19  H    0.113302   0.178055
    20  H   -0.471081   0.657204
    21  H   -0.006985   0.121626
    22  H    0.182302   0.022432
    23  H   -0.367758   0.486793
    24  H   -0.395440   0.530425
    25  H   -0.431464   0.570301
 Sum of Mulliken charges =  -1.00000   1.00000

 Dipole moment (field-independent basis, Debye):
    X=              3.3512    Y=             -0.4779    Z=             -0.3787  Tot=              3.4062
 Quadrupole moment (field-independent basis, Debye-Ang):
   XX=           -145.9590   YY=           -116.0591   ZZ=            -97.6548
   XY=             -5.1121   XZ=             -0.0378   YZ=             -0.6830

 Summary of Natural Population Analysis:

                                       Natural Population
                Natural  -----------------------------------------------
    Atom  No    Charge         Core      Valence    Rydberg      Total
 -----------------------------------------------------------------------
      C    1   -0.29836      0.99964     2.29262    0.00610     3.29836
      C    2   -0.03614      0.99949     2.02640    0.01024     3.03614
      C    3   -0.09349      0.99952     2.08424    0.00974     3.09349
      C    4   -0.12185      0.99956     2.11222    0.01007     3.12185
      C    5   -0.09555      0.99957     2.08540    0.01058     3.09555
      C    6   -0.13478      0.99953     2.12546    0.00979     3.13478
      C    7    0.09090      0.99945     1.89873    0.01092     2.90910
      N    8   -0.31344      0.99968     2.80249    0.01127     3.81344
      C    9    0.00836      0.99964     1.97713    0.01487     2.99164
      N   10   -0.34271      0.99975     2.83205    0.01091     3.84271
      C   11   -0.17855      0.99967     2.17177    0.00711     3.17855
      H   12    0.10570      0.00000     0.39309    0.00121     0.39430
      H   13    0.10551      0.00000     0.39312    0.00138     0.39449
      H   14    0.10162      0.00000     0.39680    0.00157     0.39838
      H   15    0.09843      0.00000     0.40051    0.00106     0.40157
      H   16    0.09891      0.00000     0.40020    0.00089     0.40109
      H   17    0.09992      0.00000     0.39895    0.00113     0.40008
      H   18    0.10377      0.00000     0.39475    0.00148     0.39623
      H   19    0.18751      0.00000     0.30928    0.00320     0.31249
      H   20    0.09386      0.00000     0.40452    0.00162     0.40614
      H   21    0.07861      0.00000     0.41936    0.00203     0.42139
      H   22    0.17356      0.00000     0.32208    0.00437     0.32644
      H   23    0.07975      0.00000     0.41740    0.00285     0.42025
      H   24    0.09624      0.00000     0.40230    0.00146     0.40376
      H   25    0.09222      0.00000     0.40534    0.00244     0.40778
 =======================================================================
   * Total *   -0.00000     10.99548    29.86623    0.13828    41.00000

 Normal termination of Gaussian 16 at Tue Dec  8 20:46:50 2020.
