 Gaussian 16, Revision A.03,

 -----------------------------------------------------------
 # opt freq B3LYP/6-31G(d) empiricaldispersion=gd3bj scf=xqc
 -----------------------------------------------------------

 ------------------------------
 CID_57268015_JID_2895_neutraal
 ------------------------------
 Symbolic Z-matrix:
 Charge =  0 Multiplicity = 1

 SCF Done:  E(RB3LYP) =  -523.699613428     A.U. after   14 cycles
 SCF Done:  E(RB3LYP) =  -523.703081014     A.U. after   14 cycles
 SCF Done:  E(RB3LYP) =  -523.702221058     A.U. after   13 cycles
 SCF Done:  E(RB3LYP) =  -523.702902208     A.U. after   12 cycles
 SCF Done:  E(RB3LYP) =  -523.704631915     A.U. after   10 cycles
 SCF Done:  E(RB3LYP) =  -523.704303689     A.U. after   13 cycles
 SCF Done:  E(RB3LYP) =  -523.704964712     A.U. after   13 cycles
 SCF Done:  E(RB3LYP) =  -523.705210458     A.U. after   12 cycles
 SCF Done:  E(RB3LYP) =  -523.705330676     A.U. after   10 cycles
 SCF Done:  E(RB3LYP) =  -523.705338144     A.U. after   11 cycles
 SCF Done:  E(RB3LYP) =  -523.705492467     A.U. after   11 cycles
 SCF Done:  E(RB3LYP) =  -523.705492414     A.U. after    7 cycles
 SCF Done:  E(RB3LYP) =  -523.705497392     A.U. after   10 cycles
 SCF Done:  E(RB3LYP) =  -523.705492337     A.U. after   10 cycles
 SCF Done:  E(RB3LYP) =  -523.705497297     A.U. after   10 cycles
 SCF Done:  E(RB3LYP) =  -523.705492340     A.U. after   10 cycles
 Optimization completed on the basis of negligible forces.
    -- Stationary point found.
 Normal termination of Gaussian 16 at Wed Dec  9 18:08:27 2020.

 --------------------------------------------------------------------
 #N Geom=AllCheck Guess=TCheck SCRF=Check GenChk RB3LYP/6-31G(d) Freq
 --------------------------------------------------------------------

 Structure from the checkpoint file:  "JID_2895.chk"
 ------------------------------
 CID_57268015_JID_2895_neutraal
 ------------------------------
 Charge =  0 Multiplicity = 1

 SCF Done:  E(RB3LYP) =  -523.705492340     A.U. after    1 cycles

  Exact polarizability: 122.344  -1.623 116.428   1.884  -0.356 100.666
 Approx polarizability: 173.837   0.350 155.460   4.988  -0.104 149.567

                      1                      2                      3
                      A                      A                      A
 Frequencies --     26.0073                58.7420               112.1584
 Red. masses --      4.8904                 3.5678                 2.6084
 Frc consts  --      0.0019                 0.0073                 0.0193
 IR Inten    --      4.5017                 1.2477                 0.0413

                      4                      5                      6
                      A                      A                      A
 Frequencies --    138.7045               193.4333               201.8549
 Red. masses --      2.9383                 1.7333                 1.2974
 Frc consts  --      0.0333                 0.0382                 0.0311
 IR Inten    --      0.7555                 4.0661                 0.0304

                      7                      8                      9
                      A                      A                      A
 Frequencies --    238.2717               265.0497               269.9569
 Red. masses --      2.1105                 1.4766                 1.3121
 Frc consts  --      0.0706                 0.0611                 0.0563
 IR Inten    --      1.0743                 0.8090                 0.2908

                     10                     11                     12
                      A                      A                      A
 Frequencies --    277.1112               300.6842               309.2128
 Red. masses --      1.2754                 1.5877                 2.4801
 Frc consts  --      0.0577                 0.0846                 0.1397
 IR Inten    --      0.2145                 1.4588                 0.3836

                     13                     14                     15
                      A                      A                      A
 Frequencies --    334.6475               346.4212               370.9827
 Red. masses --      2.7537                 1.8821                 2.4629
 Frc consts  --      0.1817                 0.1331                 0.1997
 IR Inten    --      5.2836                 0.5450                 0.1010

                     16                     17                     18
                      A                      A                      A
 Frequencies --    378.1371               393.7337               400.6603
 Red. masses --      1.3472                 1.2958                 1.7573
 Frc consts  --      0.1135                 0.1184                 0.1662
 IR Inten    --      1.0802                 0.6704                 2.8858

                     19                     20                     21
                      A                      A                      A
 Frequencies --    428.4557               440.8913               446.4868
 Red. masses --      2.3926                 2.7988                 1.9854
 Frc consts  --      0.2588                 0.3205                 0.2332
 IR Inten    --      1.2725                 5.8361                 0.2995

                     22                     23                     24
                      A                      A                      A
 Frequencies --    493.4502               514.2626               536.8416
 Red. masses --      2.0883                 2.1366                 3.4275
 Frc consts  --      0.2996                 0.3329                 0.5820
 IR Inten    --      0.6759                 0.4605                14.0556

                     25                     26                     27
                      A                      A                      A
 Frequencies --    591.1470               671.7046               726.9692
 Red. masses --      2.7819                 2.2862                 2.0882
 Frc consts  --      0.5728                 0.6077                 0.6502
 IR Inten    --      2.3160                 3.3740                 6.5325

                     28                     29                     30
                      A                      A                      A
 Frequencies --    783.7906               846.7148               914.9907
 Red. masses --      2.6335                 2.3598                 1.8189
 Frc consts  --      0.9532                 0.9968                 0.8972
 IR Inten    --      0.5750                 1.4715                 1.7864

                     31                     32                     33
                      A                      A                      A
 Frequencies --    917.4028               931.0460               935.7294
 Red. masses --      1.7820                 1.7385                 1.7040
 Frc consts  --      0.8836                 0.8879                 0.8790
 IR Inten    --      0.1010                 0.5019                 7.5517

                     34                     35                     36
                      A                      A                      A
 Frequencies --    963.4028               971.5624               976.4985
 Red. masses --      1.5880                 1.3543                 1.3351
 Frc consts  --      0.8684                 0.7532                 0.7501
 IR Inten    --     18.0036                 6.8017                 7.0146

                     37                     38                     39
                      A                      A                      A
 Frequencies --   1029.1326              1055.3043              1057.7676
 Red. masses --      3.6197                 1.4342                 1.4034
 Frc consts  --      2.2587                 0.9410                 0.9252
 IR Inten    --     12.2151                 4.4727                 2.4128

                     40                     41                     42
                      A                      A                      A
 Frequencies --   1060.1620              1061.2649              1128.3917
 Red. masses --      1.3647                 1.3747                 2.1106
 Frc consts  --      0.9037                 0.9122                 1.5834
 IR Inten    --      1.1800                 2.0944                 2.8457

                     43                     44                     45
                      A                      A                      A
 Frequencies --   1164.5355              1231.6142              1240.6269
 Red. masses --      3.3239                 2.2047                 2.4067
 Frc consts  --      2.6558                 1.9704                 2.1825
 IR Inten    --     19.0958                89.9725                19.3091

                     46                     47                     48
                      A                      A                      A
 Frequencies --   1242.4291              1248.8924              1258.5540
 Red. masses --      2.4109                 2.4802                 2.3521
 Frc consts  --      2.1927                 2.2793                 2.1951
 IR Inten    --     13.5900                 7.7577                13.7598

                     49                     50                     51
                      A                      A                      A
 Frequencies --   1311.0737              1333.8110              1357.2955
 Red. masses --      3.4628                 1.4297                 1.3007
 Frc consts  --      3.5070                 1.4986                 1.4118
 IR Inten    --     38.4312                14.7223                15.0170

                     52                     53                     54
                      A                      A                      A
 Frequencies --   1422.3788              1423.6920              1427.1940
 Red. masses --      1.2309                 1.2378                 1.2396
 Frc consts  --      1.4673                 1.4782                 1.4877
 IR Inten    --      0.7874                19.7715                 3.8705

                     55                     56                     57
                      A                      A                      A
 Frequencies --   1429.8800              1432.5977              1456.1078
 Red. masses --      1.2272                 1.2202                 1.2158
 Frc consts  --      1.4783                 1.4755                 1.5188
 IR Inten    --     16.1780                 0.8132                24.6322

                     58                     59                     60
                      A                      A                      A
 Frequencies --   1463.7507              1488.2535              1508.3180
 Red. masses --      1.2046                 1.0643                 1.0525
 Frc consts  --      1.5206                 1.3888                 1.4108
 IR Inten    --      5.1418                 7.1127                 1.2011

                     61                     62                     63
                      A                      A                      A
 Frequencies --   1514.3593              1518.1107              1520.3750
 Red. masses --      1.0511                 1.0490                 1.0483
 Frc consts  --      1.4202                 1.4243                 1.4277
 IR Inten    --      0.2153                 2.1662                 1.7849

                     64                     65                     66
                      A                      A                      A
 Frequencies --   1525.4780              1528.5356              1537.5027
 Red. masses --      1.0528                 1.0456                 1.0529
 Frc consts  --      1.4435                 1.4394                 1.4665
 IR Inten    --      1.6574                 0.2667                 0.6147

                     67                     68                     69
                      A                      A                      A
 Frequencies --   1545.8756              1548.2431              1555.9224
 Red. masses --      1.0509                 1.0552                 1.0560
 Frc consts  --      1.4796                 1.4902                 1.5062
 IR Inten    --      4.9923                 7.4941                 2.3730

                     70                     71                     72
                      A                      A                      A
 Frequencies --   1560.3517              1569.5126              1824.0884
 Red. masses --      1.0522                 1.0518                10.3595
 Frc consts  --      1.5094                 1.5266                20.3087
 IR Inten    --      8.5497                 2.2683               157.4860

                     73                     74                     75
                      A                      A                      A
 Frequencies --   2903.8935              3055.0194              3055.9963
 Red. masses --      1.0835                 1.0390                 1.0391
 Frc consts  --      5.3833                 5.7135                 5.7176
 IR Inten    --     94.6766                 5.2688                34.3224

                     76                     77                     78
                      A                      A                      A
 Frequencies --   3058.1507              3060.3272              3066.3513
 Red. masses --      1.0392                 1.0367                 1.0419
 Frc consts  --      5.7261                 5.7204                 5.7720
 IR Inten    --     15.6476                18.5491                24.6584

                     79                     80                     81
                      A                      A                      A
 Frequencies --   3074.5742              3092.0165              3113.4963
 Red. masses --      1.0400                 1.0682                 1.0992
 Frc consts  --      5.7921                 6.0170                 6.2780
 IR Inten    --     15.0797                20.2827                18.7194

                     82                     83                     84
                      A                      A                      A
 Frequencies --   3116.2884              3122.2650              3124.3315
 Red. masses --      1.1001                 1.1003                 1.1005
 Frc consts  --      6.2944                 6.3200                 6.3294
 IR Inten    --     24.5787                 4.7430                27.7975

                     85                     86                     87
                      A                      A                      A
 Frequencies --   3132.1159              3132.6207              3136.2077
 Red. masses --      1.1020                 1.1021                 1.1005
 Frc consts  --      6.3693                 6.3720                 6.3775
 IR Inten    --     42.9701                12.8995                63.2850

                     88                     89                     90
                      A                      A                      A
 Frequencies --   3138.1590              3150.2680              3152.0335
 Red. masses --      1.1017                 1.0963                 1.0952
 Frc consts  --      6.3925                 6.4102                 6.4110
 IR Inten    --     58.7408                14.4217                37.6772

                     91                     92                     93
                      A                      A                      A
 Frequencies --   3156.1249              3171.9795              3186.4743
 Red. masses --      1.0994                 1.0974                 1.0943
 Frc consts  --      6.4525                 6.5052                 6.5462
 IR Inten    --     16.6513                19.2221                25.7934

 - Thermochemistry -
 -------------------
 Temperature   298.150 Kelvin.  Pressure   1.00000 Atm.
 Atom     1 has atomic number  6 and mass  12.00000

 Molecular mass:   171.16231 amu.
 Principal axes and moments of inertia in atomic units:
                           1         2         3
     Eigenvalues --  1800.537292107.885523021.99300
           X            0.98891  -0.14845   0.00508
           Y            0.14845   0.98892   0.00062
           Z           -0.00512   0.00014   0.99999
 This molecule is an asymmetric top.
 Rotational symmetry number  1.
 Warning -- assumption of classical behavior for rotation
           may cause significant error
 Rotational temperatures (Kelvin)      0.04810     0.04109     0.02866
 Rotational constants (GHZ):           1.00233     0.85619     0.59720
 Zero-point vibrational energy     792449.4 (Joules/Mol)
                                  189.39995 (Kcal/Mol)
 Warning -- explicit consideration of  25 degrees of freedom as
           vibrations may cause significant error
 Vibrational temperatures:     37.42    84.52   161.37   199.56   278.31
          (Kelvin)            290.42   342.82   381.35   388.41   398.70
                              432.62   444.89   481.48   498.42   533.76
                              544.05   566.49   576.46   616.45   634.34
                              642.39   709.96   739.91   772.40   850.53
                              966.43  1045.95  1127.70  1218.23  1316.47
                             1319.94  1339.57  1346.31  1386.12  1397.86
                             1404.96  1480.69  1518.35  1521.89  1525.34
                             1526.92  1623.50  1675.51  1772.02  1784.99
                             1787.58  1796.88  1810.78  1886.34  1919.06
                             1952.85  2046.49  2048.38  2053.41  2057.28
                             2061.19  2095.01  2106.01  2141.26  2170.13
                             2178.83  2184.22  2187.48  2194.82  2199.22
                             2212.12  2224.17  2227.58  2238.63  2245.00
                             2258.18  2624.46  4178.06  4395.49  4396.90
                             4400.00  4403.13  4411.80  4423.63  4448.72
                             4479.63  4483.64  4492.24  4495.22  4506.42
                             4507.14  4512.30  4515.11  4532.53  4535.07
                             4540.96  4563.77  4584.63

 Zero-point correction=                           0.301828 (Hartree/Particle)
 Thermal correction to Energy=                    0.316328
 Thermal correction to Enthalpy=                  0.317272
 Thermal correction to Gibbs Free Energy=         0.261869
 Sum of electronic and zero-point Energies=           -523.403664
 Sum of electronic and thermal Energies=              -523.389164
 Sum of electronic and thermal Enthalpies=            -523.388220
 Sum of electronic and thermal Free Energies=         -523.443623

                     E (Thermal)             CV                S
                      KCal/Mol        Cal/Mol-Kelvin    Cal/Mol-Kelvin
 Total                  198.499             56.760            116.606
 Electronic               0.000              0.000              0.000
 Translational            0.889              2.981             41.320
 Rotational               0.889              2.981             30.818
 Vibrational            196.721             50.798             44.468
 Vibration     1          0.593              1.985              6.113
 Vibration     2          0.596              1.974              4.499
 Vibration     3          0.607              1.939              3.231
 Vibration     4          0.614              1.915              2.822
 Vibration     5          0.635              1.849              2.195
 Vibration     6          0.639              1.837              2.116
 Vibration     7          0.656              1.782              1.816
 Vibration     8          0.671              1.737              1.628
 Vibration     9          0.674              1.728              1.596
 Vibration    10          0.678              1.716              1.551
 Vibration    11          0.693              1.672              1.413
 Vibration    12          0.699              1.656              1.367
 Vibration    13          0.716              1.606              1.238
 Vibration    14          0.724              1.583              1.182
 Vibration    15          0.743              1.532              1.076
 Vibration    16          0.748              1.517              1.047
 Vibration    17          0.761              1.484              0.986
 Vibration    18          0.766              1.469              0.960
 Vibration    19          0.790              1.408              0.864
 Vibration    20          0.801              1.381              0.824
 Vibration    21          0.806              1.369              0.806
 Vibration    22          0.849              1.265              0.675
 Vibration    23          0.869              1.218              0.623
 Vibration    24          0.892              1.169              0.572
 Vibration    25          0.949              1.051              0.465

 Optimization completed.
    -- Stationary point found.
 Normal termination of Gaussian 16 at Wed Dec  9 18:18:59 2020.

 ----------------------------------------------------------------------
 # B3LYP/6-311++G(d,p) empiricaldispersion=gd3bj scf=xqc pop=npa geom=c
 heck
 ----------------------------------------------------------------------

 --------------------------------------
 CID_57268015_JID_2895_Energie_neutraal
 --------------------------------------
 Structure from the checkpoint file:  "JID_2895.chk"
 Charge =  0 Multiplicity = 1

 SCF Done:  E(RB3LYP) =  -523.857832255     A.U. after   13 cycles
 Normal termination of Gaussian 16 at Wed Dec  9 18:22:40 2020.

 ----------------------------------------------------------------------
 # B3LYP/6-311++G(d,p) empiricaldispersion=gd3bj scf=xqc pop=npa geom=c
 heck
 ----------------------------------------------------------------------

 ------------------------------------
 CID_57268015_JID_2895_Energie_kation
 ------------------------------------
 Structure from the checkpoint file:  "JID_2895.chk"
 Charge =  1 Multiplicity = 2

 SCF Done:  E(UB3LYP) =  -523.580479050     A.U. after   20 cycles
 Normal termination of Gaussian 16 at Wed Dec  9 18:30:13 2020.
 Gaussian 16:  ES64L-G16RevA.03 25-Dec-2016

 ----------------------------------------------------------------------
 # B3LYP/6-311++G(d,p) empiricaldispersion=gd3bj scf=xqc pop=npa geom=c
 heck
 ----------------------------------------------------------------------

 -----------------------------------
 CID_57268015_JID_2895_Energie_anion
 -----------------------------------
 Structure from the checkpoint file:  "JID_2895.chk"
 Charge = -1 Multiplicity = 2

                         Standard orientation:
 ---------------------------------------------------------------------
 Center     Atomic      Atomic             Coordinates (Angstroms)
 Number     Number       Type             X           Y           Z
 ---------------------------------------------------------------------
      1          6           0        0.911746   -2.355551   -0.444143
      2          6           0        1.202867   -0.900043   -0.012498
      3          6           0        1.397756   -0.937458    1.521534
      4          6           0        2.544595   -0.541338   -0.698724
      5          7           0        0.110828    0.015327   -0.481352
      6          6           0       -1.156887   -0.592924   -0.850577
      7          6           0       -2.073790   -1.095149    0.265840
      8          8           0       -3.270034   -1.230802    0.129056
      9          6           0       -0.029221    1.427990   -0.004536
     10          6           0       -0.809690    1.554185    1.326450
     11          6           0        1.324651    2.144138    0.152893
     12          6           0       -0.793828    2.244350   -1.077343
     13          1           0        1.748926   -2.981205   -0.122126
     14          1           0        0.831102   -2.451155   -1.531797
     15          1           0        0.008577   -2.769532    0.013515
     16          1           0        2.206083   -1.633826    1.773518
     17          1           0        1.666885    0.034265    1.938297
     18          1           0        0.490310   -1.282369    2.027531
     19          1           0        2.383638   -0.414311   -1.773523
     20          1           0        2.999827    0.368464   -0.310958
     21          1           0        3.267879   -1.351139   -0.550135
     22          1           0       -1.751809    0.095685   -1.451546
     23          1           0       -0.989336   -1.447506   -1.512674
     24          1           0       -1.575819   -1.358854    1.226065
     25          1           0       -0.304809    1.043923    2.149653
     26          1           0       -0.917818    2.610181    1.600738
     27          1           0       -1.821536    1.144968    1.239000
     28          1           0        1.872732    2.162954   -0.792696
     29          1           0        1.132936    3.179811    0.450410
     30          1           0        1.963148    1.706469    0.920760
     31          1           0       -0.373662    2.053846   -2.070036
     32          1           0       -1.865205    2.026506   -1.100200
     33          1           0       -0.696765    3.312746   -0.860148
 ---------------------------------------------------------------------

 SCF Done:  E(UB3LYP) =  -523.844128816     A.U. after   32 cycles

 The electronic state is 2-A.
 Alpha  occ. eigenvalues --  -18.99936 -14.19531 -10.12951 -10.11317 -10.11129
 Alpha  occ. eigenvalues --  -10.08633 -10.05942 -10.05512 -10.05265 -10.05122
 Alpha  occ. eigenvalues --  -10.04971 -10.04604  -0.93058  -0.81479  -0.70708
 Alpha  occ. eigenvalues --   -0.67492  -0.60138  -0.59001  -0.58006  -0.57762
 Alpha  occ. eigenvalues --   -0.57376  -0.47773  -0.47057  -0.42177  -0.38691
 Alpha  occ. eigenvalues --   -0.38117  -0.35190  -0.34143  -0.33675  -0.32956
 Alpha  occ. eigenvalues --   -0.32526  -0.32125  -0.30426  -0.29624  -0.28730
 Alpha  occ. eigenvalues --   -0.28220  -0.27551  -0.27224  -0.26588  -0.26172
 Alpha  occ. eigenvalues --   -0.25741  -0.24404  -0.23540  -0.22571  -0.22078
 Alpha  occ. eigenvalues --   -0.21079  -0.15408  -0.09511   0.04774
 Alpha virt. eigenvalues --    0.06760   0.07167   0.08054   0.08630   0.09221
 Alpha virt. eigenvalues --    0.09622   0.10170   0.10600   0.11038   0.12150
 Alpha virt. eigenvalues --    0.12284   0.12865   0.13436   0.13511   0.14018

  Beta  occ. eigenvalues --  -18.99769 -14.19525 -10.12767 -10.11314 -10.11128
  Beta  occ. eigenvalues --  -10.08645 -10.05916 -10.05496 -10.05235 -10.05089
  Beta  occ. eigenvalues --  -10.04934 -10.04576  -0.92729  -0.81465  -0.70687
  Beta  occ. eigenvalues --   -0.67445  -0.60051  -0.58942  -0.57952  -0.57666
  Beta  occ. eigenvalues --   -0.57290  -0.47694  -0.46727  -0.42112  -0.38595
  Beta  occ. eigenvalues --   -0.38078  -0.35123  -0.34087  -0.33522  -0.32915
  Beta  occ. eigenvalues --   -0.32441  -0.31995  -0.30221  -0.29539  -0.28678
  Beta  occ. eigenvalues --   -0.28032  -0.27506  -0.27042  -0.26525  -0.26132
  Beta  occ. eigenvalues --   -0.25679  -0.24366  -0.23192  -0.22509  -0.22018
  Beta  occ. eigenvalues --   -0.21049  -0.15290  -0.09459
  Beta virt. eigenvalues --    0.07093   0.07955   0.08549   0.08670   0.09096
  Beta virt. eigenvalues --    0.09808   0.10069   0.10551   0.10958   0.11337
  Beta virt. eigenvalues --    0.12546   0.12663   0.13205   0.13556   0.13795

 Mulliken charges and spin densities:
               1          2
     1  C    0.231659  -0.723930
     2  C   -2.194736   2.005654
     3  C    1.177571  -1.632446
     4  C    0.802488  -1.263143
     5  N    0.586714  -0.089296
     6  C    0.181104  -0.458278
     7  C   -0.157738   0.061805
     8  O   -0.256717   0.061584
     9  C   -0.982884   0.922882
    10  C    0.328805  -0.868151
    11  C    0.267295  -0.712687
    12  C    0.241111  -0.746291
    13  H   -0.135007   0.286405
    14  H   -0.209775   0.376624
    15  H    0.134041   0.012865
    16  H   -0.156645   0.305830
    17  H   -0.022850   0.173918
    18  H   -0.124637   0.256188
    19  H   -0.148028   0.311281
    20  H   -0.161256   0.301674
    21  H   -0.102887   0.236081
    22  H    0.211470  -0.022849
    23  H    0.090266   0.079043
    24  H    0.173015  -0.042354
    25  H    0.047895   0.084049
    26  H   -0.313631   0.474296
    27  H    0.121378   0.071315
    28  H   -0.071426   0.239018
    29  H   -0.244575   0.399258
    30  H   -0.323278   0.460771
    31  H   -0.019843   0.187625
    32  H    0.085414   0.061021
    33  H   -0.054310   0.190236
 Sum of Mulliken charges =  -1.00000   1.00000

 Dipole moment (field-independent basis, Debye):
    X=             -1.7462    Y=             -0.8240    Z=             -0.8399  Tot=              2.1056
 Quadrupole moment (field-independent basis, Debye-Ang):
   XX=           -136.4342   YY=           -126.2005   ZZ=           -112.9213
   XY=             -2.4960   XZ=             -0.3501   YZ=             -4.2886

 Summary of Natural Population Analysis:

                                       Natural Population
                Natural  -----------------------------------------------
    Atom  No    Charge         Core      Valence    Rydberg      Total
 -----------------------------------------------------------------------
      C    1   -0.28873      0.99962     2.28231    0.00680     3.28873
      C    2    0.06764      0.99957     1.91763    0.01516     2.93236
      C    3   -0.29426      0.99960     2.28721    0.00744     3.29426
      C    4   -0.28767      0.99961     2.28061    0.00745     3.28767
      N    5   -0.29858      0.99966     2.78186    0.01706     3.79858
      C    6   -0.14198      0.99957     2.12956    0.01286     3.14198
      C    7    0.23747      0.99973     1.74325    0.01956     2.76253
      O    8   -0.27308      0.99988     3.26652    0.00668     4.27308
      C    9    0.06786      0.99957     1.91803    0.01454     2.93214
      C   10   -0.29609      0.99960     2.28937    0.00712     3.29609
      C   11   -0.28913      0.99961     2.28200    0.00752     3.28913
      C   12   -0.28898      0.99962     2.28253    0.00683     3.28898
      H   13    0.10434      0.00000     0.39480    0.00086     0.39566
      H   14    0.10263      0.00000     0.39642    0.00094     0.39737
      H   15    0.09811      0.00000     0.40072    0.00117     0.40189
      H   16    0.10114      0.00000     0.39772    0.00114     0.39886
      H   17    0.10088      0.00000     0.39782    0.00131     0.39912
      H   18    0.09765      0.00000     0.40107    0.00128     0.40235
      H   19    0.10328      0.00000     0.39517    0.00155     0.39672
      H   20    0.10185      0.00000     0.39679    0.00136     0.39815
      H   21    0.09729      0.00000     0.40147    0.00124     0.40271
      H   22    0.10855      0.00000     0.39003    0.00142     0.39145
      H   23    0.11286      0.00000     0.38571    0.00143     0.38714
      H   24    0.04224      0.00000     0.45578    0.00198     0.45776
      H   25    0.10244      0.00000     0.39650    0.00106     0.39756
      H   26    0.10107      0.00000     0.39785    0.00108     0.39893
      H   27    0.10111      0.00000     0.39798    0.00092     0.39889
      H   28    0.10335      0.00000     0.39534    0.00131     0.39665
      H   29    0.10252      0.00000     0.39619    0.00129     0.39748
      H   30    0.10057      0.00000     0.39804    0.00139     0.39943
      H   31    0.10432      0.00000     0.39466    0.00101     0.39568
      H   32    0.09771      0.00000     0.40138    0.00091     0.40229
      H   33    0.10162      0.00000     0.39755    0.00083     0.39838
 =======================================================================
   * Total *   -0.00000     11.99564    35.84989    0.15447    48.00000

 Normal termination of Gaussian 16 at Wed Dec  9 18:40:51 2020.
