 Gaussian 16, Revision A.03,

 -----------------------------------------------------------
 # opt freq B3LYP/6-31G(d) empiricaldispersion=gd3bj scf=xqc
 -----------------------------------------------------------

 -------------------------------
 CID_130661065_JID_2207_neutraal
 -------------------------------
 Symbolic Z-matrix:
 Charge =  0 Multiplicity = 1

 SCF Done:  E(RB3LYP) =  -521.335528132     A.U. after   15 cycles
 SCF Done:  E(RB3LYP) =  -521.337697183     A.U. after   12 cycles
 SCF Done:  E(RB3LYP) =  -521.338013671     A.U. after   12 cycles
 SCF Done:  E(RB3LYP) =  -521.338327659     A.U. after   12 cycles
 SCF Done:  E(RB3LYP) =  -521.338424558     A.U. after   11 cycles
 SCF Done:  E(RB3LYP) =  -521.338507702     A.U. after   11 cycles
 SCF Done:  E(RB3LYP) =  -521.338612384     A.U. after   12 cycles
 SCF Done:  E(RB3LYP) =  -521.338760643     A.U. after   11 cycles
 SCF Done:  E(RB3LYP) =  -521.338819659     A.U. after   10 cycles
 SCF Done:  E(RB3LYP) =  -521.338822827     A.U. after    9 cycles
 SCF Done:  E(RB3LYP) =  -521.338823645     A.U. after    8 cycles
 SCF Done:  E(RB3LYP) =  -521.338823405     A.U. after    9 cycles
 SCF Done:  E(RB3LYP) =  -521.338823887     A.U. after    8 cycles
 SCF Done:  E(RB3LYP) =  -521.338823749     A.U. after    8 cycles
 Optimization completed.
    -- Stationary point found.
 Normal termination of Gaussian 16 at Wed Dec  9 16:57:17 2020.

 --------------------------------------------------------------------
 #N Geom=AllCheck Guess=TCheck SCRF=Check GenChk RB3LYP/6-31G(d) Freq
 --------------------------------------------------------------------

 Structure from the checkpoint file:  "JID_2207.chk"
 -------------------------------
 CID_130661065_JID_2207_neutraal
 -------------------------------
 Charge =  0 Multiplicity = 1

 SCF Done:  E(RB3LYP) =  -521.338823749     A.U. after    1 cycles

  Exact polarizability: 136.421  -2.981 106.560  -4.326   6.221  93.342
 Approx polarizability: 187.845 -12.090 149.351 -17.517  16.705 148.025

                      1                      2                      3
                      A                      A                      A
 Frequencies --     45.9295                71.8257               134.5549
 Red. masses --      5.4738                 3.5472                 3.0877
 Frc consts  --      0.0068                 0.0108                 0.0329
 IR Inten    --      5.6285                 1.4648                 4.0596

                      4                      5                      6
                      A                      A                      A
 Frequencies --    161.2373               184.5225               231.4629
 Red. masses --      3.6012                 2.2967                 1.3190
 Frc consts  --      0.0552                 0.0461                 0.0416
 IR Inten    --      4.4076                 0.4904                 0.5013

                      7                      8                      9
                      A                      A                      A
 Frequencies --    265.8732               270.2237               322.8972
 Red. masses --      3.7274                 2.0123                 1.6308
 Frc consts  --      0.1552                 0.0866                 0.1002
 IR Inten    --      0.0714                 0.4988                 0.8061

                     10                     11                     12
                      A                      A                      A
 Frequencies --    330.4088               349.4315               352.2126
 Red. masses --      1.6573                 1.8022                 2.1718
 Frc consts  --      0.1066                 0.1296                 0.1587
 IR Inten    --      0.0692                 0.7059                 1.8938

                     13                     14                     15
                      A                      A                      A
 Frequencies --    396.5057               436.0507               450.1494
 Red. masses --      2.5634                 1.2003                 2.4555
 Frc consts  --      0.2375                 0.1345                 0.2932
 IR Inten    --      8.1217               172.3831                 2.7431

                     16                     17                     18
                      A                      A                      A
 Frequencies --    460.8217               522.8131               540.4577
 Red. masses --      2.4583                 2.3631                 2.6068
 Frc consts  --      0.3076                 0.3806                 0.4486
 IR Inten    --      0.4089                 2.2298                 4.6661

                     19                     20                     21
                      A                      A                      A
 Frequencies --    547.2080               600.6886               660.7985
 Red. masses --      1.5657                 2.0590                 2.3434
 Frc consts  --      0.2762                 0.4377                 0.6029
 IR Inten    --     16.3674                34.0109                 1.5848

                     22                     23                     24
                      A                      A                      A
 Frequencies --    691.1532               761.3166               817.0938
 Red. masses --      3.5009                 3.4105                 2.4471
 Frc consts  --      0.9853                 1.1647                 0.9626
 IR Inten    --      9.6480                 6.9269                 5.9955

                     25                     26                     27
                      A                      A                      A
 Frequencies --    835.4729               869.5349               890.6250
 Red. masses --      1.6881                 2.4238                 1.6816
 Frc consts  --      0.6942                 1.0797                 0.7859
 IR Inten    --      3.9523                 2.6931                21.1721

                     28                     29                     30
                      A                      A                      A
 Frequencies --    924.1076               934.1958               935.0599
 Red. masses --      1.6513                 2.0229                 3.2929
 Frc consts  --      0.8309                 1.0401                 1.6963
 IR Inten    --      1.8690                 6.9408                 6.7500

                     31                     32                     33
                      A                      A                      A
 Frequencies --    957.7845               999.3339              1010.0512
 Red. masses --      1.4994                 1.7491                 1.9353
 Frc consts  --      0.8104                 1.0292                 1.1633
 IR Inten    --      1.3836                 2.6940                 2.3276

                     34                     35                     36
                      A                      A                      A
 Frequencies --   1034.9046              1072.7979              1090.0462
 Red. masses --      1.2874                 1.8454                 1.7078
 Frc consts  --      0.8124                 1.2514                 1.1956
 IR Inten    --      1.1641                 1.6218                 1.1998

                     37                     38                     39
                      A                      A                      A
 Frequencies --   1101.7775              1132.3782              1166.6594
 Red. masses --      1.8342                 1.7227                 1.6083
 Frc consts  --      1.3119                 1.3015                 1.2897
 IR Inten    --      7.3393                 3.8667                 2.3257

                     40                     41                     42
                      A                      A                      A
 Frequencies --   1192.2834              1231.8559              1237.8185
 Red. masses --      1.7290                 2.0400                 2.3109
 Frc consts  --      1.4481                 1.8239                 2.0862
 IR Inten    --      7.9281                 5.0859                 3.0963

                     43                     44                     45
                      A                      A                      A
 Frequencies --   1284.8724              1312.2830              1328.0220
 Red. masses --      1.7014                 1.3050                 1.4129
 Frc consts  --      1.6549                 1.3241                 1.4682
 IR Inten    --      5.1367                 4.0130                 3.4393

                     46                     47                     48
                      A                      A                      A
 Frequencies --   1358.8938              1367.0344              1381.9864
 Red. masses --      1.3096                 2.6824                 1.5454
 Frc consts  --      1.4248                 2.9535                 1.7390
 IR Inten    --      9.0806               114.4726                41.5981

                     49                     50                     51
                      A                      A                      A
 Frequencies --   1395.4584              1401.1926              1415.1679
 Red. masses --      1.4596                 1.5211                 1.4799
 Frc consts  --      1.6746                 1.7595                 1.7462
 IR Inten    --      4.0545                 3.1630                 0.6796

                     52                     53                     54
                      A                      A                      A
 Frequencies --   1427.5678              1448.0495              1508.0242
 Red. masses --      1.2821                 1.2229                 1.0793
 Frc consts  --      1.5394                 1.5107                 1.4461
 IR Inten    --      2.7061                 6.8648                 0.7871

                     55                     56                     57
                      A                      A                      A
 Frequencies --   1515.3838              1517.0801              1525.9729
 Red. masses --      1.0701                 1.0802                 1.0602
 Frc consts  --      1.4478                 1.4648                 1.4545
 IR Inten    --      3.7890                 2.3090                 3.0671

                     58                     59                     60
                      A                      A                      A
 Frequencies --   1529.6651              1534.6253              1541.8339
 Red. masses --      1.0726                 1.0666                 1.0773
 Frc consts  --      1.4787                 1.4799                 1.5089
 IR Inten    --      9.4261                 2.2427                 6.6932

                     61                     62                     63
                      A                      A                      A
 Frequencies --   1548.7938              1640.6708              1702.8281
 Red. masses --      1.0585                 1.2316                 8.1219
 Frc consts  --      1.4960                 1.9532                13.8756
 IR Inten    --      4.7345               115.2960                29.2878

                     64                     65                     66
                      A                      A                      A
 Frequencies --   1785.6597              3021.8611              3029.4029
 Red. masses --      8.1452                 1.0719                 1.0599
 Frc consts  --     15.3020                 5.7671                 5.7312
 IR Inten    --    330.2944                14.8296                24.2093

                     67                     68                     69
                      A                      A                      A
 Frequencies --   3038.2994              3039.8965              3048.4356
 Red. masses --      1.0662                 1.0607                 1.0361
 Frc consts  --      5.7991                 5.7753                 5.6729
 IR Inten    --     17.4912                25.7858                23.8201

                     70                     71                     72
                      A                      A                      A
 Frequencies --   3054.2154              3069.2953              3077.9928
 Red. masses --      1.0386                 1.0984                 1.0994
 Frc consts  --      5.7081                 6.0966                 6.1365
 IR Inten    --     26.4752                43.3727                51.9081

                     73                     74                     75
                      A                      A                      A
 Frequencies --   3087.3292              3111.9369              3118.0740
 Red. masses --      1.1046                 1.1025                 1.1017
 Frc consts  --      6.2031                 6.2909                 6.3111
 IR Inten    --     61.6290                 0.8529                58.1857

                     76                     77                     78
                      A                      A                      A
 Frequencies --   3123.3641              3137.1206              3142.2951
 Red. masses --      1.1027                 1.0984                 1.0908
 Frc consts  --      6.3379                 6.3689                 6.3456
 IR Inten    --     29.2921                35.6922                 5.2713

                     79                     80                     81
                      A                      A                      A
 Frequencies --   3221.5673              3568.4525              3692.7378
 Red. masses --      1.0870                 1.0458                 1.1027
 Frc consts  --      6.6469                 7.8464                 8.8597
 IR Inten    --      2.9753                28.2304                18.3480

 - Thermochemistry -
 -------------------
 Temperature   298.150 Kelvin.  Pressure   1.00000 Atm.
 Atom     1 has atomic number  6 and mass  12.00000

 Molecular mass:   167.13101 amu.
 Principal axes and moments of inertia in atomic units:
                           1         2         3
     Eigenvalues --  1277.957282878.300003419.69414
           X            0.99983   0.01423   0.01210
           Y           -0.01425   0.99990   0.00115
           Z           -0.01208  -0.00132   0.99993
 This molecule is an asymmetric top.
 Rotational symmetry number  1.
 Warning -- assumption of classical behavior for rotation
           may cause significant error
 Rotational temperatures (Kelvin)      0.06778     0.03009     0.02533
 Rotational constants (GHZ):           1.41221     0.62702     0.52775
 Zero-point vibrational energy     683520.3 (Joules/Mol)
                                  163.36527 (Kcal/Mol)
 Warning -- explicit consideration of  20 degrees of freedom as
           vibrations may cause significant error
 Vibrational temperatures:     66.08   103.34   193.59   231.98   265.49
          (Kelvin)            333.02   382.53   388.79   464.58   475.38
                              502.75   506.76   570.48   627.38   647.66
                              663.02   752.21   777.60   787.31   864.26
                              950.74   994.42  1095.36  1175.62  1202.06
                             1251.07  1281.41  1329.58  1344.10  1345.34
                             1378.04  1437.82  1453.24  1489.00  1543.52
                             1568.33  1585.21  1629.24  1678.56  1715.43
                             1772.37  1780.94  1848.64  1888.08  1910.73
                             1955.15  1966.86  1988.37  2007.75  2016.00
                             2036.11  2053.95  2083.42  2169.71  2180.30
                             2182.74  2195.53  2200.85  2207.98  2218.36
                             2228.37  2360.56  2449.99  2569.17  4347.78
                             4358.64  4371.44  4373.73  4386.02  4394.33
                             4416.03  4428.55  4441.98  4477.38  4486.21
                             4493.82  4513.62  4521.06  4635.12  5134.21
                             5313.03

 Zero-point correction=                           0.260339 (Hartree/Particle)
 Thermal correction to Energy=                    0.272666
 Thermal correction to Enthalpy=                  0.273611
 Thermal correction to Gibbs Free Energy=         0.222524
 Sum of electronic and zero-point Energies=           -521.078485
 Sum of electronic and thermal Energies=              -521.066157
 Sum of electronic and thermal Enthalpies=            -521.065213
 Sum of electronic and thermal Free Energies=         -521.116299

                     E (Thermal)             CV                S
                      KCal/Mol        Cal/Mol-Kelvin    Cal/Mol-Kelvin
 Total                  171.101             48.826            107.520
 Electronic               0.000              0.000              0.000
 Translational            0.889              2.981             41.249
 Rotational               0.889              2.981             30.909
 Vibrational            169.323             42.865             35.362
 Vibration     1          0.595              1.979              4.985
 Vibration     2          0.598              1.967              4.103
 Vibration     3          0.613              1.919              2.880
 Vibration     4          0.622              1.890              2.535
 Vibration     5          0.631              1.861              2.282
 Vibration     6          0.653              1.793              1.868
 Vibration     7          0.672              1.736              1.623
 Vibration     8          0.674              1.728              1.595
 Vibration     9          0.708              1.630              1.295
 Vibration    10          0.713              1.615              1.258
 Vibration    11          0.727              1.576              1.169
 Vibration    12          0.729              1.571              1.156
 Vibration    13          0.763              1.478              0.976
 Vibration    14          0.797              1.392              0.839
 Vibration    15          0.809              1.361              0.795
 Vibration    16          0.819              1.337              0.764
 Vibration    17          0.878              1.199              0.603
 Vibration    18          0.896              1.161              0.564
 Vibration    19          0.902              1.146              0.550
 Vibration    20          0.959              1.030              0.448

                           ! Non-Optimized Parameters !
 Normal termination of Gaussian 16 at Wed Dec  9 17:04:42 2020.

 ----------------------------------------------------------------------
 # B3LYP/6-311++G(d,p) empiricaldispersion=gd3bj scf=xqc pop=npa geom=c
 heck
 ----------------------------------------------------------------------

 ---------------------------------------
 CID_130661065_JID_2207_Energie_neutraal
 ---------------------------------------
 Structure from the checkpoint file:  "JID_2207.chk"
 Charge =  0 Multiplicity = 1

 SCF Done:  E(RB3LYP) =  -521.493267159     A.U. after   15 cycles
 Normal termination of Gaussian 16 at Wed Dec  9 17:08:27 2020.

 ----------------------------------------------------------------------
 # B3LYP/6-311++G(d,p) empiricaldispersion=gd3bj scf=xqc pop=npa geom=c
 heck
 ----------------------------------------------------------------------

 -------------------------------------
 CID_130661065_JID_2207_Energie_kation
 -------------------------------------
 Structure from the checkpoint file:  "JID_2207.chk"
 Charge =  1 Multiplicity = 2

 SCF Done:  E(UB3LYP) =  -521.171039572     A.U. after   23 cycles
 Normal termination of Gaussian 16 at Wed Dec  9 17:16:21 2020.
 Gaussian 16:  ES64L-G16RevA.03 25-Dec-2016

 ----------------------------------------------------------------------
 # B3LYP/6-311++G(d,p) empiricaldispersion=gd3bj scf=xqc pop=npa geom=c
 heck
 ----------------------------------------------------------------------

 ------------------------------------
 CID_130661065_JID_2207_Energie_anion
 ------------------------------------
 Structure from the checkpoint file:  "JID_2207.chk"
 Charge = -1 Multiplicity = 2

                         Standard orientation:
 ---------------------------------------------------------------------
 Center     Atomic      Atomic             Coordinates (Angstroms)
 Number     Number       Type             X           Y           Z
 ---------------------------------------------------------------------
      1          6           0       -1.833010   -0.925610    1.541740
      2          6           0       -1.251661   -0.844960    0.109810
      3          6           0       -2.223253   -0.067629   -0.819961
      4          6           0       -2.354502    1.420665   -0.485517
      5          6           0       -0.980010    2.091067   -0.471059
      6          6           0       -0.014397    1.374813    0.492138
      7          6           0        0.090414   -0.101978    0.165124
      8          6           0        1.250657   -0.722189   -0.114654
      9          6           0        2.637087   -0.168741   -0.147337
     10          8           0        3.427123   -0.496502   -1.023810
     11          7           0        2.996711    0.708037    0.855675
     12          6           0       -1.132519   -2.278438   -0.426670
     13          1           0       -1.157203   -1.486525    2.196711
     14          1           0       -2.798577   -1.444450    1.524591
     15          1           0       -1.994136    0.058078    1.990173
     16          1           0       -1.857373   -0.166431   -1.851321
     17          1           0       -3.205852   -0.556071   -0.786226
     18          1           0       -2.837791    1.548674    0.492260
     19          1           0       -3.008928    1.907029   -1.219202
     20          1           0       -1.062918    3.147035   -0.187172
     21          1           0       -0.550586    2.064308   -1.481658
     22          1           0       -0.386112    1.504342    1.519125
     23          1           0        0.966413    1.849854    0.446863
     24          1           0        1.241961   -1.751638   -0.454723
     25          1           0        2.483393    0.701195    1.725611
     26          1           0        3.985415    0.917206    0.912465
     27          1           0       -0.508154   -2.905323    0.218928
     28          1           0       -2.126716   -2.736751   -0.470675
     29          1           0       -0.709644   -2.296787   -1.436668
 ---------------------------------------------------------------------

 SCF Done:  E(UB3LYP) =  -521.482573626     A.U. after   32 cycles

 The electronic state is 2-A.
 Alpha  occ. eigenvalues --  -18.97890 -14.21970 -10.16468 -10.08645 -10.07802
 Alpha  occ. eigenvalues --  -10.06316 -10.06012 -10.05987 -10.05963 -10.05755
 Alpha  occ. eigenvalues --  -10.05748 -10.05605  -0.92806  -0.79316  -0.74878
 Alpha  occ. eigenvalues --   -0.67725  -0.66756  -0.60591  -0.58541  -0.55823
 Alpha  occ. eigenvalues --   -0.50973  -0.48037  -0.46198  -0.42908  -0.40791
 Alpha  occ. eigenvalues --   -0.38185  -0.36318  -0.35473  -0.33344  -0.32500
 Alpha  occ. eigenvalues --   -0.31740  -0.30943  -0.30694  -0.29087  -0.27929
 Alpha  occ. eigenvalues --   -0.27438  -0.26347  -0.25522  -0.24822  -0.23354
 Alpha  occ. eigenvalues --   -0.22102  -0.20789  -0.20066  -0.16761  -0.15681
 Alpha  occ. eigenvalues --   -0.14174   0.04496
 Alpha virt. eigenvalues --    0.06769   0.07166   0.07983   0.08322   0.09191
 Alpha virt. eigenvalues --    0.09749   0.10508   0.10661   0.10861   0.11998
 Alpha virt. eigenvalues --    0.12850   0.13235   0.13443   0.13984   0.14192

  Beta  occ. eigenvalues --  -18.97858 -14.21917 -10.16449 -10.08648 -10.07713
  Beta  occ. eigenvalues --  -10.06295 -10.05993 -10.05975 -10.05940 -10.05737
  Beta  occ. eigenvalues --  -10.05727 -10.05575  -0.92748  -0.79218  -0.74802
  Beta  occ. eigenvalues --   -0.67687  -0.66661  -0.60523  -0.58496  -0.55727
  Beta  occ. eigenvalues --   -0.50876  -0.47964  -0.46105  -0.42840  -0.40716
  Beta  occ. eigenvalues --   -0.38119  -0.36247  -0.35438  -0.33296  -0.32417
  Beta  occ. eigenvalues --   -0.31698  -0.30891  -0.30608  -0.29024  -0.27885
  Beta  occ. eigenvalues --   -0.27382  -0.26289  -0.25483  -0.24773  -0.23299
  Beta  occ. eigenvalues --   -0.22040  -0.20734  -0.20012  -0.16687  -0.15528
  Beta  occ. eigenvalues --   -0.13922
  Beta virt. eigenvalues --    0.06864   0.07658   0.07876   0.08491   0.08835
  Beta virt. eigenvalues --    0.09687   0.10312   0.10735   0.11031   0.11397
  Beta virt. eigenvalues --    0.12211   0.13231   0.13655   0.13737   0.14321

 Mulliken charges and spin densities:
               1          2
     1  C    0.638275  -1.389231
     2  C   -0.522279   1.099183
     3  C    0.103068  -0.436636
     4  C    0.470488  -0.890691
     5  C   -0.064814  -0.558051
     6  C    0.560148  -0.894063
     7  C    0.462757   0.276052
     8  C   -0.503504   0.221135
     9  C   -0.023675  -0.267758
    10  O   -0.348776   0.007446
    11  N   -0.261537  -0.108976
    12  C   -0.299903  -0.197022
    13  H   -0.120759   0.279786
    14  H   -0.025889   0.171498
    15  H   -0.056379   0.193549
    16  H    0.038992   0.102809
    17  H   -0.116762   0.269487
    18  H   -0.076285   0.220765
    19  H   -0.215186   0.386669
    20  H   -0.305851   0.474156
    21  H    0.109828   0.021113
    22  H   -0.608135   0.810216
    23  H    0.096954   0.087341
    24  H    0.295659  -0.093675
    25  H   -0.195707   0.450774
    26  H   -0.029170   0.340462
    27  H   -0.043923   0.174064
    28  H   -0.022503   0.178435
    29  H    0.064868   0.071161
 Sum of Mulliken charges =  -1.00000   1.00000

 Dipole moment (field-independent basis, Debye):
    X=             -1.4903    Y=             -2.6694    Z=             -2.4413  Tot=              3.9124
 Quadrupole moment (field-independent basis, Debye-Ang):
   XX=           -134.5961   YY=           -113.0609   ZZ=           -112.4121
   XY=              3.7376   XZ=              3.3077   YZ=             -5.8504

 Summary of Natural Population Analysis:

                                       Natural Population
                Natural  -----------------------------------------------
    Atom  No    Charge         Core      Valence    Rydberg      Total
 -----------------------------------------------------------------------
      C    1   -0.28126      0.99962     2.27416    0.00749     3.28126
      C    2   -0.05617      0.99953     2.04378    0.01285     3.05617
      C    3   -0.18271      0.99959     2.17274    0.01038     3.18271
      C    4   -0.19139      0.99962     2.18341    0.00836     3.19139
      C    5   -0.18222      0.99962     2.17417    0.00843     3.18222
      C    6   -0.21678      0.99957     2.20637    0.01083     3.21678
      C    7    0.04828      0.99947     1.93954    0.01271     2.95172
      C    8   -0.15807      0.99940     2.14810    0.01058     3.15807
      C    9    0.33110      0.99967     1.64665    0.02258     2.66890
      O   10   -0.32123      0.99988     3.31557    0.00578     4.32123
      N   11   -0.40500      0.99971     2.89686    0.00843     3.90500
      C   12   -0.28523      0.99964     2.27956    0.00604     3.28523
      H   13    0.10215      0.00000     0.39668    0.00117     0.39785
      H   14    0.09707      0.00000     0.40197    0.00096     0.40293
      H   15    0.10386      0.00000     0.39471    0.00143     0.39614
      H   16    0.09601      0.00000     0.40286    0.00112     0.40399
      H   17    0.09898      0.00000     0.39999    0.00104     0.40102
      H   18    0.09644      0.00000     0.40189    0.00167     0.40356
      H   19    0.09774      0.00000     0.40129    0.00097     0.40226
      H   20    0.10130      0.00000     0.39745    0.00124     0.39870
      H   21    0.09186      0.00000     0.40684    0.00130     0.40814
      H   22    0.10682      0.00000     0.38879    0.00439     0.39318
      H   23    0.11076      0.00000     0.38738    0.00186     0.38924
      H   24    0.10606      0.00000     0.39277    0.00117     0.39394
      H   25    0.19666      0.00000     0.29935    0.00398     0.30334
      H   26    0.19247      0.00000     0.30563    0.00190     0.30753
      H   27    0.10136      0.00000     0.39777    0.00088     0.39864
      H   28    0.09982      0.00000     0.39931    0.00087     0.40018
      H   29    0.10133      0.00000     0.39779    0.00088     0.39867
 =======================================================================
   * Total *    0.00000     11.99533    33.85339    0.15128    46.00000

 Normal termination of Gaussian 16 at Wed Dec  9 17:27:05 2020.
