 Gaussian 16, Revision A.03,

 -----------------------------------------------------------
 # opt freq B3LYP/6-31G(d) empiricaldispersion=gd3bj scf=xqc
 -----------------------------------------------------------

 ------------------------------
 CID_68735697_JID_5534_neutraal
 ------------------------------
 Symbolic Z-matrix:
 Charge =  0 Multiplicity = 1

 SCF Done:  E(RB3LYP) =  -779.252014577     A.U. after   15 cycles
 SCF Done:  E(RB3LYP) =  -779.257086556     A.U. after   13 cycles
 SCF Done:  E(RB3LYP) =  -779.257364337     A.U. after   13 cycles
 SCF Done:  E(RB3LYP) =  -779.257366645     A.U. after   13 cycles
 SCF Done:  E(RB3LYP) =  -779.257657348     A.U. after   12 cycles
 SCF Done:  E(RB3LYP) =  -779.257687365     A.U. after   11 cycles
 SCF Done:  E(RB3LYP) =  -779.257724328     A.U. after   11 cycles
 SCF Done:  E(RB3LYP) =  -779.257775952     A.U. after   13 cycles
 SCF Done:  E(RB3LYP) =  -779.257783629     A.U. after   12 cycles
 SCF Done:  E(RB3LYP) =  -779.257803791     A.U. after   12 cycles
 SCF Done:  E(RB3LYP) =  -779.257863144     A.U. after   13 cycles
 SCF Done:  E(RB3LYP) =  -779.257985902     A.U. after   13 cycles
 SCF Done:  E(RB3LYP) =  -779.257969754     A.U. after   13 cycles
 SCF Done:  E(RB3LYP) =  -779.257993091     A.U. after   12 cycles
 SCF Done:  E(RB3LYP) =  -779.257993114     A.U. after   10 cycles
 SCF Done:  E(RB3LYP) =  -779.257993189     A.U. after    8 cycles
 Optimization completed.
    -- Stationary point found.
 Normal termination of Gaussian 16 at Thu Dec 10 16:36:39 2020.

 --------------------------------------------------------------------
 #N Geom=AllCheck Guess=TCheck SCRF=Check GenChk RB3LYP/6-31G(d) Freq
 --------------------------------------------------------------------

 Structure from the checkpoint file:  "JID_5534.chk"
 ------------------------------
 CID_68735697_JID_5534_neutraal
 ------------------------------
 Charge =  0 Multiplicity = 1

 SCF Done:  E(RB3LYP) =  -779.257993189     A.U. after    1 cycles

  Exact polarizability: 182.306  -2.127 107.725   0.914   0.715  66.959
 Approx polarizability: 231.012 -17.991 197.085  -0.616   3.112 109.158

                      1                      2                      3
                      A                      A                      A
 Frequencies --     22.8146                42.7704                61.2866
 Red. masses --      4.9888                 5.6166                 5.9146
 Frc consts  --      0.0015                 0.0061                 0.0131
 IR Inten    --      5.0339                 1.6768                 1.8806

                      4                      5                      6
                      A                      A                      A
 Frequencies --     72.1231                99.2456               126.3031
 Red. masses --      3.4155                 3.5350                 1.4532
 Frc consts  --      0.0105                 0.0205                 0.0137
 IR Inten    --      2.5019                 0.5245                 0.8897

                      7                      8                      9
                      A                      A                      A
 Frequencies --    132.1674               142.7939               150.1790
 Red. masses --      1.2601                 2.0749                 3.5000
 Frc consts  --      0.0130                 0.0249                 0.0465
 IR Inten    --      0.3990                 0.3361                 1.0432

                     10                     11                     12
                      A                      A                      A
 Frequencies --    182.5039               234.0197               248.2027
 Red. masses --      4.3801                 7.8610                 7.8995
 Frc consts  --      0.0860                 0.2537                 0.2867
 IR Inten    --      6.4832                 0.7082                 1.3799

                     13                     14                     15
                      A                      A                      A
 Frequencies --    307.7919               316.8651               324.9682
 Red. masses --      4.4478                 4.3457                 3.3853
 Frc consts  --      0.2483                 0.2571                 0.2106
 IR Inten    --     36.9421                 4.3960                 6.9346

                     16                     17                     18
                      A                      A                      A
 Frequencies --    382.5133               429.2191               446.6064
 Red. masses --      8.0266                 5.4755                 4.1082
 Frc consts  --      0.6920                 0.5943                 0.4828
 IR Inten    --      1.6070                13.4937                12.0182

                     19                     20                     21
                      A                      A                      A
 Frequencies --    486.1444               521.7340               575.2468
 Red. masses --      5.1904                 8.0677                 6.0003
 Frc consts  --      0.7227                 1.2939                 1.1698
 IR Inten    --      7.3621                18.7653                33.3133

                     22                     23                     24
                      A                      A                      A
 Frequencies --    635.3315               658.7675               749.4811
 Red. masses --      7.3396                 4.1869                 7.3021
 Frc consts  --      1.7455                 1.0706                 2.4167
 IR Inten    --      4.6655                 7.1785                16.1151

                     25                     26                     27
                      A                      A                      A
 Frequencies --    755.8648               796.7335               832.2531
 Red. masses --      6.7384                 7.0136                 5.3319
 Frc consts  --      2.2683                 2.6231                 2.1759
 IR Inten    --      6.4258                 1.0607                20.2899

                     28                     29                     30
                      A                      A                      A
 Frequencies --    910.1975               947.7250               973.5207
 Red. masses --      4.5836                 3.3320                 1.5540
 Frc consts  --      2.2373                 1.7633                 0.8678
 IR Inten    --      5.2153                 2.7719                 9.4697

                     31                     32                     33
                      A                      A                      A
 Frequencies --    980.1318               999.4860              1071.2941
 Red. masses --      5.0267                 5.2086                 6.8864
 Frc consts  --      2.8452                 3.0656                 4.6565
 IR Inten    --      6.5707                 6.4161               121.7470

                     34                     35                     36
                      A                      A                      A
 Frequencies --   1111.8917              1172.2322              1184.8242
 Red. masses --      5.0410                 2.3502                 1.2773
 Frc consts  --      3.6719                 1.9027                 1.0565
 IR Inten    --    128.6984                24.1526                 2.8187

                     37                     38                     39
                      A                      A                      A
 Frequencies --   1186.1388              1187.9567              1218.8342
 Red. masses --      1.2751                 1.3681                 1.5838
 Frc consts  --      1.0570                 1.1376                 1.3863
 IR Inten    --      0.9449                14.5991                11.9025

                     40                     41                     42
                      A                      A                      A
 Frequencies --   1224.8353              1254.2275              1286.2849
 Red. masses --      1.5544                 3.9686                 3.4724
 Frc consts  --      1.3740                 3.6782                 3.3850
 IR Inten    --     12.1273               427.2544               360.0636

                     43                     44                     45
                      A                      A                      A
 Frequencies --   1332.2897              1367.4420              1414.2526
 Red. masses --      1.9584                 6.2448                 2.0795
 Frc consts  --      2.0481                 6.8800                 2.4505
 IR Inten    --     70.6184               286.2374                 0.4578

                     46                     47                     48
                      A                      A                      A
 Frequencies --   1435.2224              1492.1813              1493.1455
 Red. masses --      1.0855                 1.2067                 1.2456
 Frc consts  --      1.3174                 1.5830                 1.6362
 IR Inten    --     20.4332                18.6453                12.3354

                     49                     50                     51
                      A                      A                      A
 Frequencies --   1511.7611              1512.9311              1522.0500
 Red. masses --      1.0475                 1.0476                 1.0466
 Frc consts  --      1.4104                 1.4129                 1.4285
 IR Inten    --      6.7643                 7.3213                 8.5778

                     52                     53                     54
                      A                      A                      A
 Frequencies --   1523.3523              1614.6167              1688.6593
 Red. masses --      1.0483                10.3960                 7.3043
 Frc consts  --      1.4334                15.9682                12.2720
 IR Inten    --      7.8533                11.0408                10.9619

                     55                     56                     57
                      A                      A                      A
 Frequencies --   1791.4221              1803.0248              1827.4052
 Red. masses --     12.6056                11.5956                12.0530
 Frc consts  --     23.8347                22.2098                23.7146
 IR Inten    --    163.4965               215.2917               203.7259

                     58                     59                     60
                      A                      A                      A
 Frequencies --   3016.8690              3079.5491              3080.8710
 Red. masses --      1.0723                 1.0294                 1.0295
 Frc consts  --      5.7502                 5.7520                 5.7572
 IR Inten    --      1.4907                35.6504                26.9659

                     61                     62                     63
                      A                      A                      A
 Frequencies --   3104.5721              3155.6775              3158.0003
 Red. masses --      1.0871                 1.1077                 1.1079
 Frc consts  --      6.1735                 6.4990                 6.5097
 IR Inten    --      0.2808                17.2697                16.2714

                     64                     65                     66
                      A                      A                      A
 Frequencies --   3189.3704              3193.2139              3234.8521
 Red. masses --      1.1075                 1.1073                 1.0921
 Frc consts  --      6.6372                 6.6525                 6.7330
 IR Inten    --     14.8966                14.2953                 4.7853

 - Thermochemistry -
 -------------------
 Temperature   298.150 Kelvin.  Pressure   1.00000 Atm.
 Atom     1 has atomic number  6 and mass  12.00000

 Molecular mass:   211.04807 amu.
 Principal axes and moments of inertia in atomic units:
                           1         2         3
     Eigenvalues --  1030.613366701.350797454.01572
           X            0.99992   0.01259   0.00287
           Y           -0.01260   0.99991   0.00379
           Z           -0.00282  -0.00383   0.99999
 This molecule is an asymmetric top.
 Rotational symmetry number  1.
 Warning -- assumption of classical behavior for rotation
           may cause significant error
 Rotational temperatures (Kelvin)      0.08404     0.01292     0.01162
 Rotational constants (GHZ):           1.75113     0.26931     0.24212
 Zero-point vibrational energy     466461.3 (Joules/Mol)
                                  111.48693 (Kcal/Mol)
 Warning -- explicit consideration of  21 degrees of freedom as
           vibrations may cause significant error
 Vibrational temperatures:     32.83    61.54    88.18   103.77   142.79
          (Kelvin)            181.72   190.16   205.45   216.07   262.58
                              336.70   357.11   442.84   455.90   467.56
                              550.35   617.55   642.57   699.45   750.66
                              827.65   914.10   947.82  1078.34  1087.52
                             1146.32  1197.43  1309.57  1363.56  1400.68
                             1410.19  1438.04  1541.35  1599.76  1686.58
                             1704.70  1706.59  1709.20  1753.63  1762.26
                             1804.55  1850.68  1916.87  1967.44  2034.79
                             2064.96  2146.92  2148.30  2175.09  2176.77
                             2189.89  2191.76  2323.07  2429.60  2577.46
                             2594.15  2629.23  4340.60  4430.78  4432.69
                             4466.79  4540.32  4543.66  4588.79  4594.32
                             4654.23

 Zero-point correction=                           0.177666 (Hartree/Particle)
 Thermal correction to Energy=                    0.192588
 Thermal correction to Enthalpy=                  0.193532
 Thermal correction to Gibbs Free Energy=         0.133543
 Sum of electronic and zero-point Energies=           -779.080327
 Sum of electronic and thermal Energies=              -779.065405
 Sum of electronic and thermal Enthalpies=            -779.064461
 Sum of electronic and thermal Free Energies=         -779.124450

                     E (Thermal)             CV                S
                      KCal/Mol        Cal/Mol-Kelvin    Cal/Mol-Kelvin
 Total                  120.851             51.562            126.257
 Electronic               0.000              0.000              0.000
 Translational            0.889              2.981             41.944
 Rotational               0.889              2.981             32.310
 Vibrational            119.073             45.600             52.003
 Vibration     1          0.593              1.985              6.373
 Vibration     2          0.595              1.980              5.126
 Vibration     3          0.597              1.973              4.415
 Vibration     4          0.598              1.967              4.095
 Vibration     5          0.604              1.950              3.469
 Vibration     6          0.611              1.927              3.002
 Vibration     7          0.612              1.921              2.914
 Vibration     8          0.616              1.910              2.766
 Vibration     9          0.618              1.902              2.670
 Vibration    10          0.630              1.864              2.303
 Vibration    11          0.654              1.789              1.848
 Vibration    12          0.662              1.766              1.743
 Vibration    13          0.698              1.659              1.374
 Vibration    14          0.704              1.641              1.326
 Vibration    15          0.709              1.626              1.285
 Vibration    16          0.752              1.507              1.029
 Vibration    17          0.791              1.407              0.861
 Vibration    18          0.806              1.368              0.806
 Vibration    19          0.842              1.281              0.694
 Vibration    20          0.877              1.202              0.606
 Vibration    21          0.932              1.085              0.494

                           ! Non-Optimized Parameters !
 Normal termination of Gaussian 16 at Thu Dec 10 16:42:29 2020.

 ----------------------------------------------------------------------
 # B3LYP/6-311++G(d,p) empiricaldispersion=gd3bj scf=xqc pop=npa geom=c
 heck
 ----------------------------------------------------------------------

 --------------------------------------
 CID_68735697_JID_5534_Energie_neutraal
 --------------------------------------
 Structure from the checkpoint file:  "JID_5534.chk"
 Charge =  0 Multiplicity = 1

 SCF Done:  E(RB3LYP) =  -779.485096639     A.U. after   17 cycles
 Normal termination of Gaussian 16 at Thu Dec 10 16:45:12 2020.

 ----------------------------------------------------------------------
 # B3LYP/6-311++G(d,p) empiricaldispersion=gd3bj scf=xqc pop=npa geom=c
 heck
 ----------------------------------------------------------------------

 ------------------------------------
 CID_68735697_JID_5534_Energie_kation
 ------------------------------------
 Structure from the checkpoint file:  "JID_5534.chk"
 Charge =  1 Multiplicity = 2

 SCF Done:  E(UB3LYP) =  -779.149465904     A.U. after   29 cycles
 Normal termination of Gaussian 16 at Thu Dec 10 16:50:51 2020.
 Gaussian 16:  ES64L-G16RevA.03 25-Dec-2016

 ----------------------------------------------------------------------
 # B3LYP/6-311++G(d,p) empiricaldispersion=gd3bj scf=xqc pop=npa geom=c
 heck
 ----------------------------------------------------------------------

 -----------------------------------
 CID_68735697_JID_5534_Energie_anion
 -----------------------------------
 Structure from the checkpoint file:  "JID_5534.chk"
 Charge = -1 Multiplicity = 2

                         Standard orientation:
 ---------------------------------------------------------------------
 Center     Atomic      Atomic             Coordinates (Angstroms)
 Number     Number       Type             X           Y           Z
 ---------------------------------------------------------------------
      1          6           0        5.058175    0.455803   -0.030628
      2          8           0        3.629123    0.608937   -0.012204
      3          6           0        2.928266   -0.546664    0.001018
      4          8           0        3.442297   -1.646981   -0.003287
      5          6           0        1.465648   -0.285219    0.022403
      6          6           0        0.623908   -1.338207    0.075169
      7          7           0       -0.770191   -1.239413    0.149157
      8          6           0       -1.321939   -0.077113    0.082506
      9          6           0       -0.568696    1.199063   -0.169421
     10          8           0       -1.144320    2.209358   -0.525066
     11          6           0        0.934147    1.117964    0.009772
     12          6           0       -2.810217    0.036552    0.286459
     13          8           0       -3.287927    0.742816    1.145542
     14          8           0       -3.500515   -0.740687   -0.555534
     15          6           0       -4.929457   -0.707717   -0.377134
     16          1           0        5.459673    1.468851   -0.037940
     17          1           0        5.369811   -0.091899   -0.923467
     18          1           0        5.393408   -0.088540    0.855706
     19          1           0        1.013618   -2.350144    0.084566
     20          1           0        1.418802    1.732590   -0.755999
     21          1           0        1.176443    1.613485    0.964261
     22          1           0       -5.194168   -1.073587    0.617927
     23          1           0       -5.302189    0.312542   -0.495987
     24          1           0       -5.332329   -1.361728   -1.149637
 ---------------------------------------------------------------------

 SCF Done:  E(UB3LYP) =  -779.552230252     A.U. after   20 cycles

 The electronic state is 2-A.
 Alpha  occ. eigenvalues --  -19.04946 -19.04842 -18.97995 -18.97184 -18.95318
 Alpha  occ. eigenvalues --  -14.15578 -10.16583 -10.16134 -10.12556 -10.12156
 Alpha  occ. eigenvalues --  -10.10163 -10.05366 -10.05270 -10.04215 -10.03340
 Alpha  occ. eigenvalues --   -0.98726  -0.98471  -0.89742  -0.89063  -0.89024
 Alpha  occ. eigenvalues --   -0.78826  -0.67198  -0.63168  -0.61644  -0.59194
 Alpha  occ. eigenvalues --   -0.52679  -0.48235  -0.46032  -0.43736  -0.40451
 Alpha  occ. eigenvalues --   -0.38297  -0.37548  -0.37315  -0.36010  -0.35379
 Alpha  occ. eigenvalues --   -0.33405  -0.32808  -0.31977  -0.30913  -0.29141
 Alpha  occ. eigenvalues --   -0.28253  -0.27625  -0.27104  -0.25798  -0.24407
 Alpha  occ. eigenvalues --   -0.23572  -0.22563  -0.21680  -0.19280  -0.19028
 Alpha  occ. eigenvalues --   -0.16114  -0.15497  -0.14353  -0.11113  -0.08403
 Alpha  occ. eigenvalues --   -0.00249
 Alpha virt. eigenvalues --    0.07394   0.07887   0.10356   0.10728   0.11135
 Alpha virt. eigenvalues --    0.11385   0.11449   0.12041   0.12698   0.13168
 Alpha virt. eigenvalues --    0.13568   0.14022   0.14968   0.16937   0.17136

  Beta  occ. eigenvalues --  -19.04923 -19.04805 -18.97910 -18.97030 -18.94970
  Beta  occ. eigenvalues --  -14.15272 -10.16589 -10.16070 -10.12558 -10.12153
  Beta  occ. eigenvalues --  -10.10093 -10.05291 -10.04873 -10.04251 -10.03092
  Beta  occ. eigenvalues --   -0.98654  -0.98347  -0.89511  -0.88829  -0.88515
  Beta  occ. eigenvalues --   -0.78082  -0.66795  -0.63014  -0.61545  -0.58705
  Beta  occ. eigenvalues --   -0.52098  -0.47903  -0.45771  -0.43510  -0.40201
  Beta  occ. eigenvalues --   -0.38102  -0.37358  -0.37202  -0.35841  -0.35238
  Beta  occ. eigenvalues --   -0.33227  -0.32642  -0.31367  -0.30671  -0.28765
  Beta  occ. eigenvalues --   -0.27667  -0.27310  -0.26948  -0.25652  -0.24160
  Beta  occ. eigenvalues --   -0.23237  -0.21351  -0.19992  -0.18853  -0.18551
  Beta  occ. eigenvalues --   -0.15857  -0.15301  -0.13890  -0.09232  -0.07968
  Beta virt. eigenvalues --    0.06141   0.07386   0.07896   0.10677   0.11039
  Beta virt. eigenvalues --    0.11178   0.11448   0.12036   0.12260   0.12858
  Beta virt. eigenvalues --    0.13549   0.13705   0.14126   0.14975   0.16950

 Mulliken charges and spin densities:
               1          2
     1  C   -0.205464  -0.001803
     2  O   -0.106489   0.010134
     3  C   -0.189858   0.047277
     4  O   -0.346690   0.054643
     5  C    0.898195   0.186365
     6  C   -0.593639   0.044840
     7  N   -0.038673   0.158227
     8  C   -0.428155   0.280664
     9  C    0.072174   0.040545
    10  O   -0.342919   0.125368
    11  C   -0.667016  -0.018095
    12  C    0.027427  -0.013386
    13  O   -0.274649   0.025194
    14  O   -0.014890  -0.000162
    15  C   -0.239263   0.000984
    16  H    0.129985  -0.000157
    17  H    0.162513   0.001077
    18  H    0.161163   0.000734
    19  H    0.181789  -0.005606
    20  H    0.173855   0.022581
    21  H    0.183465   0.038557
    22  H    0.161784   0.000521
    23  H    0.160721  -0.000302
    24  H    0.134634   0.001800
 Sum of Mulliken charges =  -1.00000   1.00000

 Dipole moment (field-independent basis, Debye):
    X=              1.5540    Y=             -0.1541    Z=             -0.6898  Tot=              1.7072
 Quadrupole moment (field-independent basis, Debye-Ang):
   XX=           -105.4274   YY=           -111.9854   ZZ=            -93.2705
   XY=             17.4807   XZ=              4.7461   YZ=              0.4298

 Summary of Natural Population Analysis:

                                       Natural Population
                Natural  -----------------------------------------------
    Atom  No    Charge         Core      Valence    Rydberg      Total
 -----------------------------------------------------------------------
      C    1   -0.10616      0.99961     2.09794    0.00861     3.10616
      O    2   -0.27929      0.99986     3.27147    0.00795     4.27929
      C    3    0.40068      0.99964     1.57553    0.02416     2.59932
      O    4   -0.30982      0.99987     3.30391    0.00604     4.30982
      C    5   -0.03434      0.99943     2.02644    0.00847     3.03434
      C    6    0.03978      0.99947     1.94790    0.01285     2.96022
      N    7   -0.18356      0.99966     2.67281    0.01109     3.68356
      C    8    0.12402      0.99949     1.85843    0.01807     2.87598
      C    9    0.27013      0.99963     1.70882    0.02142     2.72987
      O   10   -0.25550      0.99987     3.24797    0.00766     4.25550
      C   11   -0.24852      0.99958     2.23865    0.01029     3.24852
      C   12    0.40077      0.99966     1.57380    0.02576     2.59923
      O   13   -0.29856      0.99987     3.29223    0.00646     4.29856
      O   14   -0.26835      0.99986     3.25923    0.00927     4.26835
      C   15   -0.10823      0.99961     2.10022    0.00840     3.10823
      H   16    0.08479      0.00000     0.41439    0.00082     0.41521
      H   17    0.08805      0.00000     0.41073    0.00122     0.41195
      H   18    0.08797      0.00000     0.41080    0.00123     0.41203
      H   19    0.09393      0.00000     0.40486    0.00120     0.40607
      H   20    0.11862      0.00000     0.38018    0.00120     0.38138
      H   21    0.12045      0.00000     0.37838    0.00117     0.37955
      H   22    0.08776      0.00000     0.41106    0.00119     0.41224
      H   23    0.08976      0.00000     0.40900    0.00124     0.41024
      H   24    0.08564      0.00000     0.41354    0.00082     0.41436
 =======================================================================
   * Total *   -0.00000     14.99511    39.80831    0.19658    55.00000

 Normal termination of Gaussian 16 at Thu Dec 10 16:55:04 2020.
