 Gaussian 16, Revision A.03,

 -----------------------------------------------------------
 # opt freq B3LYP/6-31G(d) empiricaldispersion=gd3bj scf=xqc
 -----------------------------------------------------------

 -------------------------------
 CID_113501935_JID_8139_neutraal
 -------------------------------
 Symbolic Z-matrix:
 Charge =  0 Multiplicity = 1

 SCF Done:  E(RB3LYP) =  -1200.23740427     A.U. after   15 cycles
 SCF Done:  E(RB3LYP) =  -1200.24133014     A.U. after   13 cycles
 SCF Done:  E(RB3LYP) =  -1200.24048613     A.U. after   14 cycles
 SCF Done:  E(RB3LYP) =  -1200.23879948     A.U. after   14 cycles
 SCF Done:  E(RB3LYP) =  -1200.23750607     A.U. after   14 cycles
 SCF Done:  E(RB3LYP) =  -1200.24145566     A.U. after    9 cycles
 SCF Done:  E(RB3LYP) =  -1200.24202429     A.U. after   14 cycles
 SCF Done:  E(RB3LYP) =  -1200.24214569     A.U. after   12 cycles
 SCF Done:  E(RB3LYP) =  -1200.24226467     A.U. after   12 cycles
 SCF Done:  E(RB3LYP) =  -1200.24230801     A.U. after   11 cycles
 SCF Done:  E(RB3LYP) =  -1200.24231578     A.U. after   10 cycles
 SCF Done:  E(RB3LYP) =  -1200.24231805     A.U. after    9 cycles
 SCF Done:  E(RB3LYP) =  -1200.24231929     A.U. after    9 cycles
 SCF Done:  E(RB3LYP) =  -1200.24231991     A.U. after    9 cycles
 SCF Done:  E(RB3LYP) =  -1200.24232027     A.U. after    9 cycles
 SCF Done:  E(RB3LYP) =  -1200.24232036     A.U. after    8 cycles
 Optimization completed.
    -- Stationary point found.
 Normal termination of Gaussian 16 at Fri Dec 11 18:55:59 2020.

 --------------------------------------------------------------------
 #N Geom=AllCheck Guess=TCheck SCRF=Check GenChk RB3LYP/6-31G(d) Freq
 --------------------------------------------------------------------

 Structure from the checkpoint file:  "JID_8139.chk"
 -------------------------------
 CID_113501935_JID_8139_neutraal
 -------------------------------
 Charge =  0 Multiplicity = 1

 SCF Done:  E(RB3LYP) =  -1200.24232036     A.U. after    1 cycles

  Exact polarizability: 221.342  -2.175 178.891   6.828  -1.109 108.990
 Approx polarizability: 303.158 -11.594 316.348  15.471  -4.595 166.501

                      1                      2                      3
                      A                      A                      A
 Frequencies --     22.6754                45.8510                53.5062
 Red. masses --      7.1956                 7.3271                11.8904
 Frc consts  --      0.0022                 0.0091                 0.0201
 IR Inten    --      1.0015                 1.1026                 0.0310

                      4                      5                      6
                      A                      A                      A
 Frequencies --     64.1039                98.7686               128.8702
 Red. masses --      3.0566                 3.5882                 5.2024
 Frc consts  --      0.0074                 0.0206                 0.0509
 IR Inten    --      2.2805                 2.6450                 0.2339

                      7                      8                      9
                      A                      A                      A
 Frequencies --    149.5889               156.6262               201.3278
 Red. masses --      5.7798                 5.6753                 4.4946
 Frc consts  --      0.0762                 0.0820                 0.1073
 IR Inten    --      3.4891                 3.7003                 3.3966

                     10                     11                     12
                      A                      A                      A
 Frequencies --    208.5147               229.5486               243.0486
 Red. masses --      2.0809                 1.8785                 2.9467
 Frc consts  --      0.0533                 0.0583                 0.1026
 IR Inten    --      0.2144                 0.2645                 2.0299

                     13                     14                     15
                      A                      A                      A
 Frequencies --    274.5768               278.8619               319.8671
 Red. masses --      2.2187                 1.7411                 5.1812
 Frc consts  --      0.0986                 0.0798                 0.3123
 IR Inten    --      2.1918                 0.3325                 0.9894

                     16                     17                     18
                      A                      A                      A
 Frequencies --    346.4696               360.3184               401.4592
 Red. masses --      2.9366                 4.4050                 2.4633
 Frc consts  --      0.2077                 0.3370                 0.2339
 IR Inten    --      2.1320                 9.7933                51.1792

                     19                     20                     21
                      A                      A                      A
 Frequencies --    419.5198               436.4530               447.2595
 Red. masses --      2.6302                 3.0857                 2.5915
 Frc consts  --      0.2727                 0.3463                 0.3054
 IR Inten    --     37.9843                 6.6090                 1.2628

                     22                     23                     24
                      A                      A                      A
 Frequencies --    468.7515               517.6693               528.2314
 Red. masses --      3.9758                 4.5706                 6.2486
 Frc consts  --      0.5147                 0.7217                 1.0273
 IR Inten    --      1.5846                 1.7693                 2.3536

                     25                     26                     27
                      A                      A                      A
 Frequencies --    575.6941               605.6269               622.2549
 Red. masses --      4.1639                 4.5204                 4.0235
 Frc consts  --      0.8131                 0.9769                 0.9179
 IR Inten    --      2.9981                 2.6081                 0.9356

                     28                     29                     30
                      A                      A                      A
 Frequencies --    656.9491               681.7415               692.0272
 Red. masses --      4.5826                 2.3829                 4.1309
 Frc consts  --      1.1653                 0.6525                 1.1656
 IR Inten    --      4.6823                 1.4587                 0.5145

                     31                     32                     33
                      A                      A                      A
 Frequencies --    733.9660               755.1544               786.0359
 Red. masses --      3.7791                 4.8019                 6.5262
 Frc consts  --      1.1995                 1.6134                 2.3757
 IR Inten    --      5.1363                30.2024                44.2560

                     34                     35                     36
                      A                      A                      A
 Frequencies --    803.3289               819.6890               830.5806
 Red. masses --      1.5429                 2.5583                 1.5125
 Frc consts  --      0.5866                 1.0127                 0.6148
 IR Inten    --      0.6751                 9.2236                 0.7493

                     37                     38                     39
                      A                      A                      A
 Frequencies --    858.4818               877.0925               930.6061
 Red. masses --      1.6902                 1.4651                 1.3967
 Frc consts  --      0.7339                 0.6641                 0.7127
 IR Inten    --     48.0456                 2.2168                 3.5721

                     40                     41                     42
                      A                      A                      A
 Frequencies --    940.3878               964.2212               983.1998
 Red. masses --      3.1301                 4.8200                 3.2051
 Frc consts  --      1.6309                 2.6403                 1.8255
 IR Inten    --      1.9823                 9.2107                17.1857

                     43                     44                     45
                      A                      A                      A
 Frequencies --   1003.3074              1015.4125              1025.4748
 Red. masses --      2.2239                 5.5711                 2.2099
 Frc consts  --      1.3189                 3.3843                 1.3692
 IR Inten    --      4.7792                 2.5438                 0.7153

                     46                     47                     48
                      A                      A                      A
 Frequencies --   1078.7581              1095.6720              1110.3489
 Red. masses --      2.1095                 1.7438                 2.2912
 Frc consts  --      1.4464                 1.2334                 1.6643
 IR Inten    --     10.3324                 3.9997                38.6364

                     49                     50                     51
                      A                      A                      A
 Frequencies --   1125.0176              1134.5537              1150.8954
 Red. masses --      2.5303                 1.4949                 1.4323
 Frc consts  --      1.8869                 1.1337                 1.1178
 IR Inten    --      8.4300                47.3674                 5.6238

                     52                     53                     54
                      A                      A                      A
 Frequencies --   1185.9593              1213.8649              1232.9858
 Red. masses --      1.2696                 1.5397                 1.3510
 Frc consts  --      1.0521                 1.3367                 1.2101
 IR Inten    --      0.8278                64.5461                 9.9182

                     55                     56                     57
                      A                      A                      A
 Frequencies --   1235.6074              1252.4291              1272.4676
 Red. masses --      1.3732                 2.0391                 1.3134
 Frc consts  --      1.2352                 1.8845                 1.2530
 IR Inten    --      6.9079               250.6553                10.5663

                     58                     59                     60
                      A                      A                      A
 Frequencies --   1300.4624              1318.0530              1343.1998
 Red. masses --      1.3736                 1.2637                 2.5370
 Frc consts  --      1.3687                 1.2935                 2.6968
 IR Inten    --      8.9564                20.5634                87.8642

                     61                     62                     63
                      A                      A                      A
 Frequencies --   1348.6893              1360.0237              1371.9637
 Red. masses --      1.3193                 1.3546                 1.4329
 Frc consts  --      1.4139                 1.4763                 1.5891
 IR Inten    --      2.4699                 4.5780                27.0981

                     64                     65                     66
                      A                      A                      A
 Frequencies --   1397.6350              1403.4162              1414.9243
 Red. masses --     10.1861                 1.3541                 3.5473
 Frc consts  --     11.7232                 1.5714                 4.1842
 IR Inten    --    399.6176                 3.8589                60.7414

                     67                     68                     69
                      A                      A                      A
 Frequencies --   1433.6267              1479.8886              1495.9514
 Red. masses --      1.6269                 1.7549                 1.0881
 Frc consts  --      1.9701                 2.2644                 1.4346
 IR Inten    --     34.8727                19.9494                 1.8776

                     70                     71                     72
                      A                      A                      A
 Frequencies --   1503.3020              1507.9740              1512.0272
 Red. masses --      1.0937                 1.0927                 1.4854
 Frc consts  --      1.4563                 1.4639                 2.0009
 IR Inten    --     15.4435                 1.9858                 3.2890

                     73                     74                     75
                      A                      A                      A
 Frequencies --   1520.5526              1521.1898              1525.6360
 Red. masses --      1.2318                 1.0471                 2.0119
 Frc consts  --      1.6781                 1.4276                 2.7591
 IR Inten    --     13.0911                 6.0680                30.8874

                     76                     77                     78
                      A                      A                      A
 Frequencies --   1537.0648              1571.4231              1633.5709
 Red. masses --      1.2283                 1.8657                10.6218
 Frc consts  --      1.7098                 2.7144                16.7003
 IR Inten    --     46.3283               117.2189               443.4736

                     79                     80                     81
                      A                      A                      A
 Frequencies --   1637.9042              1692.7284              3028.4840
 Red. masses --      4.6469                 7.8092                 1.0845
 Frc consts  --      7.3450                13.1835                 5.8606
 IR Inten    --     62.4034               127.8826                25.0573

                     82                     83                     84
                      A                      A                      A
 Frequencies --   3034.5480              3044.4832              3049.5662
 Red. masses --      1.0342                 1.0680                 1.0666
 Frc consts  --      5.6110                 5.8322                 5.8440
 IR Inten    --     47.6492                25.2064                26.1158

                     85                     86                     87
                      A                      A                      A
 Frequencies --   3052.1080              3061.9185              3096.5809
 Red. masses --      1.0669                 1.0670                 1.1070
 Frc consts  --      5.8555                 5.8938                 6.2542
 IR Inten    --     42.6336                27.0882                35.2942

                     88                     89                     90
                      A                      A                      A
 Frequencies --   3115.6883              3117.7536              3126.6358
 Red. masses --      1.0960                 1.0972                 1.0975
 Frc consts  --      6.2683                 6.2838                 6.3214
 IR Inten    --     10.2418                10.7391                 7.4310

                     91                     92                     93
                      A                      A                      A
 Frequencies --   3129.1683              3166.3903              3239.7380
 Red. masses --      1.0978                 1.1007                 1.0906
 Frc consts  --      6.3332                 6.5021                 6.7442
 IR Inten    --     34.4265                22.1334                 3.2979

                     94                     95                     96
                      A                      A                      A
 Frequencies --   3265.0826              3288.4087              3609.7342
 Red. masses --      1.0892                 1.0903                 1.0763
 Frc consts  --      6.8416                 6.9466                 8.2631
 IR Inten    --      2.8233                 6.4551                18.2413

 - Thermochemistry -
 -------------------
 Temperature   298.150 Kelvin.  Pressure   1.00000 Atm.
 Atom     1 has atomic number  6 and mass  12.00000

 Molecular mass:   268.08816 amu.
 Principal axes and moments of inertia in atomic units:
                           1         2         3
     Eigenvalues --  2648.59422********************
           X            0.99972  -0.02360   0.00109
           Y            0.02360   0.99972   0.00062
           Z           -0.00111  -0.00059   1.00000
 This molecule is an asymmetric top.
 Rotational symmetry number  1.
 Warning -- assumption of classical behavior for rotation
           may cause significant error
 Rotational temperatures (Kelvin)      0.03270     0.00855     0.00727
 Rotational constants (GHZ):           0.68140     0.17824     0.15157
 Zero-point vibrational energy     729178.7 (Joules/Mol)
                                  174.27789 (Kcal/Mol)
 Warning -- explicit consideration of  26 degrees of freedom as
           vibrations may cause significant error
 Vibrational temperatures:     32.62    65.97    76.98    92.23   142.11
          (Kelvin)            185.42   215.23   225.35   289.67   300.01
                              330.27   349.69   395.05   401.22   460.22
                              498.49   518.42   577.61   603.60   627.96
                              643.51   674.43   744.81   760.01   828.30
                              871.36   895.29   945.20   980.87   995.67
                             1056.01  1086.50  1130.93  1155.81  1179.35
                             1195.02  1235.16  1261.94  1338.93  1353.01
                             1387.30  1414.61  1443.54  1460.95  1475.43
                             1552.09  1576.43  1597.54  1618.65  1632.37
                             1655.88  1706.33  1746.48  1773.99  1777.76
                             1801.97  1830.80  1871.08  1896.38  1932.56
                             1940.46  1956.77  1973.95  2010.89  2019.20
                             2035.76  2062.67  2129.23  2152.34  2162.92
                             2169.64  2175.47  2187.74  2188.65  2195.05
                             2211.49  2260.93  2350.34  2356.58  2435.46
                             4357.31  4366.04  4380.33  4387.65  4391.30
                             4405.42  4455.29  4482.78  4485.75  4498.53
                             4502.18  4555.73  4661.26  4697.73  4731.29
                             5193.60

 Zero-point correction=                           0.277729 (Hartree/Particle)
 Thermal correction to Energy=                    0.294673
 Thermal correction to Enthalpy=                  0.295617
 Thermal correction to Gibbs Free Energy=         0.231720
 Sum of electronic and zero-point Energies=          -1199.964591
 Sum of electronic and thermal Energies=             -1199.947648
 Sum of electronic and thermal Enthalpies=           -1199.946704
 Sum of electronic and thermal Free Energies=        -1200.010600

                     E (Thermal)             CV                S
                      KCal/Mol        Cal/Mol-Kelvin    Cal/Mol-Kelvin
 Total                  184.910             64.738            134.481
 Electronic               0.000              0.000              0.000
 Translational            0.889              2.981             42.658
 Rotational               0.889              2.981             34.123
 Vibrational            183.132             58.777             57.701
 Vibration     1          0.593              1.985              6.385
 Vibration     2          0.595              1.979              4.989
 Vibration     3          0.596              1.976              4.683
 Vibration     4          0.597              1.971              4.327
 Vibration     5          0.604              1.950              3.478
 Vibration     6          0.611              1.924              2.963
 Vibration     7          0.618              1.903              2.677
 Vibration     8          0.620              1.895              2.590
 Vibration     9          0.638              1.838              2.121
 Vibration    10          0.642              1.828              2.057
 Vibration    11          0.652              1.796              1.882
 Vibration    12          0.659              1.774              1.780
 Vibration    13          0.677              1.720              1.567
 Vibration    14          0.679              1.713              1.541
 Vibration    15          0.706              1.636              1.311
 Vibration    16          0.724              1.582              1.182
 Vibration    17          0.735              1.554              1.121
 Vibration    18          0.767              1.467              0.957
 Vibration    19          0.782              1.428              0.894
 Vibration    20          0.797              1.391              0.838
 Vibration    21          0.806              1.367              0.804
 Vibration    22          0.826              1.319              0.741
 Vibration    23          0.873              1.211              0.615
 Vibration    24          0.883              1.188              0.591
 Vibration    25          0.932              1.084              0.493
 Vibration    26          0.964              1.020              0.440

                           ! Non-Optimized Parameters !
 Normal termination of Gaussian 16 at Fri Dec 11 19:09:20 2020.

 ----------------------------------------------------------------------
 # B3LYP/6-311++G(d,p) empiricaldispersion=gd3bj scf=xqc pop=npa geom=c
 heck
 ----------------------------------------------------------------------

 ---------------------------------------
 CID_113501935_JID_8139_Energie_neutraal
 ---------------------------------------
 Structure from the checkpoint file:  "JID_8139.chk"
 Charge =  0 Multiplicity = 1

 SCF Done:  E(RB3LYP) =  -1200.49533903     A.U. after   16 cycles
 Normal termination of Gaussian 16 at Fri Dec 11 19:16:05 2020.

 ----------------------------------------------------------------------
 # B3LYP/6-311++G(d,p) empiricaldispersion=gd3bj scf=xqc pop=npa geom=c
 heck
 ----------------------------------------------------------------------

 -------------------------------------
 CID_113501935_JID_8139_Energie_kation
 -------------------------------------
 Structure from the checkpoint file:  "JID_8139.chk"
 Charge =  1 Multiplicity = 2

 SCF Done:  E(UB3LYP) =  -1200.21175377     A.U. after   28 cycles
 Normal termination of Gaussian 16 at Fri Dec 11 19:32:59 2020.
 Gaussian 16:  ES64L-G16RevA.03 25-Dec-2016

 ----------------------------------------------------------------------
 # B3LYP/6-311++G(d,p) empiricaldispersion=gd3bj scf=xqc pop=npa geom=c
 heck
 ----------------------------------------------------------------------

 ------------------------------------
 CID_113501935_JID_8139_Energie_anion
 ------------------------------------
 Structure from the checkpoint file:  "JID_8139.chk"
 Charge = -1 Multiplicity = 2

                         Standard orientation:
 ---------------------------------------------------------------------
 Center     Atomic      Atomic             Coordinates (Angstroms)
 Number     Number       Type             X           Y           Z
 ---------------------------------------------------------------------
      1          6           0       -2.433911    3.623585   -0.030627
      2          8           0       -1.302450    2.773736    0.096311
      3          6           0       -1.513860    1.429916    0.098906
      4          6           0       -0.356296    0.650691    0.231038
      5          6           0       -0.424994   -0.749961    0.246460
      6          6           0       -1.693960   -1.356930    0.124619
      7          6           0       -2.812961   -0.554621    0.000721
      8          6           0       -2.772548    0.839050   -0.018473
      9          7           0       -4.126148   -1.209483   -0.126359
     10          8           0       -4.160103   -2.440264   -0.117176
     11          8           0       -5.118048   -0.488238   -0.235288
     12          7           0        0.674342   -1.576372    0.413822
     13          6           0        2.079087   -1.225681    0.189284
     14          6           0        2.658294   -0.393923    1.348869
     15          6           0        4.171478   -0.204271    1.227623
     16         16           0        4.648889    0.696751   -0.295535
     17          6           0        3.834716   -0.432697   -1.487082
     18          6           0        2.342691   -0.616348   -1.201791
     19          1           0       -2.044672    4.642345   -0.007943
     20          1           0       -3.135955    3.480890    0.800394
     21          1           0       -2.957623    3.452523   -0.979503
     22          1           0        0.582024    1.178227    0.323627
     23          1           0       -1.807822   -2.433795    0.130176
     24          1           0       -3.689506    1.398113   -0.121305
     25          1           0        0.465414   -2.548722    0.237635
     26          1           0        2.604147   -2.190311    0.216615
     27          1           0        2.181965    0.588567    1.402024
     28          1           0        2.427141   -0.915378    2.285902
     29          1           0        4.555793    0.388047    2.062878
     30          1           0        4.687586   -1.172515    1.245174
     31          1           0        4.354854   -1.398861   -1.472972
     32          1           0        3.988604    0.008609   -2.476005
     33          1           0        1.911580   -1.286546   -1.957460
     34          1           0        1.835280    0.347044   -1.300965
 ---------------------------------------------------------------------

 SCF Done:  E(UB3LYP) =  -1200.52655124     A.U. after   26 cycles

 The electronic state is 2-A.
 Alpha  occ. eigenvalues --  -88.76275 -19.03672 -18.93071 -18.93054 -14.30549
 Alpha  occ. eigenvalues --  -14.21307 -10.12758 -10.12672 -10.12607 -10.11992
 Alpha  occ. eigenvalues --  -10.10059 -10.08998 -10.08832 -10.08690 -10.05392
 Alpha  occ. eigenvalues --  -10.02578 -10.02125 -10.01827  -7.84909  -5.81287
 Alpha  occ. eigenvalues --   -5.80959  -5.80272  -1.01121  -0.95316  -0.83980
 Alpha  occ. eigenvalues --   -0.83135  -0.75686  -0.71639  -0.68425  -0.66576
 Alpha  occ. eigenvalues --   -0.64355  -0.60887  -0.58123  -0.54890  -0.54225
 Alpha  occ. eigenvalues --   -0.52584  -0.49570  -0.46710  -0.44112  -0.41741
 Alpha  occ. eigenvalues --   -0.39673  -0.38258  -0.37703  -0.36743  -0.36157
 Alpha  occ. eigenvalues --   -0.36006  -0.35199  -0.34169  -0.33611  -0.33277
 Alpha  occ. eigenvalues --   -0.32335  -0.32232  -0.31222  -0.30362  -0.28937
 Alpha  occ. eigenvalues --   -0.28535  -0.26400  -0.26023  -0.24592  -0.24402
 Alpha  occ. eigenvalues --   -0.23763  -0.23044  -0.22007  -0.21712  -0.16595
 Alpha  occ. eigenvalues --   -0.15189  -0.12547  -0.11103  -0.10404  -0.08922
 Alpha  occ. eigenvalues --   -0.07998   0.03538
 Alpha virt. eigenvalues --    0.05512   0.06470   0.07264   0.07905   0.08827
 Alpha virt. eigenvalues --    0.09528   0.09811   0.10428   0.10973   0.11721
 Alpha virt. eigenvalues --    0.11842   0.12212   0.12441   0.12974   0.13958

  Beta  occ. eigenvalues --  -88.76275 -19.03686 -18.92559 -18.92552 -14.29878
  Beta  occ. eigenvalues --  -14.21308 -10.12758 -10.12671 -10.12606 -10.11989
  Beta  occ. eigenvalues --  -10.10098 -10.08994 -10.08828 -10.08739 -10.05278
  Beta  occ. eigenvalues --  -10.02377 -10.02024 -10.01661  -7.84909  -5.81287
  Beta  occ. eigenvalues --   -5.80959  -5.80272  -1.00003  -0.95337  -0.83139
  Beta  occ. eigenvalues --   -0.83007  -0.75672  -0.71409  -0.68421  -0.66536
  Beta  occ. eigenvalues --   -0.64028  -0.60678  -0.57873  -0.54881  -0.54068
  Beta  occ. eigenvalues --   -0.51766  -0.49526  -0.46672  -0.43917  -0.41672
  Beta  occ. eigenvalues --   -0.39265  -0.38254  -0.37564  -0.36649  -0.36143
  Beta  occ. eigenvalues --   -0.35958  -0.35074  -0.33822  -0.33297  -0.32321
  Beta  occ. eigenvalues --   -0.31979  -0.31130  -0.30380  -0.29892  -0.28723
  Beta  occ. eigenvalues --   -0.28506  -0.26088  -0.25950  -0.24535  -0.24335
  Beta  occ. eigenvalues --   -0.23631  -0.23038  -0.21909  -0.21594  -0.16002
  Beta  occ. eigenvalues --   -0.15188  -0.10600  -0.09409  -0.09036  -0.08417
  Beta  occ. eigenvalues --   -0.07159
  Beta virt. eigenvalues --    0.05460   0.06428   0.07220   0.07866   0.08762
  Beta virt. eigenvalues --    0.09489   0.09769   0.10247   0.10588   0.10941
  Beta virt. eigenvalues --    0.11727   0.11820   0.12161   0.12488   0.12923

 Mulliken charges and spin densities:
               1          2
     1  C   -0.288395  -0.005674
     2  O   -0.158210   0.000017
     3  C   -0.225489  -0.032692
     4  C   -0.524107   0.166621
     5  C   -0.090289  -0.041874
     6  C   -0.422043   0.195272
     7  C   -0.916118  -0.024306
     8  C    1.111059   0.132230
     9  N   -0.235760   0.215749
    10  O   -0.193002   0.194445
    11  O   -0.202177   0.203355
    12  N    0.030421   0.014432
    13  C   -0.577636  -0.055266
    14  C    0.027755   0.012614
    15  C   -0.660155  -0.010119
    16  S    0.107509   0.002343
    17  C   -0.552369  -0.002663
    18  C   -0.014923   0.000697
    19  H    0.151945  -0.000216
    20  H    0.142928   0.003671
    21  H    0.138888   0.006310
    22  H    0.261995  -0.014409
    23  H    0.205921  -0.011838
    24  H    0.253642  -0.005704
    25  H    0.269348   0.006927
    26  H    0.105684   0.002805
    27  H    0.068753   0.015526
    28  H    0.186396   0.003273
    29  H    0.205548   0.004894
    30  H    0.155469   0.006264
    31  H    0.158731   0.004741
    32  H    0.209476   0.002420
    33  H    0.170727   0.008779
    34  H    0.098474   0.001375
 Sum of Mulliken charges =  -1.00000   1.00000

 Dipole moment (field-independent basis, Debye):
    X=             15.1516    Y=              3.0147    Z=              0.2228  Tot=             15.4502
 Quadrupole moment (field-independent basis, Debye-Ang):
   XX=           -216.7650   YY=           -129.9886   ZZ=           -119.2585
   XY=            -34.4990   XZ=             -1.1673   YZ=             -0.0391

 Summary of Natural Population Analysis:

                                       Natural Population
                Natural  -----------------------------------------------
    Atom  No    Charge         Core      Valence    Rydberg      Total
 -----------------------------------------------------------------------
      C    1   -0.10001      0.99961     2.09212    0.00828     3.10001
      O    2   -0.28110      0.99985     3.27114    0.01011     4.28110
      C    3    0.15502      0.99940     1.83336    0.01222     2.84498
      C    4   -0.12658      0.99949     2.11916    0.00793     3.12658
      C    5    0.08049      0.99951     1.90945    0.01055     2.91951
      C    6   -0.10280      0.99950     2.09360    0.00970     3.10280
      C    7    0.08023      0.99941     1.90825    0.01211     2.91977
      C    8   -0.14267      0.99942     2.13392    0.00932     3.14267
      N    9    0.30998      0.99973     2.16330    0.02700     3.19002
      O   10   -0.19780      0.99990     3.18995    0.00795     4.19780
      O   11   -0.19488      0.99990     3.18659    0.00839     4.19488
      N   12   -0.32266      0.99966     2.81053    0.01247     3.82266
      C   13   -0.00410      0.99958     1.99086    0.01366     3.00410
      C   14   -0.20011      0.99960     2.19206    0.00845     3.20011
      C   15   -0.24834      0.99960     2.24006    0.00869     3.24834
      S   16    0.07988      4.99964     2.89997    0.02051     7.92012
      C   17   -0.24784      0.99960     2.23950    0.00875     3.24784
      C   18   -0.20477      0.99960     2.19713    0.00805     3.20477
      H   19    0.08470      0.00000     0.41444    0.00086     0.41530
      H   20    0.08374      0.00000     0.41467    0.00159     0.41626
      H   21    0.08365      0.00000     0.41475    0.00160     0.41635
      H   22    0.09396      0.00000     0.40413    0.00191     0.40604
      H   23    0.11007      0.00000     0.38852    0.00141     0.38993
      H   24    0.11629      0.00000     0.38210    0.00161     0.38371
      H   25    0.18459      0.00000     0.31365    0.00176     0.31541
      H   26    0.08746      0.00000     0.41080    0.00174     0.41254
      H   27    0.10671      0.00000     0.39206    0.00123     0.39329
      H   28    0.10444      0.00000     0.39430    0.00127     0.39556
      H   29    0.10542      0.00000     0.39349    0.00109     0.39458
      H   30    0.09391      0.00000     0.40455    0.00154     0.40609
      H   31    0.09355      0.00000     0.40488    0.00157     0.40645
      H   32    0.10567      0.00000     0.39322    0.00112     0.39433
      H   33    0.10269      0.00000     0.39613    0.00118     0.39731
      H   34    0.11132      0.00000     0.38728    0.00141     0.38868
 =======================================================================
   * Total *    0.00007     21.99299    48.77991    0.22703    70.99993

 Normal termination of Gaussian 16 at Fri Dec 11 19:48:45 2020.
