 Gaussian 16, Revision A.03,

 -----------------------------------------------------------
 # opt freq B3LYP/6-31G(d) empiricaldispersion=gd3bj scf=xqc
 -----------------------------------------------------------

 -------------------------------
 CID_126634390_JID_1644_neutraal
 -------------------------------
 Symbolic Z-matrix:
 Charge =  0 Multiplicity = 1

 SCF Done:  E(RB3LYP) =  -569.723511680     A.U. after   18 cycles
 SCF Done:  E(RB3LYP) =  -569.726948123     A.U. after   15 cycles
 SCF Done:  E(RB3LYP) =  -569.727392041     A.U. after   16 cycles
 SCF Done:  E(RB3LYP) =  -569.727040438     A.U. after   16 cycles
 SCF Done:  E(RB3LYP) =  -569.728871509     A.U. after   15 cycles
 SCF Done:  E(RB3LYP) =  -569.729664786     A.U. after   14 cycles
 SCF Done:  E(RB3LYP) =  -569.729922079     A.U. after   15 cycles
 SCF Done:  E(RB3LYP) =  -569.729951898     A.U. after   14 cycles
 SCF Done:  E(RB3LYP) =  -569.730011569     A.U. after   11 cycles
 SCF Done:  E(RB3LYP) =  -569.730046563     A.U. after   13 cycles
 SCF Done:  E(RB3LYP) =  -569.730100086     A.U. after   13 cycles
 SCF Done:  E(RB3LYP) =  -569.730124807     A.U. after   12 cycles
 SCF Done:  E(RB3LYP) =  -569.730130857     A.U. after   12 cycles
 SCF Done:  E(RB3LYP) =  -569.730131719     A.U. after   11 cycles
 SCF Done:  E(RB3LYP) =  -569.730132190     A.U. after   10 cycles
 SCF Done:  E(RB3LYP) =  -569.730132400     A.U. after   10 cycles
 Optimization completed.
    -- Stationary point found.
 Normal termination of Gaussian 16 at Tue Dec  8 20:38:49 2020.

 --------------------------------------------------------------------
 #N Geom=AllCheck Guess=TCheck SCRF=Check GenChk RB3LYP/6-31G(d) Freq
 --------------------------------------------------------------------

 Structure from the checkpoint file:  "JID_1644.chk"
 -------------------------------
 CID_126634390_JID_1644_neutraal
 -------------------------------
 Charge =  0 Multiplicity = 1

 SCF Done:  E(RB3LYP) =  -569.730132400     A.U. after    1 cycles

  Exact polarizability: 100.548  -2.053  80.145  -0.343   6.091  72.789
 Approx polarizability: 136.261  -4.334 127.016   4.010  16.437 109.913

                      1                      2                      3
                      A                      A                      A
 Frequencies --     42.6761                55.4608                72.8412
 Red. masses --      6.5986                 4.1894                 7.5922
 Frc consts  --      0.0071                 0.0076                 0.0237
 IR Inten    --      0.9952                 2.8052                 2.2036

                      4                      5                      6
                      A                      A                      A
 Frequencies --     82.2246               124.4941               146.4316
 Red. masses --      2.8021                 4.4940                 5.0582
 Frc consts  --      0.0112                 0.0410                 0.0639
 IR Inten    --      2.4312                 2.8794                 0.6432

                      7                      8                      9
                      A                      A                      A
 Frequencies --    192.3126               225.4536               287.8938
 Red. masses --      3.6682                 5.3975                 3.8868
 Frc consts  --      0.0799                 0.1616                 0.1898
 IR Inten    --      3.5291                11.1580                 4.8040

                     10                     11                     12
                      A                      A                      A
 Frequencies --    336.8041               402.8301               407.5916
 Red. masses --      4.3491                 2.2690                 2.3374
 Frc consts  --      0.2907                 0.2169                 0.2288
 IR Inten    --      2.1978                22.5946                58.8473

                     13                     14                     15
                      A                      A                      A
 Frequencies --    418.1178               502.4813               559.1587
 Red. masses --      1.9525                 4.5347                 2.1668
 Frc consts  --      0.2011                 0.6746                 0.3991
 IR Inten    --    114.7713                 8.5787                47.3215

                     16                     17                     18
                      A                      A                      A
 Frequencies --    595.3523               632.3947               748.2645
 Red. masses --      3.9465                 2.0705                 4.9228
 Frc consts  --      0.8242                 0.4879                 1.6240
 IR Inten    --     26.8892                49.9724                 5.8965

                     19                     20                     21
                      A                      A                      A
 Frequencies --    784.9169               822.8667               827.2119
 Red. masses --      1.2380                 2.1031                 1.4875
 Frc consts  --      0.4494                 0.8390                 0.5997
 IR Inten    --      2.1930                19.7605                 3.3878

                     22                     23                     24
                      A                      A                      A
 Frequencies --    882.4905               900.7732               951.8677
 Red. masses --      2.4529                 2.8993                 3.2885
 Frc consts  --      1.1255                 1.3861                 1.7555
 IR Inten    --      5.1612                10.6044                22.9957

                     25                     26                     27
                      A                      A                      A
 Frequencies --    973.8596              1032.2807              1036.9507
 Red. masses --      2.5457                 1.5743                 2.8991
 Frc consts  --      1.4225                 0.9884                 1.8367
 IR Inten    --     31.7017                62.9659                40.4170

                     28                     29                     30
                      A                      A                      A
 Frequencies --   1062.6774              1089.3497              1099.0104
 Red. masses --      1.4901                 1.3839                 5.0435
 Frc consts  --      0.9914                 0.9676                 3.5891
 IR Inten    --      1.8961                 2.0952                45.0165

                     31                     32                     33
                      A                      A                      A
 Frequencies --   1150.1495              1210.7285              1221.8986
 Red. masses --      1.1212                 1.3618                 1.3806
 Frc consts  --      0.8739                 1.1761                 1.2145
 IR Inten    --      1.8509                 1.4702                36.4941

                     34                     35                     36
                      A                      A                      A
 Frequencies --   1226.0315              1255.4412              1275.8454
 Red. masses --      1.8759                 1.9783                 1.2703
 Frc consts  --      1.6613                 1.8372                 1.2183
 IR Inten    --      2.2558                19.8049                14.5664

                     37                     38                     39
                      A                      A                      A
 Frequencies --   1323.0796              1379.4735              1390.3679
 Red. masses --      1.3988                 1.3169                 2.2969
 Frc consts  --      1.4427                 1.4765                 2.6161
 IR Inten    --      7.4641                13.9168               128.5088

                     40                     41                     42
                      A                      A                      A
 Frequencies --   1414.0382              1436.7243              1488.2808
 Red. masses --      1.3527                 1.3723                 1.1095
 Frc consts  --      1.5936                 1.6690                 1.4479
 IR Inten    --     19.4413               106.7065                 5.4482

                     43                     44                     45
                      A                      A                      A
 Frequencies --   1507.1291              1528.8212              1538.7688
 Red. masses --      1.4005                 1.0908                 1.6149
 Frc consts  --      1.8743                 1.5022                 2.2529
 IR Inten    --     19.8990                 2.0837                27.1698

                     46                     47                     48
                      A                      A                      A
 Frequencies --   1669.9733              1778.3640              3025.5808
 Red. masses --     13.1389                 7.9248                 1.0681
 Frc consts  --     21.5888                14.7666                 5.7609
 IR Inten    --    111.2808               367.1737                40.5400

                     49                     50                     51
                      A                      A                      A
 Frequencies --   3100.4535              3119.2593              3141.0985
 Red. masses --      1.0859                 1.0971                 1.0524
 Frc consts  --      6.1505                 6.2893                 6.1175
 IR Inten    --      2.9081                18.5822                10.1700

                     52                     53                     54
                      A                      A                      A
 Frequencies --   3148.4299              3223.0022              3233.6683
 Red. masses --      1.0584                 1.1193                 1.1122
 Frc consts  --      6.1817                 6.8503                 6.8520
 IR Inten    --      8.5903                 0.4850                10.2142

                     55                     56                     57
                      A                      A                      A
 Frequencies --   3247.9363              3572.8190              3751.1126
 Red. masses --      1.0937                 1.0753                 1.0661
 Frc consts  --      6.7979                 8.0873                 8.8386
 IR Inten    --     11.4571                21.6460                53.7030

 - Thermochemistry -
 -------------------
 Temperature   298.150 Kelvin.  Pressure   1.00000 Atm.
 Atom     1 has atomic number  6 and mass  12.00000

 Molecular mass:   158.06914 amu.
 Principal axes and moments of inertia in atomic units:
                           1         2         3
     Eigenvalues --  1299.603382219.774842455.50629
           X            0.99949  -0.01217  -0.02962
           Y            0.01075   0.99881  -0.04759
           Z            0.03016   0.04724   0.99843
 This molecule is an asymmetric top.
 Rotational symmetry number  1.
 Warning -- assumption of classical behavior for rotation
           may cause significant error
 Rotational temperatures (Kelvin)      0.06665     0.03902     0.03527
 Rotational constants (GHZ):           1.38869     0.81303     0.73498
 Zero-point vibrational energy     440557.8 (Joules/Mol)
                                  105.29584 (Kcal/Mol)
 Warning -- explicit consideration of  16 degrees of freedom as
           vibrations may cause significant error
 Vibrational temperatures:     61.40    79.80   104.80   118.30   179.12
          (Kelvin)            210.68   276.69   324.38   414.21   484.59
                              579.58   586.43   601.58   722.96   804.50
                              856.58   909.87  1076.59  1129.32  1183.92
                             1190.17  1269.71  1296.01  1369.53  1401.17
                             1485.22  1491.94  1528.96  1567.33  1581.23
                             1654.81  1741.97  1758.04  1763.99  1806.30
                             1835.66  1903.62  1984.75  2000.43  2034.49
                             2067.13  2141.30  2168.42  2199.63  2213.95
                             2402.72  2558.67  4353.14  4460.86  4487.92
                             4519.34  4529.89  4637.18  4652.53  4673.06
                             5140.49  5397.01

 Zero-point correction=                           0.167800 (Hartree/Particle)
 Thermal correction to Energy=                    0.179536
 Thermal correction to Enthalpy=                  0.180481
 Thermal correction to Gibbs Free Energy=         0.128894
 Sum of electronic and zero-point Energies=           -569.562333
 Sum of electronic and thermal Energies=              -569.550596
 Sum of electronic and thermal Enthalpies=            -569.549652
 Sum of electronic and thermal Free Energies=         -569.601238

                     E (Thermal)             CV                S
                      KCal/Mol        Cal/Mol-Kelvin    Cal/Mol-Kelvin
 Total                  112.661             41.471            108.573
 Electronic               0.000              0.000              0.000
 Translational            0.889              2.981             41.083
 Rotational               0.889              2.981             30.339
 Vibrational            110.883             35.509             37.151
 Vibration     1          0.595              1.980              5.131
 Vibration     2          0.596              1.975              4.613
 Vibration     3          0.599              1.967              4.075
 Vibration     4          0.600              1.961              3.837
 Vibration     5          0.610              1.928              3.029
 Vibration     6          0.617              1.907              2.718
 Vibration     7          0.634              1.851              2.205
 Vibration     8          0.650              1.802              1.915
 Vibration     9          0.685              1.696              1.486
 Vibration    10          0.718              1.602              1.227
 Vibration    11          0.768              1.464              0.952
 Vibration    12          0.772              1.454              0.935
 Vibration    13          0.781              1.431              0.898
 Vibration    14          0.858              1.245              0.652
 Vibration    15          0.915              1.120              0.526
 Vibration    16          0.953              1.042              0.458

                           ! Non-Optimized Parameters !
 Normal termination of Gaussian 16 at Tue Dec  8 20:43:59 2020.

 ----------------------------------------------------------------------
 # B3LYP/6-311++G(d,p) empiricaldispersion=gd3bj scf=xqc pop=npa geom=c
 heck
 ----------------------------------------------------------------------

 ---------------------------------------
 CID_126634390_JID_1644_Energie_neutraal
 ---------------------------------------
 Structure from the checkpoint file:  "JID_1644.chk"
 Charge =  0 Multiplicity = 1

 SCF Done:  E(RB3LYP) =  -569.911402326     A.U. after   16 cycles
 Normal termination of Gaussian 16 at Tue Dec  8 20:46:30 2020.

 ----------------------------------------------------------------------
 # B3LYP/6-311++G(d,p) empiricaldispersion=gd3bj scf=xqc pop=npa geom=c
 heck
 ----------------------------------------------------------------------

 -------------------------------------
 CID_126634390_JID_1644_Energie_kation
 -------------------------------------
 Structure from the checkpoint file:  "JID_1644.chk"
 Charge =  1 Multiplicity = 2

 SCF Done:  E(UB3LYP) =  -569.586960180     A.U. after   26 cycles
 Normal termination of Gaussian 16 at Tue Dec  8 20:51:49 2020.
 Gaussian 16:  ES64L-G16RevA.03 25-Dec-2016

 ----------------------------------------------------------------------
 # B3LYP/6-311++G(d,p) empiricaldispersion=gd3bj scf=xqc pop=npa geom=c
 heck
 ----------------------------------------------------------------------

 ------------------------------------
 CID_126634390_JID_1644_Energie_anion
 ------------------------------------
 Structure from the checkpoint file:  "JID_1644.chk"
 Charge = -1 Multiplicity = 2

                         Standard orientation:
 ---------------------------------------------------------------------
 Center     Atomic      Atomic             Coordinates (Angstroms)
 Number     Number       Type             X           Y           Z
 ---------------------------------------------------------------------
      1          6           0       -2.581742    0.791820   -0.452388
      2          6           0       -3.005206    0.162434    0.858564
      3          6           0       -1.554353    0.191229    0.490682
      4          7           0       -0.916191   -1.059548    0.164974
      5          6           0        0.376154   -1.337183   -0.182840
      6          8           0        0.696249   -2.446494   -0.594014
      7          6           0        1.463446   -0.263902   -0.069854
      8          6           0        1.486368    0.703298   -1.283074
      9          8           0        0.397715    1.593626   -1.362184
     10          7           0        1.372508    0.537567    1.190383
     11          8           0        2.461899    0.770650    1.663954
     12          1           0       -2.618342    1.873444   -0.549447
     13          1           0       -2.819699    0.242519   -1.360388
     14          1           0       -3.341256    0.805100    1.666287
     15          1           0       -3.523637   -0.792372    0.808298
     16          1           0       -0.905233    0.870272    1.027259
     17          1           0       -1.517377   -1.867672    0.045329
     18          1           0        2.418082   -0.798983   -0.069919
     19          1           0        2.382104    1.323891   -1.188314
     20          1           0        1.591998    0.082119   -2.184703
     21          1           0       -0.415770    1.087106   -1.510484
 ---------------------------------------------------------------------

 SCF Done:  E(UB3LYP) =  -569.941616671     A.U. after   26 cycles

 The electronic state is 2-A.
 Alpha  occ. eigenvalues --  -18.99073 -18.95266 -18.90611 -14.21630 -14.14030
 Alpha  occ. eigenvalues --  -10.13374 -10.10250 -10.08214 -10.07688 -10.07658
 Alpha  occ. eigenvalues --  -10.02772  -0.91088  -0.90347  -0.89302  -0.81455
 Alpha  occ. eigenvalues --   -0.73517  -0.62870  -0.52808  -0.51671  -0.51165
 Alpha  occ. eigenvalues --   -0.46627  -0.43385  -0.40027  -0.38792  -0.36254
 Alpha  occ. eigenvalues --   -0.32741  -0.31889  -0.30669  -0.29374  -0.28082
 Alpha  occ. eigenvalues --   -0.26658  -0.26020  -0.24803  -0.22752  -0.21447
 Alpha  occ. eigenvalues --   -0.21318  -0.19773  -0.17052  -0.14431  -0.12413
 Alpha  occ. eigenvalues --   -0.11897   0.00327   0.05012
 Alpha virt. eigenvalues --    0.07534   0.09279   0.09527   0.11070   0.12049
 Alpha virt. eigenvalues --    0.12627   0.13510   0.14146   0.14458   0.15339
 Alpha virt. eigenvalues --    0.15922   0.16229   0.17536   0.18823   0.19191

  Beta  occ. eigenvalues --  -18.99066 -18.95255 -18.89483 -14.21607 -14.12871
  Beta  occ. eigenvalues --  -10.13352 -10.10254 -10.08213 -10.07688 -10.07557
  Beta  occ. eigenvalues --  -10.02832  -0.90731  -0.89426  -0.88379  -0.81429
  Beta  occ. eigenvalues --   -0.73501  -0.62367  -0.52594  -0.51574  -0.51018
  Beta  occ. eigenvalues --   -0.45914  -0.42353  -0.39961  -0.38750  -0.35938
  Beta  occ. eigenvalues --   -0.32169  -0.31665  -0.30501  -0.29142  -0.28038
  Beta  occ. eigenvalues --   -0.26396  -0.25663  -0.23934  -0.22579  -0.21283
  Beta  occ. eigenvalues --   -0.19717  -0.16500  -0.15968  -0.13757  -0.12251
  Beta  occ. eigenvalues --   -0.11394   0.01603
  Beta virt. eigenvalues --    0.07495   0.09200   0.09497   0.10981   0.12029
  Beta virt. eigenvalues --    0.12558   0.13467   0.14147   0.14316   0.15337
  Beta virt. eigenvalues --    0.15649   0.16154   0.17434   0.18193   0.18997

 Mulliken charges and spin densities:
               1          2
     1  C   -0.384079  -0.062856
     2  C   -0.380043   0.010388
     3  C   -0.323717   0.059928
     4  N   -0.085042   0.004088
     5  C   -0.128715  -0.031578
     6  O   -0.382288   0.002370
     7  C    0.228393   0.032463
     8  C   -0.284030  -0.082382
     9  O   -0.225900  -0.000945
    10  N   -0.399475   0.579019
    11  O   -0.249271   0.364556
    12  H    0.129307   0.004061
    13  H    0.145438   0.011293
    14  H    0.132619  -0.001241
    15  H    0.103889   0.001169
    16  H    0.357326  -0.011925
    17  H    0.263806  -0.001748
    18  H    0.070154   0.036312
    19  H    0.141072  -0.024995
    20  H    0.062407   0.069771
    21  H    0.208148   0.042253
 Sum of Mulliken charges =  -1.00000   1.00000

 Dipole moment (field-independent basis, Debye):
    X=             -8.8022    Y=             -0.3942    Z=             -3.2628  Tot=              9.3957
 Quadrupole moment (field-independent basis, Debye-Ang):
   XX=            -87.6017   YY=            -88.2519   ZZ=            -83.5469
   XY=             -0.8351   XZ=            -10.1071   YZ=             -4.1518

 Summary of Natural Population Analysis:

                                       Natural Population
                Natural  -----------------------------------------------
    Atom  No    Charge         Core      Valence    Rydberg      Total
 -----------------------------------------------------------------------
      C    1   -0.22008      0.99963     2.21441    0.00604     3.22008
      C    2   -0.20104      0.99963     2.19516    0.00625     3.20104
      C    3   -0.03301      0.99955     2.01618    0.01728     3.03301
      N    4   -0.31957      0.99965     2.80783    0.01209     3.81957
      C    5    0.34229      0.99963     1.63080    0.02728     2.65771
      O    6   -0.33828      0.99988     3.33233    0.00607     4.33828
      C    7   -0.11379      0.99956     2.09425    0.01998     3.11379
      C    8    0.00217      0.99957     1.98204    0.01622     2.99783
      O    9   -0.37042      0.99989     3.36282    0.00770     4.37042
      N   10    0.13614      0.99979     2.33226    0.03182     3.36386
      O   11   -0.08673      0.99990     3.07404    0.01279     4.08673
      H   12    0.10402      0.00000     0.39501    0.00097     0.39598
      H   13    0.09789      0.00000     0.40017    0.00194     0.40211
      H   14    0.10182      0.00000     0.39727    0.00091     0.39818
      H   15    0.09583      0.00000     0.40313    0.00104     0.40417
      H   16    0.13650      0.00000     0.35976    0.00374     0.36350
      H   17    0.18468      0.00000     0.31322    0.00211     0.31532
      H   18    0.09817      0.00000     0.39418    0.00765     0.40183
      H   19    0.08724      0.00000     0.41030    0.00247     0.41276
      H   20    0.06993      0.00000     0.42849    0.00159     0.43007
      H   21    0.22625      0.00000     0.27056    0.00319     0.27375
 =======================================================================
   * Total *    0.00000     10.99667    30.81421    0.18912    42.00000

 Normal termination of Gaussian 16 at Tue Dec  8 20:57:25 2020.
