 Gaussian 16, Revision A.03,

 -----------------------------------------------------------
 # opt freq B3LYP/6-31G(d) empiricaldispersion=gd3bj scf=xqc
 -----------------------------------------------------------

 -------------------------------
 CID_134126543_JID_4110_neutraal
 -------------------------------
 Symbolic Z-matrix:
 Charge =  0 Multiplicity = 1

 SCF Done:  E(RB3LYP) =  -561.625472720     A.U. after   14 cycles
 SCF Done:  E(RB3LYP) =  -561.629105718     A.U. after   12 cycles
 SCF Done:  E(RB3LYP) =  -561.630121411     A.U. after   12 cycles
 SCF Done:  E(RB3LYP) =  -561.630831382     A.U. after   12 cycles
 SCF Done:  E(RB3LYP) =  -561.631458530     A.U. after   12 cycles
 SCF Done:  E(RB3LYP) =  -561.631808445     A.U. after   12 cycles
 SCF Done:  E(RB3LYP) =  -561.631916894     A.U. after   10 cycles
 SCF Done:  E(RB3LYP) =  -561.631959772     A.U. after   11 cycles
 SCF Done:  E(RB3LYP) =  -561.631978454     A.U. after   10 cycles
 SCF Done:  E(RB3LYP) =  -561.631984908     A.U. after    8 cycles
 SCF Done:  E(RB3LYP) =  -561.631986427     A.U. after    8 cycles
 SCF Done:  E(RB3LYP) =  -561.631986699     A.U. after    8 cycles
 Optimization completed.
    -- Stationary point found.
 Normal termination of Gaussian 16 at Thu Dec 10 09:17:59 2020.

 --------------------------------------------------------------------
 #N Geom=AllCheck Guess=TCheck SCRF=Check GenChk RB3LYP/6-31G(d) Freq
 --------------------------------------------------------------------

 Structure from the checkpoint file:  "JID_4110.chk"
 -------------------------------
 CID_134126543_JID_4110_neutraal
 -------------------------------
 Charge =  0 Multiplicity = 1

 SCF Done:  E(RB3LYP) =  -561.631986699     A.U. after    1 cycles

  Exact polarizability: 213.556   8.401 146.182   6.941  -5.810  87.787
 Approx polarizability: 299.251  11.947 228.924  12.119 -12.714 135.267

                      1                      2                      3
                      A                      A                      A
 Frequencies --     38.9602                55.6955                63.6830
 Red. masses --      3.7318                 2.8321                 3.7923
 Frc consts  --      0.0033                 0.0052                 0.0091
 IR Inten    --      0.1104                 0.0681                 1.5607

                      4                      5                      6
                      A                      A                      A
 Frequencies --    111.2466               139.7570               193.8519
 Red. masses --      3.2989                 3.3342                 2.0151
 Frc consts  --      0.0241                 0.0384                 0.0446
 IR Inten    --      0.8163                 4.6510                 0.3159

                      7                      8                      9
                      A                      A                      A
 Frequencies --    216.5130               241.5695               247.6931
 Red. masses --      1.5078                 1.1412                 2.1731
 Frc consts  --      0.0416                 0.0392                 0.0786
 IR Inten    --      0.3376                 0.1351                 1.4530

                     10                     11                     12
                      A                      A                      A
 Frequencies --    260.4707               281.6215               312.7362
 Red. masses --      1.1020                 1.2033                 2.1816
 Frc consts  --      0.0441                 0.0562                 0.1257
 IR Inten    --      0.0484                 0.0139                 0.4331

                     13                     14                     15
                      A                      A                      A
 Frequencies --    337.0247               355.2765               365.1719
 Red. masses --      2.7773                 2.5790                 2.5492
 Frc consts  --      0.1859                 0.1918                 0.2003
 IR Inten    --      1.6964                 1.8103                 1.5313

                     16                     17                     18
                      A                      A                      A
 Frequencies --    416.6873               425.3315               427.6817
 Red. masses --      3.0003                 3.0120                 2.5796
 Frc consts  --      0.3069                 0.3210                 0.2780
 IR Inten    --      0.2791                 1.0828                 0.2528

                     19                     20                     21
                      A                      A                      A
 Frequencies --    464.3308               505.4057               550.0218
 Red. masses --      2.8573                 3.0098                 2.1943
 Frc consts  --      0.3630                 0.4530                 0.3911
 IR Inten    --     12.9783                 8.0936                14.7748

                     22                     23                     24
                      A                      A                      A
 Frequencies --    608.7025               636.3705               653.7322
 Red. masses --      3.1082                 6.1105                 4.5480
 Frc consts  --      0.6785                 1.4580                 1.1452
 IR Inten    --      2.1531                 0.4568                 5.3323

                     25                     26                     27
                      A                      A                      A
 Frequencies --    699.7873               725.0531               761.6884
 Red. masses --      1.9406                 1.7381                 1.8487
 Frc consts  --      0.5599                 0.5384                 0.6319
 IR Inten    --     82.9835                 2.6746                27.1504

                     28                     29                     30
                      A                      A                      A
 Frequencies --    773.6937               807.9244               848.3171
 Red. masses --      2.3563                 1.4511                 2.3393
 Frc consts  --      0.8310                 0.5581                 0.9919
 IR Inten    --      1.7923                26.8369                 1.2009

                     31                     32                     33
                      A                      A                      A
 Frequencies --    862.3046               878.6021               922.5539
 Red. masses --      1.3733                 3.3204                 1.4746
 Frc consts  --      0.6016                 1.5102                 0.7395
 IR Inten    --      3.2392                 1.3649                 5.2232

                     34                     35                     36
                      A                      A                      A
 Frequencies --    928.2180               940.5694               963.7963
 Red. masses --      1.7157                 1.6772                 1.3334
 Frc consts  --      0.8709                 0.8742                 0.7297
 IR Inten    --      0.2192                 2.1003                 0.4473

                     37                     38                     39
                      A                      A                      A
 Frequencies --    973.8297               988.4777              1017.8352
 Red. masses --      1.2007                 1.2371                 5.4213
 Frc consts  --      0.6709                 0.7122                 3.3091
 IR Inten    --      0.1309                 0.7602                 1.2946

                     40                     41                     42
                      A                      A                      A
 Frequencies --   1026.1350              1047.5784              1061.9816
 Red. masses --      2.5648                 1.5386                 2.0049
 Frc consts  --      1.5911                 0.9948                 1.3322
 IR Inten    --      7.7450                 4.8928                 4.4147

                     43                     44                     45
                      A                      A                      A
 Frequencies --   1063.4837              1074.0608              1081.5179
 Red. masses --      1.4243                 1.4446                 1.5183
 Frc consts  --      0.9491                 0.9819                 1.0463
 IR Inten    --      4.4608                 0.6882                 4.7583

                     46                     47                     48
                      A                      A                      A
 Frequencies --   1115.0615              1192.3875              1215.9429
 Red. masses --      1.6029                 1.0908                 1.1398
 Frc consts  --      1.1742                 0.9137                 0.9929
 IR Inten    --      1.5478                 0.0937                 2.0800

                     49                     50                     51
                      A                      A                      A
 Frequencies --   1230.3609              1251.5543              1256.7328
 Red. masses --      2.3520                 2.1845                 2.5705
 Frc consts  --      2.0977                 2.0161                 2.3919
 IR Inten    --     24.3981                14.2134                67.3073

                     52                     53                     54
                      A                      A                      A
 Frequencies --   1266.8768              1292.6788              1348.4895
 Red. masses --      2.7294                 3.0750                 3.5397
 Frc consts  --      2.5810                 3.0275                 3.7924
 IR Inten    --    105.4876                11.5437                 2.4022

                     55                     56                     57
                      A                      A                      A
 Frequencies --   1368.6610              1423.4661              1425.5711
 Red. masses --      1.6329                 1.4037                 1.2715
 Frc consts  --      1.8022                 1.6758                 1.5224
 IR Inten    --      0.5004                34.2501                22.7048

                     58                     59                     60
                      A                      A                      A
 Frequencies --   1429.1296              1445.2543              1455.9149
 Red. masses --      1.4513                 1.4839                 1.2281
 Frc consts  --      1.7464                 1.8262                 1.5338
 IR Inten    --     25.1019                70.2786                 6.7442

                     61                     62                     63
                      A                      A                      A
 Frequencies --   1488.8242              1506.1239              1507.3414
 Red. masses --      2.0890                 1.0490                 1.0573
 Frc consts  --      2.7282                 1.4019                 1.4154
 IR Inten    --      1.5275                 6.0834                 2.2089

                     64                     65                     66
                      A                      A                      A
 Frequencies --   1512.5069              1519.9937              1521.9150
 Red. masses --      1.0512                 1.1021                 1.0900
 Frc consts  --      1.4169                 1.5003                 1.4875
 IR Inten    --      1.2045                 3.7655                11.0119

                     67                     68                     69
                      A                      A                      A
 Frequencies --   1526.1364              1540.6013              1542.0111
 Red. masses --      1.1130                 1.0622                 1.4817
 Frc consts  --      1.5273                 1.4854                 2.0759
 IR Inten    --      1.6034                 6.8036                18.3099

                     70                     71                     72
                      A                      A                      A
 Frequencies --   1549.4090              1553.7096              1630.3589
 Red. masses --      1.4631                 1.1667                 4.9760
 Frc consts  --      2.0694                 1.6594                 7.7928
 IR Inten    --      6.3274                 2.5010                 2.9977

                     73                     74                     75
                      A                      A                      A
 Frequencies --   1661.1592              1702.9659              3046.0027
 Red. masses --      5.4958                 4.4610                 1.0369
 Frc consts  --      8.9352                 7.6224                 5.6680
 IR Inten    --     48.9884               184.8647                14.1373

                     76                     77                     78
                      A                      A                      A
 Frequencies --   3050.9395              3053.1308              3062.9282
 Red. masses --      1.0379                 1.0364                 1.0392
 Frc consts  --      5.6922                 5.6921                 5.7443
 IR Inten    --     44.6276                16.0668                29.3124

                     79                     80                     81
                      A                      A                      A
 Frequencies --   3103.7381              3112.4278              3118.6458
 Red. masses --      1.0995                 1.1006                 1.1015
 Frc consts  --      6.2402                 6.2818                 6.3120
 IR Inten    --     20.5035                10.1334                52.3106

                     82                     83                     84
                      A                      A                      A
 Frequencies --   3125.3880              3132.8693              3136.1359
 Red. masses --      1.1010                 1.1011                 1.1018
 Frc consts  --      6.3364                 6.3675                 6.3849
 IR Inten    --     13.3320                21.2012                59.8001

                     85                     86                     87
                      A                      A                      A
 Frequencies --   3141.3139              3155.7674              3173.6599
 Red. masses --      1.1010                 1.0993                 1.0871
 Frc consts  --      6.4010                 6.4503                 6.4512
 IR Inten    --     20.5574                22.7791                 6.3767

                     88                     89                     90
                      A                      A                      A
 Frequencies --   3176.6849              3181.9440              3193.1698
 Red. masses --      1.0856                 1.0873                 1.0920
 Frc consts  --      6.4547                 6.4861                 6.5602
 IR Inten    --     18.3293                 0.7782                32.7524

                     91                     92                     93
                      A                      A                      A
 Frequencies --   3204.3396              3211.3358              3563.2614
 Red. masses --      1.0927                 1.0961                 1.0741
 Frc consts  --      6.6107                 6.6602                 8.0349
 IR Inten    --     41.1145                12.8225                 5.0207

 - Thermochemistry -
 -------------------
 Temperature   298.150 Kelvin.  Pressure   1.00000 Atm.
 Atom     1 has atomic number  6 and mass  12.00000

 Molecular mass:   189.15175 amu.
 Principal axes and moments of inertia in atomic units:
                           1         2         3
     Eigenvalues --  1417.594024610.539165504.94408
           X            0.99999  -0.00270   0.00286
           Y            0.00269   1.00000   0.00162
           Z           -0.00287  -0.00161   0.99999
 This molecule is an asymmetric top.
 Rotational symmetry number  1.
 Warning -- assumption of classical behavior for rotation
           may cause significant error
 Rotational temperatures (Kelvin)      0.06110     0.01879     0.01573
 Rotational constants (GHZ):           1.27310     0.39144     0.32784
 Zero-point vibrational energy     770286.0 (Joules/Mol)
                                  184.10278 (Kcal/Mol)
 Warning -- explicit consideration of  22 degrees of freedom as
           vibrations may cause significant error
 Vibrational temperatures:     56.06    80.13    91.63   160.06   201.08
          (Kelvin)            278.91   311.51   347.56   356.38   374.76
                              405.19   449.96   484.90   511.16   525.40
                              599.52   611.96   615.34   668.07   727.17
                              791.36   875.79   915.60   940.57  1006.84
                             1043.19  1095.90  1113.17  1162.42  1220.54
                             1240.66  1264.11  1327.35  1335.50  1353.27
                             1386.69  1401.12  1422.20  1464.44  1476.38
                             1507.23  1527.95  1530.12  1545.33  1556.06
                             1604.32  1715.58  1749.47  1770.21  1800.71
                             1808.16  1822.75  1859.88  1940.18  1969.20
                             2048.05  2051.08  2056.20  2079.40  2094.74
                             2142.09  2166.98  2168.73  2176.16  2186.93
                             2189.70  2195.77  2216.58  2218.61  2229.25
                             2235.44  2345.72  2390.04  2450.19  4382.52
                             4389.62  4392.77  4406.87  4465.59  4478.09
                             4487.04  4496.74  4507.50  4512.20  4519.65
                             4540.45  4566.19  4570.54  4578.11  4594.26
                             4610.33  4620.40  5126.74

 Zero-point correction=                           0.293386 (Hartree/Particle)
 Thermal correction to Energy=                    0.307884
 Thermal correction to Enthalpy=                  0.308829
 Thermal correction to Gibbs Free Energy=         0.252343
 Sum of electronic and zero-point Energies=           -561.338600
 Sum of electronic and thermal Energies=              -561.324102
 Sum of electronic and thermal Enthalpies=            -561.323158
 Sum of electronic and thermal Free Energies=         -561.379644

                     E (Thermal)             CV                S
                      KCal/Mol        Cal/Mol-Kelvin    Cal/Mol-Kelvin
 Total                  193.200             56.910            118.885
 Electronic               0.000              0.000              0.000
 Translational            0.889              2.981             41.618
 Rotational               0.889              2.981             31.954
 Vibrational            191.423             50.948             45.313
 Vibration     1          0.594              1.981              5.311
 Vibration     2          0.596              1.975              4.604
 Vibration     3          0.597              1.972              4.340
 Vibration     4          0.607              1.940              3.247
 Vibration     5          0.615              1.914              2.807
 Vibration     6          0.635              1.848              2.191
 Vibration     7          0.645              1.816              1.988
 Vibration     8          0.658              1.777              1.791
 Vibration     9          0.661              1.767              1.747
 Vibration    10          0.669              1.745              1.659
 Vibration    11          0.681              1.708              1.524
 Vibration    12          0.701              1.649              1.348
 Vibration    13          0.718              1.602              1.226
 Vibration    14          0.731              1.564              1.143
 Vibration    15          0.738              1.544              1.100
 Vibration    16          0.780              1.434              0.903
 Vibration    17          0.787              1.415              0.874
 Vibration    18          0.789              1.410              0.866
 Vibration    19          0.822              1.329              0.754
 Vibration    20          0.861              1.238              0.645
 Vibration    21          0.905              1.140              0.544
 Vibration    22          0.968              1.013              0.435

 Optimization completed.
    -- Stationary point found.
 Normal termination of Gaussian 16 at Thu Dec 10 09:27:19 2020.

 ----------------------------------------------------------------------
 # B3LYP/6-311++G(d,p) empiricaldispersion=gd3bj scf=xqc pop=npa geom=c
 heck
 ----------------------------------------------------------------------

 ---------------------------------------
 CID_134126543_JID_4110_Energie_neutraal
 ---------------------------------------
 Structure from the checkpoint file:  "JID_4110.chk"
 Charge =  0 Multiplicity = 1

 SCF Done:  E(RB3LYP) =  -561.785259201     A.U. after   14 cycles
 Normal termination of Gaussian 16 at Thu Dec 10 09:30:57 2020.

 ----------------------------------------------------------------------
 # B3LYP/6-311++G(d,p) empiricaldispersion=gd3bj scf=xqc pop=npa geom=c
 heck
 ----------------------------------------------------------------------

 -------------------------------------
 CID_134126543_JID_4110_Energie_kation
 -------------------------------------
 Structure from the checkpoint file:  "JID_4110.chk"
 Charge =  1 Multiplicity = 2

 SCF Done:  E(UB3LYP) =  -561.529716678     A.U. after   22 cycles
 Normal termination of Gaussian 16 at Thu Dec 10 09:38:26 2020.
 Gaussian 16:  ES64L-G16RevA.03 25-Dec-2016

 ----------------------------------------------------------------------
 # B3LYP/6-311++G(d,p) empiricaldispersion=gd3bj scf=xqc pop=npa geom=c
 heck
 ----------------------------------------------------------------------

 ------------------------------------
 CID_134126543_JID_4110_Energie_anion
 ------------------------------------
 Structure from the checkpoint file:  "JID_4110.chk"
 Charge = -1 Multiplicity = 2

                         Standard orientation:
 ---------------------------------------------------------------------
 Center     Atomic      Atomic             Coordinates (Angstroms)
 Number     Number       Type             X           Y           Z
 ---------------------------------------------------------------------
      1          6           0        1.806638    2.399745    0.193206
      2          6           0        0.784091    1.310252   -0.005791
      3          6           0       -0.526624    1.563670    0.240837
      4          6           0       -1.659064    0.633866    0.131902
      5          6           0       -2.896539    1.106824   -0.345343
      6          6           0       -4.002843    0.268377   -0.451471
      7          6           0       -3.908369   -1.074419   -0.079954
      8          6           0       -2.697379   -1.558961    0.416238
      9          6           0       -1.592110   -0.717663    0.526919
     10          7           0        1.219839    0.116160   -0.583912
     11          6           0        2.374536   -0.690943   -0.119595
     12          6           0        2.385292   -0.851436    1.412070
     13          6           0        2.200258   -2.069953   -0.774896
     14          6           0        3.703291   -0.086340   -0.606105
     15          1           0        1.313593    3.332743    0.477205
     16          1           0        2.381814    2.567519   -0.724194
     17          1           0        2.523033    2.154825    0.986048
     18          1           0       -0.791763    2.594165    0.463294
     19          1           0       -2.978193    2.149133   -0.643411
     20          1           0       -4.942529    0.663512   -0.828553
     21          1           0       -4.769920   -1.730460   -0.164539
     22          1           0       -2.615308   -2.594997    0.734836
     23          1           0       -0.676106   -1.099590    0.966425
     24          1           0        0.431715   -0.481844   -0.802453
     25          1           0        1.470730   -1.344658    1.758829
     26          1           0        3.240207   -1.457996    1.732175
     27          1           0        2.452870    0.117806    1.915096
     28          1           0        2.173279   -1.976221   -1.865881
     29          1           0        3.028810   -2.731580   -0.504652
     30          1           0        1.268313   -2.546844   -0.446782
     31          1           0        3.659673    0.097446   -1.684009
     32          1           0        3.937302    0.856402   -0.107178
     33          1           0        4.526537   -0.780592   -0.402969
 ---------------------------------------------------------------------

 SCF Done:  E(UB3LYP) =  -561.771395788     A.U. after   33 cycles
 SCF Done:  E(UB3LYP) =  -561.771395788     a.u. after    1 cycles

 The electronic state is 2-A.
 Alpha  occ. eigenvalues --  -14.21146 -10.11998 -10.10786 -10.08292 -10.07675
 Alpha  occ. eigenvalues --  -10.07524 -10.07203 -10.07161 -10.07087 -10.06746
 Alpha  occ. eigenvalues --  -10.06393 -10.06010 -10.05768 -10.05192  -0.83112
 Alpha  occ. eigenvalues --   -0.75785  -0.71124  -0.66614  -0.64754  -0.64433
 Alpha  occ. eigenvalues --   -0.59429  -0.59198  -0.57959  -0.51102  -0.50190
 Alpha  occ. eigenvalues --   -0.47553  -0.44782  -0.41856  -0.38742  -0.37566
 Alpha  occ. eigenvalues --   -0.36250  -0.35341  -0.34183  -0.33466  -0.32469
 Alpha  occ. eigenvalues --   -0.31959  -0.31793  -0.30213  -0.29346  -0.28788
 Alpha  occ. eigenvalues --   -0.27940  -0.27151  -0.26948  -0.26723  -0.24903
 Alpha  occ. eigenvalues --   -0.24268  -0.24072  -0.23229  -0.20058  -0.16418
 Alpha  occ. eigenvalues --   -0.15655  -0.09390   0.04349
 Alpha virt. eigenvalues --    0.06244   0.06535   0.07159   0.07935   0.08181
 Alpha virt. eigenvalues --    0.08260   0.08487   0.09564   0.09885   0.10379
 Alpha virt. eigenvalues --    0.10649   0.11158   0.12241   0.12695   0.12942

  Beta  occ. eigenvalues --  -14.21141 -10.11996 -10.10746 -10.08261 -10.07668
  Beta  occ. eigenvalues --  -10.07517 -10.07160 -10.07146 -10.07061 -10.06722
  Beta  occ. eigenvalues --  -10.06362 -10.05976 -10.05734 -10.05190  -0.83082
  Beta  occ. eigenvalues --   -0.75730  -0.71082  -0.66553  -0.64700  -0.64379
  Beta  occ. eigenvalues --   -0.59369  -0.59137  -0.57903  -0.51044  -0.50124
  Beta  occ. eigenvalues --   -0.47499  -0.44725  -0.41810  -0.38697  -0.37507
  Beta  occ. eigenvalues --   -0.36209  -0.35298  -0.34140  -0.33428  -0.32431
  Beta  occ. eigenvalues --   -0.31915  -0.31738  -0.30172  -0.29306  -0.28753
  Beta  occ. eigenvalues --   -0.27888  -0.27117  -0.26854  -0.26679  -0.24863
  Beta  occ. eigenvalues --   -0.24235  -0.24026  -0.23195  -0.19953  -0.16275
  Beta  occ. eigenvalues --   -0.15561  -0.09303
  Beta virt. eigenvalues --    0.06347   0.06944   0.07036   0.07690   0.08280
  Beta virt. eigenvalues --    0.08524   0.08707   0.08914   0.10075   0.10250
  Beta virt. eigenvalues --    0.10689   0.11012   0.11426   0.12571   0.12935

 Mulliken charges and spin densities:
               1          2
     1  C    1.315890  -1.958137
     2  C   -2.016056   2.048105
     3  C    2.523052  -2.913581
     4  C    0.966531   0.476339
     5  C   -1.122601   0.953675
     6  C   -0.141972  -0.296866
     7  C    0.564441  -0.813782
     8  C   -0.213143  -0.055592
     9  C   -1.001410   0.190924
    10  N    0.180199  -0.072304
    11  C   -2.233994   2.110403
    12  C    1.133019  -1.605807
    13  C    0.580127  -1.042501
    14  C    0.550820  -0.999738
    15  H   -0.175249   0.322383
    16  H   -0.169836   0.337379
    17  H    0.080336   0.079661
    18  H   -0.056514   0.223863
    19  H   -0.160080   0.315344
    20  H   -0.126453   0.273426
    21  H   -0.074983   0.218232
    22  H   -0.551639   0.732559
    23  H    0.536893  -0.459532
    24  H    0.166492   0.040394
    25  H   -0.476807   0.633859
    26  H   -0.293521   0.460528
    27  H    0.071318   0.055132
    28  H   -0.053193   0.210869
    29  H   -0.206923   0.360067
    30  H   -0.116417   0.251735
    31  H   -0.028671   0.191144
    32  H   -0.192054   0.330169
    33  H   -0.257601   0.401647
 Sum of Mulliken charges =  -1.00000   1.00000

 Dipole moment (field-independent basis, Debye):
    X=             -2.3347    Y=              1.7221    Z=             -0.4335  Tot=              2.9333
 Quadrupole moment (field-independent basis, Debye-Ang):
   XX=           -164.4945   YY=           -136.9507   ZZ=           -119.6097
   XY=              1.5526   XZ=              0.5978   YZ=              3.4478

 Summary of Natural Population Analysis:

                                       Natural Population
                Natural  -----------------------------------------------
    Atom  No    Charge         Core      Valence    Rydberg      Total
 -----------------------------------------------------------------------
      C    1   -0.30036      0.99962     2.29542    0.00531     3.30036
      C    2    0.12009      0.99949     1.86831    0.01212     2.87991
      C    3   -0.15595      0.99947     2.14626    0.01022     3.15595
      C    4   -0.02360      0.99951     2.01440    0.00969     3.02360
      C    5   -0.09652      0.99952     2.08790    0.00909     3.09652
      C    6   -0.10217      0.99956     2.09262    0.00999     3.10217
      C    7   -0.10593      0.99956     2.09654    0.00983     3.10593
      C    8   -0.10043      0.99956     2.08992    0.01095     3.10043
      C    9   -0.10604      0.99952     2.09771    0.00880     3.10604
      N   10   -0.33299      0.99966     2.82161    0.01173     3.83299
      C   11    0.05601      0.99959     1.93091    0.01350     2.94399
      C   12   -0.28997      0.99961     2.28366    0.00670     3.28997
      C   13   -0.28661      0.99962     2.27969    0.00730     3.28661
      C   14   -0.28824      0.99961     2.28132    0.00730     3.28824
      H   15    0.10435      0.00000     0.39469    0.00096     0.39565
      H   16    0.10597      0.00000     0.39279    0.00125     0.39403
      H   17    0.10133      0.00000     0.39738    0.00129     0.39867
      H   18    0.09892      0.00000     0.39973    0.00135     0.40108
      H   19    0.09877      0.00000     0.40016    0.00107     0.40123
      H   20    0.09764      0.00000     0.40150    0.00086     0.40236
      H   21    0.09830      0.00000     0.40079    0.00090     0.40170
      H   22    0.10097      0.00000     0.39784    0.00119     0.39903
      H   23    0.10168      0.00000     0.39623    0.00209     0.39832
      H   24    0.18960      0.00000     0.30678    0.00362     0.31040
      H   25    0.10020      0.00000     0.39825    0.00154     0.39980
      H   26    0.10282      0.00000     0.39598    0.00120     0.39718
      H   27    0.10041      0.00000     0.39860    0.00099     0.39959
      H   28    0.10285      0.00000     0.39611    0.00103     0.39715
      H   29    0.10463      0.00000     0.39423    0.00114     0.39537
      H   30    0.09976      0.00000     0.39880    0.00144     0.40024
      H   31    0.10337      0.00000     0.39527    0.00136     0.39663
      H   32    0.10057      0.00000     0.39810    0.00133     0.39943
      H   33    0.10059      0.00000     0.39822    0.00119     0.39941
 =======================================================================
   * Total *    0.00000     13.99391    37.84775    0.15834    52.00000

 Normal termination of Gaussian 16 at Thu Dec 10 09:49:54 2020.
