 Gaussian 16, Revision A.03,

 -----------------------------------------------------------
 # opt freq B3LYP/6-31G(d) empiricaldispersion=gd3bj scf=xqc
 -----------------------------------------------------------

 -------------------------------
 CID_150363233_JID_3325_neutraal
 -------------------------------
 Symbolic Z-matrix:
 Charge =  0 Multiplicity = 1

 SCF Done:  E(RB3LYP) =  -638.282717499     A.U. after   17 cycles
 SCF Done:  E(RB3LYP) =  -638.287845953     A.U. after   15 cycles
 SCF Done:  E(RB3LYP) =  -638.290135242     A.U. after   15 cycles
 SCF Done:  E(RB3LYP) =  -638.290486754     A.U. after   15 cycles
 SCF Done:  E(RB3LYP) =  -638.290704948     A.U. after   13 cycles
 SCF Done:  E(RB3LYP) =  -638.290993003     A.U. after   14 cycles
 SCF Done:  E(RB3LYP) =  -638.291221130     A.U. after   14 cycles
 SCF Done:  E(RB3LYP) =  -638.291471231     A.U. after   17 cycles
 SCF Done:  E(RB3LYP) =  -638.291650133     A.U. after   16 cycles
 SCF Done:  E(RB3LYP) =  -638.291833898     A.U. after   14 cycles
 SCF Done:  E(RB3LYP) =  -638.291871179     A.U. after   16 cycles
 SCF Done:  E(RB3LYP) =  -638.291926281     A.U. after   13 cycles
 SCF Done:  E(RB3LYP) =  -638.291926231     A.U. after   13 cycles
 SCF Done:  E(RB3LYP) =  -638.291928870     A.U. after   11 cycles
 SCF Done:  E(RB3LYP) =  -638.291929499     A.U. after    9 cycles
 Optimization completed.
    -- Stationary point found.
 Normal termination of Gaussian 16 at Wed Dec  9 23:07:19 2020.

 --------------------------------------------------------------------
 #N Geom=AllCheck Guess=TCheck SCRF=Check GenChk RB3LYP/6-31G(d) Freq
 --------------------------------------------------------------------

 Structure from the checkpoint file:  "JID_3325.chk"
 -------------------------------
 CID_150363233_JID_3325_neutraal
 -------------------------------
 Charge =  0 Multiplicity = 1

 SCF Done:  E(RB3LYP) =  -638.291929499     A.U. after    1 cycles

  Exact polarizability:  93.552  -5.965  99.554   4.571  -2.100 103.686
 Approx polarizability: 136.337 -16.802 153.755  24.452 -13.976 197.799

                      1                      2                      3
                      A                      A                      A
 Frequencies --      4.8928                38.9938                66.4789
 Red. masses --      7.1093                 4.1863                 4.7645
 Frc consts  --      0.0001                 0.0038                 0.0124
 IR Inten    --      0.6306                 0.0861                 0.3187

                      4                      5                      6
                      A                      A                      A
 Frequencies --     80.5002               120.3119               137.0704
 Red. masses --      6.7321                 5.2136                 5.0442
 Frc consts  --      0.0257                 0.0445                 0.0558
 IR Inten    --      1.7421                 0.7092                 1.6267

                      7                      8                      9
                      A                      A                      A
 Frequencies --    205.9477               221.1541               249.8292
 Red. masses --      2.7325                 1.0659                 1.3648
 Frc consts  --      0.0683                 0.0307                 0.0502
 IR Inten    --      1.0469                 0.1456                 0.1099

                     10                     11                     12
                      A                      A                      A
 Frequencies --    258.8795               290.2409               328.1536
 Red. masses --      8.5120                 2.3832                 4.2013
 Frc consts  --      0.3361                 0.1183                 0.2666
 IR Inten    --      4.3162                 1.0810                 3.6742

                     13                     14                     15
                      A                      A                      A
 Frequencies --    387.6708               425.5837               490.6036
 Red. masses --      2.2954                 3.8231                 3.5212
 Frc consts  --      0.2033                 0.4080                 0.4993
 IR Inten    --      4.0771                 1.2080                 7.7861

                     16                     17                     18
                      A                      A                      A
 Frequencies --    525.9000               535.7956               643.4410
 Red. masses --      3.9030                13.4171                 4.2254
 Frc consts  --      0.6360                 2.2694                 1.0307
 IR Inten    --      2.6539                 9.3890                11.5899

                     19                     20                     21
                      A                      A                      A
 Frequencies --    669.0951               699.3379               710.7225
 Red. masses --      6.5151                 5.0126                 4.4211
 Frc consts  --      1.7185                 1.4444                 1.3158
 IR Inten    --      2.5333                 5.5304                 8.6694

                     22                     23                     24
                      A                      A                      A
 Frequencies --    788.5500               864.0526               890.0129
 Red. masses --      5.2461                 8.8015                 1.3765
 Frc consts  --      1.9220                 3.8716                 0.6424
 IR Inten    --     28.8234                12.0409                 7.1060

                     25                     26                     27
                      A                      A                      A
 Frequencies --    901.3359               951.6189               967.1720
 Red. masses --      2.4962                 1.1633                 1.5130
 Frc consts  --      1.1948                 0.6207                 0.8339
 IR Inten    --      2.0661                 0.9329                 0.1011

                     28                     29                     30
                      A                      A                      A
 Frequencies --    979.3263               998.9433              1036.5343
 Red. masses --      4.1894                 9.5997                 2.7883
 Frc consts  --      2.3673                 5.6441                 1.7651
 IR Inten    --     39.1115                 7.3725                39.6741

                     31                     32                     33
                      A                      A                      A
 Frequencies --   1089.2689              1142.4914              1163.5351
 Red. masses --      2.0529                 2.3695                 2.1659
 Frc consts  --      1.4351                 1.8223                 1.7276
 IR Inten    --      4.8763                25.5824                 9.5776

                     34                     35                     36
                      A                      A                      A
 Frequencies --   1169.4576              1215.4289              1222.2179
 Red. masses --      8.9511                 1.8994                 2.2852
 Frc consts  --      7.2126                 1.6532                 2.0112
 IR Inten    --     30.3544                 9.0629                 6.3070

                     37                     38                     39
                      A                      A                      A
 Frequencies --   1279.0936              1303.1179              1318.8872
 Red. masses --      1.3585                 4.8256                 3.2894
 Frc consts  --      1.3096                 4.8280                 3.3712
 IR Inten    --      1.6981                20.2945                28.9107

                     40                     41                     42
                      A                      A                      A
 Frequencies --   1369.3954              1379.1479              1412.7024
 Red. masses --      1.3740                 1.4024                 1.7177
 Frc consts  --      1.5181                 1.5716                 2.0197
 IR Inten    --      4.0884                22.3274                 3.7200

                     43                     44                     45
                      A                      A                      A
 Frequencies --   1428.5513              1444.5238              1454.5648
 Red. masses --      1.2663                 1.5121                 1.7016
 Frc consts  --      1.5226                 1.8590                 2.1211
 IR Inten    --      9.2575                 2.6453                19.6440

                     46                     47                     48
                      A                      A                      A
 Frequencies --   1492.5056              1497.1646              1510.8613
 Red. masses --      1.2734                 3.2209                 1.0425
 Frc consts  --      1.6712                 4.2537                 1.4021
 IR Inten    --     17.9569                41.1733                 1.1238

                     49                     50                     51
                      A                      A                      A
 Frequencies --   1520.2261              1526.1099              1542.4585
 Red. masses --      1.0487                 1.0522                 1.0790
 Frc consts  --      1.4279                 1.4439                 1.5125
 IR Inten    --      1.1642                 8.1493                 1.5400

                     52                     53                     54
                      A                      A                      A
 Frequencies --   1567.1284              2192.6254              3061.0293
 Red. masses --      5.6091                13.9758                 1.0349
 Frc consts  --      8.1162                39.5872                 5.7135
 IR Inten    --     15.1677               235.1459                16.8479

                     55                     56                     57
                      A                      A                      A
 Frequencies --   3071.1008              3081.5983              3107.5905
 Red. masses --      1.0356                 1.0600                 1.0861
 Frc consts  --      5.7547                 5.9305                 6.1795
 IR Inten    --     12.8703                16.1823                 2.3802

                     58                     59                     60
                      A                      A                      A
 Frequencies --   3131.2662              3141.7890              3143.9921
 Red. masses --      1.1031                 1.1025                 1.1064
 Frc consts  --      6.3722                 6.4121                 6.4435
 IR Inten    --     22.0572                17.8914                 3.5725

                     61                     62                     63
                      A                      A                      A
 Frequencies --   3146.6761              3157.8136              3278.3394
 Red. masses --      1.1029                 1.1024                 1.0972
 Frc consts  --      6.4342                 6.4766                 6.9476
 IR Inten    --     18.7481                16.8009                 6.7227

 - Thermochemistry -
 -------------------
 Temperature   298.150 Kelvin.  Pressure   1.00000 Atm.
 Atom     1 has atomic number  6 and mass  12.00000

 Molecular mass:   182.09161 amu.
 Principal axes and moments of inertia in atomic units:
                           1         2         3
     Eigenvalues --  1729.514982589.367692932.83484
           X            0.99710  -0.07605  -0.00268
           Y            0.07604   0.99710  -0.00439
           Z            0.00300   0.00418   0.99999
 This molecule is an asymmetric top.
 Rotational symmetry number  1.
 Warning -- assumption of classical behavior for rotation
           may cause significant error
 Rotational temperatures (Kelvin)      0.05008     0.03345     0.02953
 Rotational constants (GHZ):           1.04350     0.69698     0.61536
 Zero-point vibrational energy     472709.2 (Joules/Mol)
                                  112.98021 (Kcal/Mol)
 Warning -- explicit consideration of  17 degrees of freedom as
           vibrations may cause significant error
 Vibrational temperatures:      7.04    56.10    95.65   115.82   173.10
          (Kelvin)            197.21   296.31   318.19   359.45   372.47
                              417.59   472.14   557.77   612.32   705.87
                              756.65   770.89   925.77   962.68  1006.19
                             1022.57  1134.55  1243.18  1280.53  1296.82
                             1369.17  1391.54  1409.03  1437.26  1491.34
                             1567.22  1643.79  1674.07  1682.59  1748.73
                             1758.50  1840.33  1874.90  1897.58  1970.25
                             1984.29  2032.56  2055.37  2078.35  2092.79
                             2147.38  2154.09  2173.79  2187.27  2195.73
                             2219.25  2254.75  3154.70  4404.14  4418.63
                             4433.73  4471.13  4505.19  4520.33  4523.50
                             4527.37  4543.39  4716.80

 Zero-point correction=                           0.180045 (Hartree/Particle)
 Thermal correction to Energy=                    0.192864
 Thermal correction to Enthalpy=                  0.193808
 Thermal correction to Gibbs Free Energy=         0.137642
 Sum of electronic and zero-point Energies=           -638.111884
 Sum of electronic and thermal Energies=              -638.099065
 Sum of electronic and thermal Enthalpies=            -638.098121
 Sum of electronic and thermal Free Energies=         -638.154287

                     E (Thermal)             CV                S
                      KCal/Mol        Cal/Mol-Kelvin    Cal/Mol-Kelvin
 Total                  121.024             45.308            118.212
 Electronic               0.000              0.000              0.000
 Translational            0.889              2.981             41.505
 Rotational               0.889              2.981             30.952
 Vibrational            119.247             39.346             45.755
 Vibration     1          0.593              1.987              9.431
 Vibration     2          0.594              1.981              5.310
 Vibration     3          0.598              1.970              4.255
 Vibration     4          0.600              1.962              3.879
 Vibration     5          0.609              1.932              3.095
 Vibration     6          0.614              1.916              2.844
 Vibration     7          0.640              1.831              2.079
 Vibration     8          0.648              1.809              1.950
 Vibration     9          0.663              1.763              1.732
 Vibration    10          0.668              1.748              1.669
 Vibration    11          0.686              1.692              1.473
 Vibration    12          0.711              1.619              1.269
 Vibration    13          0.756              1.497              1.009
 Vibration    14          0.787              1.415              0.873
 Vibration    15          0.846              1.271              0.682
 Vibration    16          0.881              1.193              0.596
 Vibration    17          0.891              1.171              0.574

                           ! Non-Optimized Parameters !
 Normal termination of Gaussian 16 at Wed Dec  9 23:13:12 2020.

 ----------------------------------------------------------------------
 # B3LYP/6-311++G(d,p) empiricaldispersion=gd3bj scf=xqc pop=npa geom=c
 heck
 ----------------------------------------------------------------------

 ---------------------------------------
 CID_150363233_JID_3325_Energie_neutraal
 ---------------------------------------
 Structure from the checkpoint file:  "JID_3325.chk"
 Charge =  0 Multiplicity = 1

 SCF Done:  E(RB3LYP) =  -638.466407974     A.U. after   15 cycles
 Normal termination of Gaussian 16 at Wed Dec  9 23:15:36 2020.

 ----------------------------------------------------------------------
 # B3LYP/6-311++G(d,p) empiricaldispersion=gd3bj scf=xqc pop=npa geom=c
 heck
 ----------------------------------------------------------------------

 -------------------------------------
 CID_150363233_JID_3325_Energie_kation
 -------------------------------------
 Structure from the checkpoint file:  "JID_3325.chk"
 Charge =  1 Multiplicity = 2

 SCF Done:  E(UB3LYP) =  -638.122752091     A.U. after   28 cycles
 Normal termination of Gaussian 16 at Wed Dec  9 23:21:49 2020.
 Gaussian 16:  ES64L-G16RevA.03 25-Dec-2016

 ----------------------------------------------------------------------
 # B3LYP/6-311++G(d,p) empiricaldispersion=gd3bj scf=xqc pop=npa geom=c
 heck
 ----------------------------------------------------------------------

 ------------------------------------
 CID_150363233_JID_3325_Energie_anion
 ------------------------------------
 Structure from the checkpoint file:  "JID_3325.chk"
 Charge = -1 Multiplicity = 2

                         Standard orientation:
 ---------------------------------------------------------------------
 Center     Atomic      Atomic             Coordinates (Angstroms)
 Number     Number       Type             X           Y           Z
 ---------------------------------------------------------------------
      1          6           0       -1.403601    1.971270   -0.823961
      2          6           0       -1.401257    1.020353    0.373475
      3          6           0       -2.774377    0.907826    1.039561
      4          7           0       -0.941318   -0.312398   -0.044696
      5          6           0        0.040562   -1.096401    0.470682
      6          7           0        0.099528   -2.243864   -0.197664
      7          6           0       -0.893175   -2.109749   -1.117297
      8          7           0       -1.552457   -0.958872   -1.068971
      9          6           0        0.934005   -0.713892    1.605373
     10          8           0        1.670296    0.498437    1.356831
     11          7           0        2.688322    0.231985    0.365255
     12          7           0        2.305804    0.737980   -0.720623
     13          7           0        2.115051    1.172775   -1.757021
     14          1           0       -2.100146    1.616993   -1.588133
     15          1           0       -0.408389    2.040977   -1.272174
     16          1           0       -1.710210    2.971021   -0.500517
     17          1           0       -0.660391    1.363941    1.100060
     18          1           0       -3.507531    0.519276    0.326749
     19          1           0       -2.739157    0.232991    1.901154
     20          1           0       -3.106704    1.892473    1.383929
     21          1           0       -1.135308   -2.872372   -1.844501
     22          1           0        0.371573   -0.478266    2.514913
     23          1           0        1.616455   -1.544221    1.802905
 ---------------------------------------------------------------------

 SCF Done:  E(UB3LYP) =  -638.483390902     A.U. after   33 cycles
 SCF Done:  E(UB3LYP) =  -638.483390902     a.u. after    1 cycles

 The electronic state is 2-A.
 Alpha  occ. eigenvalues --  -18.98957 -14.26691 -14.23800 -14.21111 -14.19494
 Alpha  occ. eigenvalues --  -14.17612 -14.15750 -10.11096 -10.10893 -10.09478
 Alpha  occ. eigenvalues --  -10.09300 -10.06951 -10.04905  -0.95497  -0.94719
 Alpha  occ. eigenvalues --   -0.88204  -0.78396  -0.73845  -0.71980  -0.66635
 Alpha  occ. eigenvalues --   -0.59032  -0.57469  -0.52445  -0.49645  -0.44661
 Alpha  occ. eigenvalues --   -0.41791  -0.37769  -0.36366  -0.34844  -0.33852
 Alpha  occ. eigenvalues --   -0.32811  -0.32075  -0.29989  -0.29752  -0.29002
 Alpha  occ. eigenvalues --   -0.28290  -0.27687  -0.26007  -0.24790  -0.24272
 Alpha  occ. eigenvalues --   -0.23590  -0.20616  -0.17563  -0.16675  -0.15690
 Alpha  occ. eigenvalues --   -0.14182  -0.11330  -0.06134   0.05606
 Alpha virt. eigenvalues --    0.07592   0.09792   0.09856   0.10537   0.11323
 Alpha virt. eigenvalues --    0.11784   0.12665   0.13131   0.13953   0.14652
 Alpha virt. eigenvalues --    0.15190   0.16165   0.16688   0.16889   0.17630

  Beta  occ. eigenvalues --  -18.98500 -14.26612 -14.23288 -14.21048 -14.19489
  Beta  occ. eigenvalues --  -14.17571 -14.14801 -10.11091 -10.10859 -10.09497
  Beta  occ. eigenvalues --  -10.09277 -10.06951 -10.04888  -0.95295  -0.93743
  Beta  occ. eigenvalues --   -0.87094  -0.78307  -0.73351  -0.71559  -0.66557
  Beta  occ. eigenvalues --   -0.59004  -0.57105  -0.52395  -0.49586  -0.44473
  Beta  occ. eigenvalues --   -0.41378  -0.37413  -0.36142  -0.34798  -0.33529
  Beta  occ. eigenvalues --   -0.32503  -0.31359  -0.29654  -0.28992  -0.28371
  Beta  occ. eigenvalues --   -0.27973  -0.27484  -0.25093  -0.24519  -0.23548
  Beta  occ. eigenvalues --   -0.22716  -0.20468  -0.16365  -0.15770  -0.15473
  Beta  occ. eigenvalues --   -0.13889  -0.10760  -0.05722
  Beta virt. eigenvalues --    0.07496   0.09663   0.09728   0.10424   0.11173
  Beta virt. eigenvalues --    0.11866   0.12503   0.13156   0.13846   0.14346
  Beta virt. eigenvalues --    0.15109   0.15527   0.16576   0.16741   0.16897

 Mulliken charges and spin densities:
               1          2
     1  C   -0.480888  -0.026359
     2  C   -0.102293  -0.091455
     3  C   -0.558069  -0.004376
     4  N    0.458423   0.010774
     5  C   -0.308686   0.385584
     6  N   -0.043817   0.013725
     7  C    0.072061  -0.008480
     8  N   -0.296270   0.037263
     9  C   -0.354664  -0.359335
    10  O   -0.003689   0.022339
    11  N   -0.468196   0.129979
    12  N    0.447787   0.107295
    13  N   -0.631014   0.523353
    14  H    0.134192   0.014869
    15  H    0.191259   0.023789
    16  H    0.099455   0.006807
    17  H    0.079131   0.106504
    18  H    0.157071   0.005845
    19  H    0.138790  -0.002750
    20  H    0.117350   0.004241
    21  H    0.139506   0.000172
    22  H    0.117563   0.036042
    23  H    0.094998   0.064174
 Sum of Mulliken charges =  -1.00000   1.00000

 Dipole moment (field-independent basis, Debye):
    X=             -7.7985    Y=             -0.2462    Z=              2.8786  Tot=              8.3165
 Quadrupole moment (field-independent basis, Debye-Ang):
   XX=           -110.3101   YY=            -92.6468   ZZ=            -93.8891
   XY=             -6.0129   XZ=             -0.2515   YZ=              3.6683

 Summary of Natural Population Analysis:

                                       Natural Population
                Natural  -----------------------------------------------
    Atom  No    Charge         Core      Valence    Rydberg      Total
 -----------------------------------------------------------------------
      C    1   -0.29060      0.99964     2.28620    0.00476     3.29060
      C    2   -0.01168      0.99961     2.00133    0.01073     3.01168
      C    3   -0.28678      0.99965     2.28305    0.00408     3.28678
      N    4   -0.10800      0.99960     2.59288    0.01552     3.60800
      C    5    0.19082      0.99960     1.79068    0.01890     2.80918
      N    6   -0.25880      0.99970     2.75066    0.00843     3.75880
      C    7    0.07871      0.99971     1.90354    0.01804     2.92129
      N    8   -0.16224      0.99973     2.65032    0.01218     3.66224
      C    9   -0.03813      0.99955     2.02232    0.01626     3.03813
      O   10   -0.20236      0.99990     3.19203    0.01042     4.20236
      N   11   -0.11115      0.99973     2.59416    0.01726     3.61115
      N   12    0.12789      0.99971     2.35670    0.01570     3.37211
      N   13    0.07133      0.99981     2.41486    0.01400     3.42867
      H   14    0.10264      0.00000     0.39658    0.00078     0.39736
      H   15    0.12239      0.00000     0.37673    0.00088     0.37761
      H   16    0.09206      0.00000     0.40723    0.00071     0.40794
      H   17    0.11187      0.00000     0.38592    0.00221     0.38813
      H   18    0.10341      0.00000     0.39576    0.00083     0.39659
      H   19    0.09861      0.00000     0.40060    0.00079     0.40139
      H   20    0.09559      0.00000     0.40367    0.00074     0.40441
      H   21    0.08571      0.00000     0.41342    0.00087     0.41429
      H   22    0.08986      0.00000     0.40868    0.00146     0.41014
      H   23    0.09886      0.00000     0.39908    0.00207     0.40114
 =======================================================================
   * Total *    0.00000     12.99595    34.82640    0.17765    48.00000

 Normal termination of Gaussian 16 at Wed Dec  9 23:29:13 2020.
