 Gaussian 16, Revision A.03,

 -----------------------------------------------------------
 # opt freq B3LYP/6-31G(d) empiricaldispersion=gd3bj scf=xqc
 -----------------------------------------------------------

 -------------------------------
 CID_136462572_JID_5428_neutraal
 -------------------------------
 Symbolic Z-matrix:
 Charge =  0 Multiplicity = 1

 SCF Done:  E(RB3LYP) =  -1008.07514638     A.U. after   19 cycles
 SCF Done:  E(RB3LYP) =  -1008.09017648     A.U. after   16 cycles
 SCF Done:  E(RB3LYP) =  -1008.09366642     A.U. after   15 cycles
 SCF Done:  E(RB3LYP) =  -1008.09525536     A.U. after   15 cycles
 SCF Done:  E(RB3LYP) =  -1008.09581550     A.U. after   14 cycles
 SCF Done:  E(RB3LYP) =  -1008.09620513     A.U. after   14 cycles
 SCF Done:  E(RB3LYP) =  -1008.09638202     A.U. after   14 cycles
 SCF Done:  E(RB3LYP) =  -1008.09654466     A.U. after   13 cycles
 SCF Done:  E(RB3LYP) =  -1008.09657026     A.U. after   13 cycles
 SCF Done:  E(RB3LYP) =  -1008.09657452     A.U. after   11 cycles
 SCF Done:  E(RB3LYP) =  -1008.09816912     A.U. after   12 cycles
 SCF Done:  E(RB3LYP) =  -1008.09816977     A.U. after    9 cycles
 SCF Done:  E(RB3LYP) =  -1008.09817114     A.U. after   11 cycles
 SCF Done:  E(RB3LYP) =  -1008.09817248     A.U. after   10 cycles
 SCF Done:  E(RB3LYP) =  -1008.09817254     A.U. after    7 cycles
 SCF Done:  E(RB3LYP) =  -1008.09817256     A.U. after    7 cycles
 Optimization completed.
    -- Stationary point found.
 Normal termination of Gaussian 16 at Thu Dec 10 16:52:02 2020.

 --------------------------------------------------------------------
 #N Geom=AllCheck Guess=TCheck SCRF=Check GenChk RB3LYP/6-31G(d) Freq
 --------------------------------------------------------------------

 Structure from the checkpoint file:  "JID_5428.chk"
 -------------------------------
 CID_136462572_JID_5428_neutraal
 -------------------------------
 Charge =  0 Multiplicity = 1

 SCF Done:  E(RB3LYP) =  -1008.09817256     A.U. after    1 cycles

  Exact polarizability: 263.645 -13.857 169.269   0.000   0.001  63.351
 Approx polarizability: 515.350 -42.487 301.628  -0.001   0.002  99.812

                      1                      2                      3
                      A                      A                      A
 Frequencies --     40.3533                80.0688                97.6346
 Red. masses --      1.0210                 4.6907                 1.3144
 Frc consts  --      0.0010                 0.0177                 0.0074
 IR Inten    --      0.0542                 1.5112                 0.2593

                      4                      5                      6
                      A                      A                      A
 Frequencies --    114.9176               157.4364               165.9591
 Red. masses --      2.3123                 5.8294                 4.2930
 Frc consts  --      0.0180                 0.0851                 0.0697
 IR Inten    --      0.2289                 3.4858                 7.5204

                      7                      8                      9
                      A                      A                      A
 Frequencies --    182.2999               210.4905               270.3880
 Red. masses --      5.6777                 2.9779                 5.1593
 Frc consts  --      0.1112                 0.0777                 0.2222
 IR Inten    --      2.1246                 2.3328                 0.6087

                     10                     11                     12
                      A                      A                      A
 Frequencies --    276.2131               291.9367               351.3882
 Red. masses --      4.8108                 3.0909                 2.0550
 Frc consts  --      0.2162                 0.1552                 0.1495
 IR Inten    --      0.0066                 0.5382                27.2781

                     13                     14                     15
                      A                      A                      A
 Frequencies --    380.1193               388.4675               397.6830
 Red. masses --      6.3999                 1.8774                 8.2079
 Frc consts  --      0.5448                 0.1669                 0.7648
 IR Inten    --     12.7240                83.4964                 7.3019

                     16                     17                     18
                      A                      A                      A
 Frequencies --    418.5392               470.0460               518.4249
 Red. masses --      4.7990                 1.1631                 5.7572
 Frc consts  --      0.4953                 0.1514                 0.9117
 IR Inten    --      0.0698               106.5528                 7.1026

                     19                     20                     21
                      A                      A                      A
 Frequencies --    539.9192               547.4701               596.0394
 Red. masses --      6.4240                 4.4366                 5.2465
 Frc consts  --      1.1033                 0.7835                 1.0982
 IR Inten    --     32.9443                 5.3769                 2.5856

                     22                     23                     24
                      A                      A                      A
 Frequencies --    634.3614               648.3930               690.6923
 Red. masses --      5.3245                 5.0713                 4.6441
 Frc consts  --      1.2624                 1.2562                 1.3053
 IR Inten    --      4.0934                 5.5063                20.2172

                     25                     26                     27
                      A                      A                      A
 Frequencies --    717.4168               719.9999               756.8235
 Red. masses --      6.6772                 6.8565                10.0250
 Frc consts  --      2.0248                 2.0942                 3.3832
 IR Inten    --      6.3982                 2.0642                69.8223

                     28                     29                     30
                      A                      A                      A
 Frequencies --    758.0429               793.8743               814.6503
 Red. masses --      5.3001                 5.1797                 1.6326
 Frc consts  --      1.7944                 1.9234                 0.6384
 IR Inten    --      0.7613                24.8903                29.0137

                     31                     32                     33
                      A                      A                      A
 Frequencies --    887.5098               950.1341               958.9978
 Red. masses --      4.7498                 1.2832                 2.4794
 Frc consts  --      2.2043                 0.6825                 1.3435
 IR Inten    --     16.3786                 0.0190                 0.5326

                     34                     35                     36
                      A                      A                      A
 Frequencies --   1002.6846              1049.6923              1068.6176
 Red. masses --      2.1911                 2.4332                 1.4097
 Frc consts  --      1.2979                 1.5796                 0.9484
 IR Inten    --     39.4025                 5.6489                 0.8245

                     37                     38                     39
                      A                      A                      A
 Frequencies --   1077.7405              1109.6703              1149.5242
 Red. masses --      1.3824                 2.1909                 2.8748
 Frc consts  --      0.9461                 1.5895                 2.2381
 IR Inten    --      0.0015                26.0179                 8.4806

                     40                     41                     42
                      A                      A                      A
 Frequencies --   1183.1091              1267.2808              1274.2895
 Red. masses --      1.6511                 2.5494                 2.9792
 Frc consts  --      1.3617                 2.4123                 2.8502
 IR Inten    --     55.6478                67.3119                66.5960

                     43                     44                     45
                      A                      A                      A
 Frequencies --   1289.4043              1289.8688              1329.4028
 Red. masses --      2.3722                 2.4352                 3.5281
 Frc consts  --      2.3237                 2.3871                 3.6738
 IR Inten    --     21.0175                48.9974                80.4660

                     46                     47                     48
                      A                      A                      A
 Frequencies --   1362.7131              1410.9757              1440.8584
 Red. masses --      2.4296                 2.9723                 2.0864
 Frc consts  --      2.6582                 3.4864                 2.5520
 IR Inten    --    197.8309                 2.1164                81.5863

                     49                     50                     51
                      A                      A                      A
 Frequencies --   1445.5413              1452.4884              1508.7416
 Red. masses --      1.4379                 1.7737                 2.8217
 Frc consts  --      1.7703                 2.2047                 3.7843
 IR Inten    --     37.0918                 3.5836                90.7734

                     52                     53                     54
                      A                      A                      A
 Frequencies --   1515.5727              1520.4755              1528.7169
 Red. masses --      1.0440                 1.0430                 1.1518
 Frc consts  --      1.4129                 1.4207                 1.5860
 IR Inten    --      4.6054                 5.9642                14.6730

                     55                     56                     57
                      A                      A                      A
 Frequencies --   1538.4654              1572.9243              1611.2094
 Red. masses --      1.3381                 3.6748                 7.2118
 Frc consts  --      1.8661                 5.3568                11.0306
 IR Inten    --     18.9698               152.1235                66.4645

                     58                     59                     60
                      A                      A                      A
 Frequencies --   1634.7570              1694.5265              3004.6656
 Red. masses --      8.4443                 7.3198                 1.0427
 Frc consts  --     13.2960                12.3836                 5.5461
 IR Inten    --     44.4562               307.6523                83.2085

                     61                     62                     63
                      A                      A                      A
 Frequencies --   3016.5213              3041.7666              3053.5551
 Red. masses --      1.0400                 1.1014                 1.1015
 Frc consts  --      5.5757                 6.0039                 6.0512
 IR Inten    --     83.4628                34.0586                38.8779

                     64                     65                     66
                      A                      A                      A
 Frequencies --   3119.3716              3125.2117              3170.1193
 Red. masses --      1.0963                 1.0934                 1.0876
 Frc consts  --      6.2849                 6.2917                 6.4400
 IR Inten    --      9.3047                10.6836                19.3666

                     67                     68                     69
                      A                      A                      A
 Frequencies --   3205.3052              3626.1272              3751.9552
 Red. masses --      1.0925                 1.0793                 1.0653
 Frc consts  --      6.6133                 8.3613                 8.8353
 IR Inten    --     22.2672               120.3897                68.6125

 - Thermochemistry -
 -------------------
 Temperature   298.150 Kelvin.  Pressure   1.00000 Atm.
 Atom     1 has atomic number  6 and mass  12.00000

 Molecular mass:   218.05138 amu.
 Principal axes and moments of inertia in atomic units:
                           1         2         3
     Eigenvalues --  1868.128384314.473246160.05754
           X            0.99952   0.03084   0.00000
           Y           -0.03084   0.99952  -0.00000
           Z           -0.00000   0.00000   1.00000
 This molecule is an asymmetric top.
 Rotational symmetry number  1.
 Warning -- assumption of classical behavior for rotation
           may cause significant error
 Rotational temperatures (Kelvin)      0.04636     0.02008     0.01406
 Rotational constants (GHZ):           0.96607     0.41830     0.29297
 Zero-point vibrational energy     498068.4 (Joules/Mol)
                                  119.04121 (Kcal/Mol)
 Warning -- explicit consideration of  21 degrees of freedom as
           vibrations may cause significant error
 Vibrational temperatures:     58.06   115.20   140.47   165.34   226.52
          (Kelvin)            238.78   262.29   302.85   389.03   397.41
                              420.03   505.57   546.91   558.92   572.18
                              602.18   676.29   745.90   776.82   787.69
                              857.57   912.70   932.89   993.75  1032.20
                             1035.92  1088.90  1090.65  1142.21  1172.10
                             1276.93  1367.03  1379.78  1442.64  1510.27
                             1537.50  1550.63  1596.57  1653.91  1702.23
                             1823.33  1833.42  1855.17  1855.83  1912.71
                             1960.64  2030.08  2073.07  2079.81  2089.81
                             2170.74  2180.57  2187.63  2199.48  2213.51
                             2263.09  2318.17  2352.05  2438.05  4323.04
                             4340.10  4376.42  4393.38  4488.08  4496.48
                             4561.09  4611.72  5217.19  5398.23

 Zero-point correction=                           0.189704 (Hartree/Particle)
 Thermal correction to Energy=                    0.203349
 Thermal correction to Enthalpy=                  0.204294
 Thermal correction to Gibbs Free Energy=         0.149255
 Sum of electronic and zero-point Energies=          -1007.908468
 Sum of electronic and thermal Energies=             -1007.894823
 Sum of electronic and thermal Enthalpies=           -1007.893879
 Sum of electronic and thermal Free Energies=        -1007.948918

                     E (Thermal)             CV                S
                      KCal/Mol        Cal/Mol-Kelvin    Cal/Mol-Kelvin
 Total                  127.604             52.025            115.839
 Electronic               0.000              0.000              0.000
 Translational            0.889              2.981             42.042
 Rotational               0.889              2.981             32.274
 Vibrational            125.826             46.063             41.523
 Vibration     1          0.594              1.981              5.242
 Vibration     2          0.600              1.963              3.889
 Vibration     3          0.603              1.951              3.501
 Vibration     4          0.608              1.937              3.184
 Vibration     5          0.621              1.894              2.580
 Vibration     6          0.624              1.884              2.481
 Vibration     7          0.630              1.864              2.305
 Vibration     8          0.643              1.825              2.039
 Vibration     9          0.674              1.728              1.594
 Vibration    10          0.678              1.717              1.557
 Vibration    11          0.687              1.689              1.463
 Vibration    12          0.728              1.572              1.160
 Vibration    13          0.750              1.513              1.039
 Vibration    14          0.757              1.495              1.006
 Vibration    15          0.764              1.475              0.971
 Vibration    16          0.781              1.430              0.897
 Vibration    17          0.827              1.317              0.737
 Vibration    18          0.873              1.209              0.614
 Vibration    19          0.895              1.162              0.565
 Vibration    20          0.903              1.145              0.549
 Vibration    21          0.954              1.040              0.457

 Optimization completed.
    -- Stationary point found.
 Normal termination of Gaussian 16 at Thu Dec 10 17:00:34 2020.

 ----------------------------------------------------------------------
 # B3LYP/6-311++G(d,p) empiricaldispersion=gd3bj scf=xqc pop=npa geom=c
 heck
 ----------------------------------------------------------------------

 ---------------------------------------
 CID_136462572_JID_5428_Energie_neutraal
 ---------------------------------------
 Structure from the checkpoint file:  "JID_5428.chk"
 Charge =  0 Multiplicity = 1

 SCF Done:  E(RB3LYP) =  -1008.29109472     A.U. after   21 cycles
 Normal termination of Gaussian 16 at Thu Dec 10 17:07:10 2020.

 ----------------------------------------------------------------------
 # B3LYP/6-311++G(d,p) empiricaldispersion=gd3bj scf=xqc pop=npa geom=c
 heck
 ----------------------------------------------------------------------

 -------------------------------------
 CID_136462572_JID_5428_Energie_kation
 -------------------------------------
 Structure from the checkpoint file:  "JID_5428.chk"
 Charge =  1 Multiplicity = 2

 SCF Done:  E(UB3LYP) =  -1008.06894267     A.U. after   24 cycles
 Normal termination of Gaussian 16 at Thu Dec 10 17:15:18 2020.
 Gaussian 16:  ES64L-G16RevA.03 25-Dec-2016

 ----------------------------------------------------------------------
 # B3LYP/6-311++G(d,p) empiricaldispersion=gd3bj scf=xqc pop=npa geom=c
 heck
 ----------------------------------------------------------------------

 ------------------------------------
 CID_136462572_JID_5428_Energie_anion
 ------------------------------------
 Structure from the checkpoint file:  "JID_5428.chk"
 Charge = -1 Multiplicity = 2

                         Standard orientation:
 ---------------------------------------------------------------------
 Center     Atomic      Atomic             Coordinates (Angstroms)
 Number     Number       Type             X           Y           Z
 ---------------------------------------------------------------------
      1          6           0       -4.219861   -0.923735   -0.000083
      2          6           0       -2.897575   -0.195456   -0.000024
      3          6           0       -1.698661   -0.890531    0.000036
      4          6           0       -0.474276   -0.194130    0.000092
      5          6           0        0.848132   -0.618700    0.000076
      6          6           0        1.729229    0.583292    0.000049
      7          7           0        3.032643    0.297000   -0.000010
      8         16           0        3.273866   -1.335275   -0.000061
      9          7           0        1.577378   -1.734947   -0.000007
     10          6           0        0.925058    1.738634    0.000058
     11          6           0       -0.414564    1.268847    0.000067
     12          6           0       -1.653662    1.954692    0.000012
     13          6           0       -2.829444    1.228810   -0.000033
     14          6           0        1.384619    3.163720   -0.000046
     15          8           0       -1.609909   -2.258469    0.000060
     16          1           0       -4.352543   -1.562101    0.886670
     17          1           0       -4.352601   -1.561909   -0.886957
     18          1           0       -5.050580   -0.212338    0.000031
     19          1           0        1.208255   -2.677904    0.000009
     20          1           0       -1.681785    3.039837   -0.000002
     21          1           0       -3.774830    1.767847   -0.000080
     22          1           0        2.478126    3.210090   -0.000341
     23          1           0        1.032383    3.715795   -0.882869
     24          1           0        1.032872    3.715785    0.882977
     25          1           0       -2.505995   -2.629974   -0.000035
 ---------------------------------------------------------------------

 SCF Done:  E(UB3LYP) =  -1008.32226061     A.U. after   23 cycles

 The electronic state is 2-A.
 Alpha  occ. eigenvalues --  -88.76206 -19.03293 -14.21756 -14.15603 -10.08520
 Alpha  occ. eigenvalues --  -10.06446 -10.04828 -10.04307 -10.02803 -10.02517
 Alpha  occ. eigenvalues --  -10.02263 -10.01504 -10.01167 -10.01084  -9.99045
 Alpha  occ. eigenvalues --   -7.84426  -5.81031  -5.80385  -5.79771  -0.94024
 Alpha  occ. eigenvalues --   -0.84941  -0.74222  -0.71645  -0.67441  -0.61754
 Alpha  occ. eigenvalues --   -0.60828  -0.57510  -0.55884  -0.50518  -0.50065
 Alpha  occ. eigenvalues --   -0.46088  -0.45740  -0.40598  -0.38746  -0.36406
 Alpha  occ. eigenvalues --   -0.32912  -0.32194  -0.31728  -0.29679  -0.29654
 Alpha  occ. eigenvalues --   -0.28831  -0.27573  -0.26979  -0.26734  -0.25736
 Alpha  occ. eigenvalues --   -0.24598  -0.23785  -0.22844  -0.20286  -0.19795
 Alpha  occ. eigenvalues --   -0.19041  -0.18541  -0.15337  -0.13672  -0.09902
 Alpha  occ. eigenvalues --   -0.07793  -0.01307   0.02700
 Alpha virt. eigenvalues --    0.07126   0.09122   0.09649   0.10297   0.11194
 Alpha virt. eigenvalues --    0.11504   0.11831   0.13081   0.13285   0.14067
 Alpha virt. eigenvalues --    0.14345   0.15067   0.15265   0.15600   0.15626

  Beta  occ. eigenvalues --  -88.76141 -19.03234 -14.21303 -14.15006 -10.08297
  Beta  occ. eigenvalues --  -10.06440 -10.04437 -10.04325 -10.02907 -10.02515
  Beta  occ. eigenvalues --  -10.02019 -10.01346 -10.01231 -10.01190  -9.99091
  Beta  occ. eigenvalues --   -7.84369  -5.81009  -5.80364  -5.79542  -0.93875
  Beta  occ. eigenvalues --   -0.84222  -0.73284  -0.71381  -0.67232  -0.61619
  Beta  occ. eigenvalues --   -0.60655  -0.57258  -0.55615  -0.50370  -0.49441
  Beta  occ. eigenvalues --   -0.45806  -0.45524  -0.40394  -0.38523  -0.36283
  Beta  occ. eigenvalues --   -0.32834  -0.32012  -0.31625  -0.29503  -0.28790
  Beta  occ. eigenvalues --   -0.28495  -0.27434  -0.26743  -0.25897  -0.25453
  Beta  occ. eigenvalues --   -0.24449  -0.23645  -0.22651  -0.19749  -0.19616
  Beta  occ. eigenvalues --   -0.18861  -0.16083  -0.14283  -0.13028  -0.09189
  Beta  occ. eigenvalues --   -0.06490  -0.00555
  Beta virt. eigenvalues --    0.07124   0.09102   0.09156   0.09677   0.10351
  Beta virt. eigenvalues --    0.11216   0.11510   0.11962   0.13088   0.13367
  Beta virt. eigenvalues --    0.14090   0.14403   0.15276   0.15554   0.15670

 Mulliken charges and spin densities:
               1          2
     1  C   -0.555473   0.021343
     2  C    1.314631  -0.074957
     3  C   -0.731372   0.145747
     4  C   -0.131383  -0.104615
     5  C    0.106906   0.295069
     6  C   -0.606724  -0.006624
     7  N   -0.273413   0.252282
     8  S    0.261347   0.152103
     9  N   -0.330295   0.154705
    10  C    0.259197  -0.066700
    11  C    0.309739   0.127400
    12  C   -0.510122  -0.073605
    13  C   -0.726931   0.191961
    14  C   -0.634048   0.006750
    15  O   -0.277517   0.012524
    16  H    0.122180  -0.003024
    17  H    0.122213  -0.003025
    18  H    0.159203  -0.000630
    19  H    0.333643  -0.008439
    20  H    0.084574   0.002365
    21  H    0.054720  -0.016547
    22  H    0.167830  -0.001608
    23  H    0.108186  -0.000993
    24  H    0.108203  -0.000996
    25  H    0.264706  -0.000486
 Sum of Mulliken charges =  -1.00000   1.00000

 Dipole moment (field-independent basis, Debye):
    X=             -3.9739    Y=             -3.7784    Z=             -0.0003  Tot=              5.4835
 Quadrupole moment (field-independent basis, Debye-Ang):
   XX=           -130.8768   YY=           -104.7430   ZZ=           -106.1179
   XY=              2.2262   XZ=              0.0003   YZ=              0.0001

 Summary of Natural Population Analysis:

                                       Natural Population
                Natural  -----------------------------------------------
    Atom  No    Charge         Core      Valence    Rydberg      Total
 -----------------------------------------------------------------------
      C    1   -0.29560      0.99965     2.29023    0.00573     3.29560
      C    2   -0.13007      0.99950     2.12128    0.00929     3.13007
      C    3    0.22382      0.99921     1.76469    0.01227     2.77618
      C    4   -0.12538      0.99946     2.11677    0.00915     3.12538
      C    5    0.18173      0.99939     1.80596    0.01292     2.81827
      C    6    0.08184      0.99949     1.90491    0.01376     2.91816
      N    7   -0.25027      0.99967     2.73312    0.01747     3.75027
      S    8    0.34166      4.99957     2.62563    0.03313     7.65834
      N    9   -0.28178      0.99962     2.77121    0.01096     3.78178
      C   10   -0.12733      0.99943     2.11807    0.00983     3.12733
      C   11    0.04341      0.99952     1.94845    0.00863     2.95659
      C   12   -0.15469      0.99954     2.14536    0.00979     3.15469
      C   13   -0.03768      0.99956     2.02899    0.00913     3.03768
      C   14   -0.28089      0.99961     2.27661    0.00467     3.28089
      O   15   -0.34562      0.99988     3.33924    0.00650     4.34562
      H   16    0.08858      0.00000     0.40968    0.00174     0.41142
      H   17    0.08859      0.00000     0.40968    0.00174     0.41141
      H   18    0.10254      0.00000     0.39659    0.00088     0.39746
      H   19    0.19976      0.00000     0.29872    0.00152     0.30024
      H   20    0.09238      0.00000     0.40581    0.00181     0.40762
      H   21    0.08194      0.00000     0.41652    0.00154     0.41806
      H   22    0.10115      0.00000     0.39772    0.00114     0.39885
      H   23    0.08737      0.00000     0.41051    0.00213     0.41263
      H   24    0.08737      0.00000     0.41051    0.00213     0.41263
      H   25    0.22951      0.00000     0.26819    0.00230     0.27049
 =======================================================================
   * Total *    0.00233     18.99309    37.81443    0.19016    56.99767

 Normal termination of Gaussian 16 at Thu Dec 10 17:24:19 2020.
