 Gaussian 16, Revision A.03,

 -----------------------------------------------------------
 # opt freq B3LYP/6-31G(d) empiricaldispersion=gd3bj scf=xqc
 -----------------------------------------------------------

 ------------------------------
 CID_57948639_JID_5476_neutraal
 ------------------------------
 Symbolic Z-matrix:
 Charge =  0 Multiplicity = 1

 SCF Done:  E(RB3LYP) =  -684.957045519     A.U. after   15 cycles
 SCF Done:  E(RB3LYP) =  -684.958773774     A.U. after   13 cycles
 SCF Done:  E(RB3LYP) =  -684.959181430     A.U. after   14 cycles
 SCF Done:  E(RB3LYP) =  -684.962737576     A.U. after   13 cycles
 SCF Done:  E(RB3LYP) =  -684.964881163     A.U. after   13 cycles
 SCF Done:  E(RB3LYP) =  -684.965499490     A.U. after   12 cycles
 SCF Done:  E(RB3LYP) =  -684.965895914     A.U. after   12 cycles
 SCF Done:  E(RB3LYP) =  -684.966220420     A.U. after   11 cycles
 SCF Done:  E(RB3LYP) =  -684.966314095     A.U. after   13 cycles
 SCF Done:  E(RB3LYP) =  -684.966503029     A.U. after   11 cycles
 SCF Done:  E(RB3LYP) =  -684.966580158     A.U. after   11 cycles
 SCF Done:  E(RB3LYP) =  -684.966587094     A.U. after   10 cycles
 SCF Done:  E(RB3LYP) =  -684.966592520     A.U. after    9 cycles
 SCF Done:  E(RB3LYP) =  -684.966596439     A.U. after    9 cycles
 SCF Done:  E(RB3LYP) =  -684.966597427     A.U. after    8 cycles
 SCF Done:  E(RB3LYP) =  -684.966597587     A.U. after    7 cycles
 Optimization completed.
    -- Stationary point found.
 Normal termination of Gaussian 16 at Thu Dec 10 16:25:21 2020.

 --------------------------------------------------------------------
 #N Geom=AllCheck Guess=TCheck SCRF=Check GenChk RB3LYP/6-31G(d) Freq
 --------------------------------------------------------------------

 Structure from the checkpoint file:  "JID_5476.chk"
 ------------------------------
 CID_57948639_JID_5476_neutraal
 ------------------------------
 Charge =  0 Multiplicity = 1

 SCF Done:  E(RB3LYP) =  -684.966597587     A.U. after    1 cycles

  Exact polarizability: 127.213  -7.141 131.467  -7.021  -5.161 114.368
 Approx polarizability: 171.750 -13.004 200.913 -10.470 -16.403 190.881

                      1                      2                      3
                      A                      A                      A
 Frequencies --     34.2277                48.3549                86.5331
 Red. masses --      7.4162                 4.1277                 4.5112
 Frc consts  --      0.0051                 0.0057                 0.0199
 IR Inten    --      1.0401                 2.6003                 1.8726

                      4                      5                      6
                      A                      A                      A
 Frequencies --     88.6388                97.1849               135.8637
 Red. masses --      4.2195                 4.6593                 4.3845
 Frc consts  --      0.0195                 0.0259                 0.0477
 IR Inten    --      1.3758                 0.9321                 2.9625

                      7                      8                      9
                      A                      A                      A
 Frequencies --    207.5994               216.8715               273.3477
 Red. masses --      3.2671                 3.3551                 2.9871
 Frc consts  --      0.0830                 0.0930                 0.1315
 IR Inten    --      1.6991                 0.8228                 1.3541

                     10                     11                     12
                      A                      A                      A
 Frequencies --    313.3983               330.6507               350.4044
 Red. masses --      2.4341                 3.0886                 2.2224
 Frc consts  --      0.1409                 0.1990                 0.1608
 IR Inten    --     15.7653                 7.8253                 6.8893

                     13                     14                     15
                      A                      A                      A
 Frequencies --    392.4235               425.4111               437.5884
 Red. masses --      3.4610                 2.1774                 1.8089
 Frc consts  --      0.3140                 0.2322                 0.2041
 IR Inten    --      0.9959                 2.2426                 0.8234

                     16                     17                     18
                      A                      A                      A
 Frequencies --    474.3100               514.8483               582.2634
 Red. masses --      2.6649                 2.9309                 2.4479
 Frc consts  --      0.3532                 0.4577                 0.4890
 IR Inten    --      1.6567                10.5823                12.1237

                     19                     20                     21
                      A                      A                      A
 Frequencies --    627.0375               656.5578               665.2018
 Red. masses --      3.8988                 3.0147                 3.5267
 Frc consts  --      0.9032                 0.7657                 0.9194
 IR Inten    --      4.7070                 1.4166                 2.7565

                     22                     23                     24
                      A                      A                      A
 Frequencies --    679.1374               722.5631               741.4719
 Red. masses --      3.7110                 1.2194                 2.6652
 Frc consts  --      1.0084                 0.3751                 0.8633
 IR Inten    --     21.9024                27.4949                 0.8260

                     25                     26                     27
                      A                      A                      A
 Frequencies --    799.2693               820.1706               849.0340
 Red. masses --      1.3229                 3.3171                 1.3214
 Frc consts  --      0.4979                 1.3147                 0.5612
 IR Inten    --     30.1009                 6.5928                 2.8819

                     28                     29                     30
                      A                      A                      A
 Frequencies --    855.6467               907.8417               921.6620
 Red. masses --      1.6269                 2.4394                 2.9998
 Frc consts  --      0.7018                 1.1845                 1.5013
 IR Inten    --      0.4693                 0.8746                10.2732

                     31                     32                     33
                      A                      A                      A
 Frequencies --    926.4721               949.2037              1003.6879
 Red. masses --      3.4791                 2.5511                 2.5030
 Frc consts  --      1.7594                 1.3543                 1.4856
 IR Inten    --      3.9856                 4.3182                 1.3154

                     34                     35                     36
                      A                      A                      A
 Frequencies --   1016.0637              1033.6781              1055.6962
 Red. masses --      1.6180                 2.4531                 2.8076
 Frc consts  --      0.9842                 1.5443                 1.8436
 IR Inten    --      2.2045                79.8419                23.4376

                     37                     38                     39
                      A                      A                      A
 Frequencies --   1066.8102              1088.3647              1097.2101
 Red. masses --      2.3643                 1.8792                 2.1929
 Frc consts  --      1.5854                 1.3115                 1.5554
 IR Inten    --      0.7586                 6.9782                 3.3810

                     40                     41                     42
                      A                      A                      A
 Frequencies --   1108.6719              1152.5181              1178.7781
 Red. masses --      1.3470                 2.1676                 2.0836
 Frc consts  --      0.9755                 1.6963                 1.7058
 IR Inten    --     12.2001                12.1721                24.7736

                     43                     44                     45
                      A                      A                      A
 Frequencies --   1188.5784              1219.8896              1237.8019
 Red. masses --      1.7763                 2.0013                 1.4771
 Frc consts  --      1.4785                 1.7547                 1.3334
 IR Inten    --    101.1056                 4.5918                42.8304

                     46                     47                     48
                      A                      A                      A
 Frequencies --   1253.3980              1267.9965              1277.5562
 Red. masses --      1.2460                 1.7307                 1.5043
 Frc consts  --      1.1533                 1.6395                 1.4465
 IR Inten    --      7.8925                31.4501                 4.7319

                     49                     50                     51
                      A                      A                      A
 Frequencies --   1305.7892              1327.3814              1353.3502
 Red. masses --      1.7582                 1.8421                 1.6819
 Frc consts  --      1.7663                 1.9123                 1.8150
 IR Inten    --     44.7668                15.6748                 8.2077

                     52                     53                     54
                      A                      A                      A
 Frequencies --   1372.1735              1392.1423              1398.7289
 Red. masses --      1.2815                 2.4738                 1.4285
 Frc consts  --      1.4216                 2.8248                 1.6466
 IR Inten    --      0.6937                10.1663                17.1149

                     55                     56                     57
                      A                      A                      A
 Frequencies --   1402.3081              1411.1641              1421.6122
 Red. masses --      1.8019                 1.4290                 1.4754
 Frc consts  --      2.0877                 1.6766                 1.7568
 IR Inten    --     13.4691                 5.0765                22.8066

                     58                     59                     60
                      A                      A                      A
 Frequencies --   1432.5136              1434.9029              1439.8216
 Red. masses --      1.3423                 1.6239                 1.6997
 Frc consts  --      1.6229                 1.9700                 2.0760
 IR Inten    --     18.9426                 4.6809                46.1833

                     61                     62                     63
                      A                      A                      A
 Frequencies --   1447.4669              1475.6584              1495.3834
 Red. masses --      1.2224                 2.7021                 1.0968
 Frc consts  --      1.5090                 3.4667                 1.4450
 IR Inten    --     26.7954                98.6053                 7.6096

                     64                     65                     66
                      A                      A                      A
 Frequencies --   1502.0458              1508.1757              1510.9346
 Red. masses --      1.0896                 1.1442                 1.1260
 Frc consts  --      1.4484                 1.5334                 1.5146
 IR Inten    --      5.2437                16.2248                12.8087

                     67                     68                     69
                      A                      A                      A
 Frequencies --   1514.0017              1520.6364              1548.1749
 Red. masses --      1.3005                 1.1234                 2.5362
 Frc consts  --      1.7563                 1.5305                 3.5816
 IR Inten    --      5.3882                 5.2052                 7.2535

                     70                     71                     72
                      A                      A                      A
 Frequencies --   1551.1936              1798.9480              2953.5146
 Red. masses --      2.8872                 8.4380                 1.0844
 Frc consts  --      4.0932                16.0890                 5.5734
 IR Inten    --     37.7712               444.9792                92.6428

                     73                     74                     75
                      A                      A                      A
 Frequencies --   3000.1491              3005.5594              3012.2828
 Red. masses --      1.0693                 1.0697                 1.0723
 Frc consts  --      5.6707                 5.6931                 5.7325
 IR Inten    --     39.4139                62.6146                62.8213

                     76                     77                     78
                      A                      A                      A
 Frequencies --   3041.1549              3048.2867              3085.6278
 Red. masses --      1.0620                 1.0681                 1.0935
 Frc consts  --      5.7868                 5.8478                 6.1342
 IR Inten    --     38.3718                64.3367                 4.1121

                     79                     80                     81
                      A                      A                      A
 Frequencies --   3089.4640              3099.2626              3104.7980
 Red. masses --      1.0943                 1.1007                 1.0666
 Frc consts  --      6.1540                 6.2294                 6.0579
 IR Inten    --     44.8534                43.0375                 3.6922

                     82                     83                     84
                      A                      A                      A
 Frequencies --   3116.9380              3120.4636              3162.0365
 Red. masses --      1.0880                 1.0957                 1.1056
 Frc consts  --      6.2278                 6.2858                 6.5132
 IR Inten    --     17.7362                40.9992                 2.2125

                     85                     86                     87
                      A                      A                      A
 Frequencies --   3262.7412              3266.5129              3288.9182
 Red. masses --      1.0912                 1.0957                 1.1044
 Frc consts  --      6.8444                 6.8883                 7.0388
 IR Inten    --      6.0672                 1.0523                 2.2833

 - Thermochemistry -
 -------------------
 Temperature   298.150 Kelvin.  Pressure   1.00000 Atm.
 Atom     1 has atomic number  6 and mass  12.00000

 Molecular mass:   208.13241 amu.
 Principal axes and moments of inertia in atomic units:
                           1         2         3
     Eigenvalues --  2037.024153759.267344712.80811
           X            0.99999  -0.00061  -0.00476
           Y            0.00063   1.00000   0.00254
           Z            0.00476  -0.00254   0.99999
 This molecule is an asymmetric top.
 Rotational symmetry number  1.
 Warning -- assumption of classical behavior for rotation
           may cause significant error
 Rotational temperatures (Kelvin)      0.04252     0.02304     0.01838
 Rotational constants (GHZ):           0.88597     0.48008     0.38294
 Zero-point vibrational energy     703404.8 (Joules/Mol)
                                  168.11779 (Kcal/Mol)
 Warning -- explicit consideration of  18 degrees of freedom as
           vibrations may cause significant error
 Vibrational temperatures:     49.25    69.57   124.50   127.53   139.83
          (Kelvin)            195.48   298.69   312.03   393.29   450.91
                              475.73   504.15   564.61   612.07   629.59
                              682.43   740.75   837.75   902.17   944.64
                              957.08   977.13  1039.61  1066.81  1149.97
                             1180.04  1221.57  1231.08  1306.18  1326.07
                             1332.99  1365.69  1444.08  1461.89  1487.23
                             1518.91  1534.90  1565.91  1578.64  1595.13
                             1658.22  1696.00  1710.10  1755.15  1780.92
                             1803.36  1824.36  1838.12  1878.74  1909.81
                             1947.17  1974.25  2002.98  2012.46  2017.61
                             2030.35  2045.38  2061.07  2064.51  2071.58
                             2082.58  2123.14  2151.52  2161.11  2169.93
                             2173.90  2178.31  2187.86  2227.48  2231.82
                             2588.28  4249.45  4316.55  4324.33  4334.00
                             4375.54  4385.80  4439.53  4445.05  4459.15
                             4467.11  4484.58  4489.65  4549.47  4694.36
                             4699.78  4732.02

 Zero-point correction=                           0.267913 (Hartree/Particle)
 Thermal correction to Energy=                    0.281275
 Thermal correction to Enthalpy=                  0.282219
 Thermal correction to Gibbs Free Energy=         0.226863
 Sum of electronic and zero-point Energies=           -684.698685
 Sum of electronic and thermal Energies=              -684.685322
 Sum of electronic and thermal Enthalpies=            -684.684378
 Sum of electronic and thermal Free Energies=         -684.739734

                     E (Thermal)             CV                S
                      KCal/Mol        Cal/Mol-Kelvin    Cal/Mol-Kelvin
 Total                  176.503             51.430            116.507
 Electronic               0.000              0.000              0.000
 Translational            0.889              2.981             41.903
 Rotational               0.889              2.981             31.957
 Vibrational            174.725             45.468             42.647
 Vibration     1          0.594              1.983              5.568
 Vibration     2          0.595              1.978              4.884
 Vibration     3          0.601              1.959              3.737
 Vibration     4          0.601              1.957              3.690
 Vibration     5          0.603              1.951              3.510
 Vibration     6          0.614              1.918              2.861
 Vibration     7          0.641              1.829              2.065
 Vibration     8          0.646              1.815              1.985
 Vibration     9          0.676              1.722              1.575
 Vibration    10          0.701              1.648              1.344
 Vibration    11          0.713              1.614              1.257
 Vibration    12          0.727              1.574              1.164
 Vibration    13          0.760              1.486              0.991
 Vibration    14          0.787              1.415              0.874
 Vibration    15          0.798              1.388              0.834
 Vibration    16          0.831              1.307              0.726
 Vibration    17          0.870              1.217              0.622
 Vibration    18          0.939              1.070              0.481

 Optimization completed.
    -- Stationary point found.
 Normal termination of Gaussian 16 at Thu Dec 10 16:37:34 2020.

 ----------------------------------------------------------------------
 # B3LYP/6-311++G(d,p) empiricaldispersion=gd3bj scf=xqc pop=npa geom=c
 heck
 ----------------------------------------------------------------------

 --------------------------------------
 CID_57948639_JID_5476_Energie_neutraal
 --------------------------------------
 Structure from the checkpoint file:  "JID_5476.chk"
 Charge =  0 Multiplicity = 1

 SCF Done:  E(RB3LYP) =  -685.156166612     A.U. after   14 cycles
 Normal termination of Gaussian 16 at Thu Dec 10 16:42:55 2020.

 ----------------------------------------------------------------------
 # B3LYP/6-311++G(d,p) empiricaldispersion=gd3bj scf=xqc pop=npa geom=c
 heck
 ----------------------------------------------------------------------

 ------------------------------------
 CID_57948639_JID_5476_Energie_kation
 ------------------------------------
 Structure from the checkpoint file:  "JID_5476.chk"
 Charge =  1 Multiplicity = 2

 SCF Done:  E(UB3LYP) =  -684.874288472     A.U. after   22 cycles
 Normal termination of Gaussian 16 at Thu Dec 10 16:56:27 2020.
 Gaussian 16:  ES64L-G16RevA.03 25-Dec-2016

 ----------------------------------------------------------------------
 # B3LYP/6-311++G(d,p) empiricaldispersion=gd3bj scf=xqc pop=npa geom=c
 heck
 ----------------------------------------------------------------------

 -----------------------------------
 CID_57948639_JID_5476_Energie_anion
 -----------------------------------
 Structure from the checkpoint file:  "JID_5476.chk"
 Charge = -1 Multiplicity = 2

                         Standard orientation:
 ---------------------------------------------------------------------
 Center     Atomic      Atomic             Coordinates (Angstroms)
 Number     Number       Type             X           Y           Z
 ---------------------------------------------------------------------
      1          6           0        1.232216    1.923453   -0.541511
      2          6           0        1.508150    0.601277   -1.280942
      3          7           0        1.936514   -0.407528   -0.326750
      4          6           0        1.037010   -0.643848    0.801087
      5          6           0        0.737059    0.691728    1.499139
      6          7           0        0.337286    1.756841    0.587806
      7          6           0       -1.041089    2.154240    0.454312
      8          6           0       -1.931522    1.437518   -0.585536
      9          7           0       -2.113215    0.015037   -0.334080
     10          6           0       -1.922308   -1.011596   -1.240310
     11          6           0       -2.207040   -2.170202   -0.558509
     12          7           0       -2.570598   -1.887330    0.739520
     13          6           0       -2.508807   -0.573741    0.837097
     14          6           0        3.172688   -0.981205   -0.371897
     15          8           0        3.626109   -1.761166    0.449327
     16          1           0        2.198272    2.311025   -0.180963
     17          1           0        0.814774    2.666796   -1.230230
     18          1           0        2.294188    0.734784   -2.032319
     19          1           0        0.601357    0.253676   -1.793338
     20          1           0        0.119247   -1.114394    0.437766
     21          1           0        1.543087   -1.335280    1.477037
     22          1           0        1.652090    1.011379    2.021634
     23          1           0       -0.043730    0.552022    2.252100
     24          1           0       -1.509792    2.072781    1.441298
     25          1           0       -1.077935    3.221794    0.188417
     26          1           0       -2.909633    1.935702   -0.609839
     27          1           0       -1.494983    1.536406   -1.583098
     28          1           0       -1.618020   -0.815810   -2.257435
     29          1           0       -2.167437   -3.187238   -0.923470
     30          1           0       -2.739539    0.001618    1.722923
     31          1           0        3.741133   -0.660816   -1.268155
 ---------------------------------------------------------------------

 SCF Done:  E(UB3LYP) =  -685.150982207     A.U. after   30 cycles

 The electronic state is 2-A.
 Alpha  occ. eigenvalues --  -19.00053 -14.28005 -14.25530 -14.21431 -14.20468
 Alpha  occ. eigenvalues --  -10.17602 -10.12945 -10.11828 -10.11680 -10.11224
 Alpha  occ. eigenvalues --  -10.11181 -10.10734 -10.10709 -10.10702 -10.09380
 Alpha  occ. eigenvalues --   -0.94853  -0.92876  -0.86797  -0.82710  -0.79502
 Alpha  occ. eigenvalues --   -0.68673  -0.67968  -0.65072  -0.62283  -0.57369
 Alpha  occ. eigenvalues --   -0.56836  -0.51714  -0.50782  -0.48343  -0.46480
 Alpha  occ. eigenvalues --   -0.44124  -0.42335  -0.39368  -0.38974  -0.38392
 Alpha  occ. eigenvalues --   -0.37680  -0.36578  -0.35782  -0.34989  -0.33994
 Alpha  occ. eigenvalues --   -0.32860  -0.32306  -0.31159  -0.30877  -0.29620
 Alpha  occ. eigenvalues --   -0.28854  -0.28377  -0.27178  -0.26301  -0.25897
 Alpha  occ. eigenvalues --   -0.18795  -0.18493  -0.17392  -0.16540  -0.14526
 Alpha  occ. eigenvalues --   -0.11189   0.03945
 Alpha virt. eigenvalues --    0.06377   0.07207   0.07723   0.08548   0.08883
 Alpha virt. eigenvalues --    0.09492   0.09732   0.10221   0.10468   0.11039
 Alpha virt. eigenvalues --    0.11653   0.12351   0.12513   0.12830   0.13296

  Beta  occ. eigenvalues --  -19.00045 -14.28004 -14.25534 -14.21427 -14.20462
  Beta  occ. eigenvalues --  -10.17590 -10.12918 -10.11776 -10.11654 -10.11191
  Beta  occ. eigenvalues --  -10.11174 -10.10705 -10.10697 -10.10680 -10.09379
  Beta  occ. eigenvalues --   -0.94837  -0.92856  -0.86785  -0.82693  -0.79477
  Beta  occ. eigenvalues --   -0.68645  -0.67919  -0.65034  -0.62237  -0.57330
  Beta  occ. eigenvalues --   -0.56764  -0.51671  -0.50756  -0.48287  -0.46441
  Beta  occ. eigenvalues --   -0.44079  -0.42277  -0.39346  -0.38920  -0.38361
  Beta  occ. eigenvalues --   -0.37642  -0.36535  -0.35739  -0.34957  -0.33949
  Beta  occ. eigenvalues --   -0.32839  -0.32285  -0.31120  -0.30822  -0.29566
  Beta  occ. eigenvalues --   -0.28801  -0.28328  -0.27153  -0.26270  -0.25865
  Beta  occ. eigenvalues --   -0.18755  -0.18479  -0.17380  -0.16517  -0.14468
  Beta  occ. eigenvalues --   -0.11134
  Beta virt. eigenvalues --    0.06731   0.07337   0.07706   0.08230   0.08986
  Beta virt. eigenvalues --    0.09173   0.09914   0.10051   0.10662   0.10888
  Beta virt. eigenvalues --    0.11329   0.12020   0.12574   0.12943   0.13167

 Mulliken charges and spin densities:
               1          2
     1  C    0.702883  -1.091401
     2  C   -0.089556  -0.178625
     3  N    0.035823   0.042024
     4  C   -0.720821   0.256132
     5  C    0.260861  -0.426792
     6  N   -0.115402   0.226608
     7  C    0.794353  -1.271236
     8  C    0.218713  -0.366563
     9  N    0.010946   0.066207
    10  C    0.085834  -0.024791
    11  C    0.269920  -0.621134
    12  N   -0.142819   0.050485
    13  C    0.148277  -0.496326
    14  C    0.281453  -0.085457
    15  O   -0.382402   0.002574
    16  H    0.194779  -0.047569
    17  H   -0.741146   0.938274
    18  H   -0.551475   0.725662
    19  H    0.493834  -0.383989
    20  H    0.094549   0.043411
    21  H    0.206330   0.009119
    22  H    0.059330   0.110102
    23  H    0.169840  -0.038765
    24  H   -0.100875   0.251834
    25  H   -0.631813   0.823424
    26  H   -0.688010   0.915078
    27  H   -0.352377   0.521465
    28  H   -0.593202   0.765373
    29  H    0.138381  -0.001450
    30  H   -0.064229   0.205407
    31  H    0.008021   0.080918
 Sum of Mulliken charges =  -1.00000   1.00000

 Dipole moment (field-independent basis, Debye):
    X=              2.0619    Y=             -3.7704    Z=              3.1959  Tot=              5.3555
 Quadrupole moment (field-independent basis, Debye-Ang):
   XX=           -155.4454   YY=           -151.9279   ZZ=           -129.0884
   XY=             13.2041   XZ=             -2.3855   YZ=             16.4201

 Summary of Natural Population Analysis:

                                       Natural Population
                Natural  -----------------------------------------------
    Atom  No    Charge         Core      Valence    Rydberg      Total
 -----------------------------------------------------------------------
      C    1   -0.08734      0.99961     2.07508    0.01266     3.08734
      C    2   -0.09100      0.99961     2.07937    0.01203     3.09100
      N    3   -0.25015      0.99967     2.74062    0.00987     3.75015
      C    4   -0.09997      0.99960     2.09121    0.00916     3.09997
      C    5   -0.08291      0.99961     2.07336    0.00994     3.08291
      N    6   -0.28410      0.99972     2.77013    0.01425     3.78410
      C    7   -0.08053      0.99959     2.06732    0.01362     3.08053
      C    8   -0.09317      0.99959     2.08042    0.01315     3.09317
      N    9   -0.21119      0.99966     2.69820    0.01333     3.71119
      C   10   -0.03382      0.99954     2.02229    0.01199     3.03382
      C   11   -0.04197      0.99958     2.02849    0.01389     3.04197
      N   12   -0.25596      0.99973     2.74682    0.00941     3.75596
      C   13    0.10129      0.99962     1.88141    0.01768     2.89871
      C   14    0.27224      0.99969     1.70544    0.02263     2.72776
      O   15   -0.32249      0.99988     3.31655    0.00606     4.32249
      H   16    0.08957      0.00000     0.40906    0.00138     0.41043
      H   17    0.10788      0.00000     0.38933    0.00279     0.39212
      H   18    0.10128      0.00000     0.39680    0.00192     0.39872
      H   19    0.09484      0.00000     0.40276    0.00240     0.40516
      H   20    0.10406      0.00000     0.39407    0.00186     0.39594
      H   21    0.11272      0.00000     0.38617    0.00111     0.38728
      H   22    0.08932      0.00000     0.40952    0.00115     0.41068
      H   23    0.09982      0.00000     0.39922    0.00096     0.40018
      H   24    0.09526      0.00000     0.40338    0.00136     0.40474
      H   25    0.10320      0.00000     0.39429    0.00251     0.39680
      H   26    0.10541      0.00000     0.39066    0.00393     0.39459
      H   27    0.10602      0.00000     0.38911    0.00487     0.39398
      H   28    0.10848      0.00000     0.39024    0.00128     0.39152
      H   29    0.09685      0.00000     0.40233    0.00082     0.40315
      H   30    0.09511      0.00000     0.40341    0.00148     0.40489
      H   31    0.05125      0.00000     0.44687    0.00188     0.44875
 =======================================================================
   * Total *    0.00000     14.99470    40.78391    0.22138    56.00000

 Normal termination of Gaussian 16 at Thu Dec 10 17:13:16 2020.
