 Gaussian 16, Revision A.03,

 -----------------------------------------------------------
 # opt freq B3LYP/6-31G(d) empiricaldispersion=gd3bj scf=xqc
 -----------------------------------------------------------

 -------------------------------
 CID_150209123_JID_6858_neutraal
 -------------------------------
 Symbolic Z-matrix:
 Charge =  0 Multiplicity = 1

 SCF Done:  E(RB3LYP) =  -766.697242410     A.U. after   14 cycles
 SCF Done:  E(RB3LYP) =  -766.699214726     A.U. after   13 cycles
 SCF Done:  E(RB3LYP) =  -766.698775523     A.U. after   12 cycles
 SCF Done:  E(RB3LYP) =  -766.700686729     A.U. after   12 cycles
 SCF Done:  E(RB3LYP) =  -766.700885547     A.U. after   12 cycles
 SCF Done:  E(RB3LYP) =  -766.700886925     A.U. after   12 cycles
 SCF Done:  E(RB3LYP) =  -766.701000128     A.U. after   11 cycles
 SCF Done:  E(RB3LYP) =  -766.701010338     A.U. after   10 cycles
 SCF Done:  E(RB3LYP) =  -766.701013477     A.U. after    9 cycles
 SCF Done:  E(RB3LYP) =  -766.701014788     A.U. after    9 cycles
 SCF Done:  E(RB3LYP) =  -766.701031157     A.U. after   10 cycles
 SCF Done:  E(RB3LYP) =  -766.701038228     A.U. after   11 cycles
 SCF Done:  E(RB3LYP) =  -766.701039714     A.U. after    9 cycles
 SCF Done:  E(RB3LYP) =  -766.701040436     A.U. after    9 cycles
 SCF Done:  E(RB3LYP) =  -766.701040540     A.U. after    9 cycles
 SCF Done:  E(RB3LYP) =  -766.701040553     A.U. after    7 cycles
 Optimization completed.
    -- Stationary point found.
 Normal termination of Gaussian 16 at Fri Dec 11 01:01:37 2020.

 --------------------------------------------------------------------
 #N Geom=AllCheck Guess=TCheck SCRF=Check GenChk RB3LYP/6-31G(d) Freq
 --------------------------------------------------------------------

 Structure from the checkpoint file:  "JID_6858.chk"
 -------------------------------
 CID_150209123_JID_6858_neutraal
 -------------------------------
 Charge =  0 Multiplicity = 1

 SCF Done:  E(RB3LYP) =  -766.701040553     A.U. after    1 cycles

  Exact polarizability: 178.137  -0.547 164.521  -2.287   2.325  72.785
 Approx polarizability: 249.281  -5.355 262.656  -7.189   9.045 115.148

                      1                      2                      3
                      A                      A                      A
 Frequencies --     13.0285                36.7906                50.0698
 Red. masses --      2.3719                 7.8387                 7.3235
 Frc consts  --      0.0002                 0.0063                 0.0108
 IR Inten    --      0.0812                 2.6004                 0.3141

                      4                      5                      6
                      A                      A                      A
 Frequencies --     81.5605                89.1164                97.3804
 Red. masses --      4.7454                 2.1402                 3.8626
 Frc consts  --      0.0186                 0.0100                 0.0216
 IR Inten    --      0.4373                 0.1311                 0.0812

                      7                      8                      9
                      A                      A                      A
 Frequencies --    141.3254               158.3261               174.4252
 Red. masses --      1.2356                 3.3882                 4.3954
 Frc consts  --      0.0145                 0.0500                 0.0788
 IR Inten    --      0.2247                 1.3297                 0.4122

                     10                     11                     12
                      A                      A                      A
 Frequencies --    189.0435               246.8242               257.7461
 Red. masses --      5.6551                 1.0985                 3.5730
 Frc consts  --      0.1191                 0.0394                 0.1399
 IR Inten    --      1.6560                 0.0063                 0.9801

                     13                     14                     15
                      A                      A                      A
 Frequencies --    299.9044               319.7335               330.4987
 Red. masses --      3.9720                 3.6261                 7.5902
 Frc consts  --      0.2105                 0.2184                 0.4885
 IR Inten    --      0.8702                 1.1108                 0.2027

                     16                     17                     18
                      A                      A                      A
 Frequencies --    347.0225               394.5320               436.3099
 Red. masses --      5.8354                 2.7409                 5.0630
 Frc consts  --      0.4140                 0.2514                 0.5679
 IR Inten    --      0.5136                 2.0243                 3.0134

                     19                     20                     21
                      A                      A                      A
 Frequencies --    448.2720               456.2961               536.9523
 Red. masses --      7.1876                 3.4417                 2.8353
 Frc consts  --      0.8510                 0.4222                 0.4816
 IR Inten    --      4.4540                 1.7399                 4.0197

                     22                     23                     24
                      A                      A                      A
 Frequencies --    568.4481               606.6313               621.0794
 Red. masses --      4.6161                 1.6420                 2.5709
 Frc consts  --      0.8788                 0.3560                 0.5843
 IR Inten    --     12.4336                99.6040                68.2895

                     25                     26                     27
                      A                      A                      A
 Frequencies --    643.0854               656.7659               695.2865
 Red. masses --      1.3973                 4.2556                 3.7944
 Frc consts  --      0.3405                 1.0815                 1.0807
 IR Inten    --      1.9387                95.5870                17.9547

                     28                     29                     30
                      A                      A                      A
 Frequencies --    713.0461               755.4304               772.7020
 Red. masses --      2.8743                 1.1699                 3.7793
 Frc consts  --      0.8610                 0.3934                 1.3295
 IR Inten    --     52.5177                 0.2956                14.5412

                     31                     32                     33
                      A                      A                      A
 Frequencies --    793.8024               799.7164               872.9547
 Red. masses --      5.7457                 4.9221                 4.5913
 Frc consts  --      2.1331                 1.8547                 2.0614
 IR Inten    --     11.9715                39.3286                 1.9741

                     34                     35                     36
                      A                      A                      A
 Frequencies --    877.7185               918.9278               947.1143
 Red. masses --      1.3100                 2.1172                 1.4306
 Frc consts  --      0.5946                 1.0534                 0.7561
 IR Inten    --      1.5924                 2.5477                 5.2869

                     37                     38                     39
                      A                      A                      A
 Frequencies --    968.5685               981.2621              1058.6063
 Red. masses --      1.3893                 4.3258                 1.6644
 Frc consts  --      0.7679                 2.4541                 1.0989
 IR Inten    --      1.7789                 5.0950                34.7079

                     40                     41                     42
                      A                      A                      A
 Frequencies --   1063.0122              1068.8950              1122.7494
 Red. masses --      2.5961                 1.5380                 3.9082
 Frc consts  --      1.7284                 1.0353                 2.9026
 IR Inten    --      1.8210                 1.5724                52.3582

                     43                     44                     45
                      A                      A                      A
 Frequencies --   1127.8663              1139.9242              1185.3249
 Red. masses --      2.1027                 1.5189                 2.7240
 Frc consts  --      1.5760                 1.1629                 2.2549
 IR Inten    --     10.3971                 1.0115               471.9924

                     46                     47                     48
                      A                      A                      A
 Frequencies --   1196.5941              1241.1884              1261.5989
 Red. masses --      2.3604                 2.1322                 2.0756
 Frc consts  --      1.9913                 1.9353                 1.9464
 IR Inten    --    138.0777                 3.8532                31.6451

                     49                     50                     51
                      A                      A                      A
 Frequencies --   1281.0223              1285.6831              1321.3760
 Red. masses --      1.6259                 1.2895                 1.8513
 Frc consts  --      1.5720                 1.2558                 1.9045
 IR Inten    --     26.7309                 0.2352                 7.0244

                     52                     53                     54
                      A                      A                      A
 Frequencies --   1347.1141              1353.1862              1381.0853
 Red. masses --      1.0823                 2.7690                 2.3881
 Frc consts  --      1.1572                 2.9873                 2.6837
 IR Inten    --      0.3665                22.4228                76.0123

                     55                     56                     57
                      A                      A                      A
 Frequencies --   1404.1166              1413.3163              1442.9552
 Red. masses --      3.4498                 1.7910                 1.2553
 Frc consts  --      4.0073                 2.1078                 1.5399
 IR Inten    --     47.8468                21.2348                 1.7451

                     58                     59                     60
                      A                      A                      A
 Frequencies --   1448.6349              1467.1885              1500.1010
 Red. masses --      1.1891                 2.5056                 2.2445
 Frc consts  --      1.4703                 3.1779                 2.9758
 IR Inten    --      3.5365                11.4289                23.7770

                     61                     62                     63
                      A                      A                      A
 Frequencies --   1505.0246              1509.7383              1523.3433
 Red. masses --      1.2024                 1.1072                 1.2116
 Frc consts  --      1.6047                 1.4870                 1.6565
 IR Inten    --     32.0482                12.2954                15.1884

                     64                     65                     66
                      A                      A                      A
 Frequencies --   1525.2396              1530.3763              1540.5414
 Red. masses --      1.0966                 1.0405                 1.0885
 Frc consts  --      1.5030                 1.4357                 1.5221
 IR Inten    --      1.1707                 6.5397                 2.1559

                     67                     68                     69
                      A                      A                      A
 Frequencies --   1623.7601              1664.1964              1812.3414
 Red. masses --      5.9332                 5.4370                 9.6273
 Frc consts  --      9.2168                 8.8719                18.6310
 IR Inten    --     42.0279                10.2390               198.4679

                     70                     71                     72
                      A                      A                      A
 Frequencies --   1816.1220              3021.7157              3037.9567
 Red. masses --      9.3901                 1.0597                 1.0598
 Frc consts  --     18.2477                 5.7010                 5.7626
 IR Inten    --    398.0288                 8.3764                23.7458

                     73                     74                     75
                      A                      A                      A
 Frequencies --   3045.4155              3046.1363              3074.3149
 Red. masses --      1.0891                 1.0465                 1.1041
 Frc consts  --      5.9512                 5.7212                 6.1486
 IR Inten    --      9.8935                41.0323                19.9686

                     76                     77                     78
                      A                      A                      A
 Frequencies --   3080.3541              3111.4969              3119.2631
 Red. masses --      1.0486                 1.1031                 1.1019
 Frc consts  --      5.8623                 6.2924                 6.3165
 IR Inten    --      7.3817                55.1706                35.0011

                     79                     80                     81
                      A                      A                      A
 Frequencies --   3156.5821              3194.2650              3209.8597
 Red. masses --      1.0857                 1.1039                 1.0902
 Frc consts  --      6.3739                 6.6363                 6.6178
 IR Inten    --     12.0984                 6.6617                 1.7275

                     82                     83                     84
                      A                      A                      A
 Frequencies --   3255.1882              3682.7450              3698.4021
 Red. masses --      1.0893                 1.0639                 1.0642
 Frc consts  --      6.8006                 8.5013                 8.5760
 IR Inten    --      0.9436                70.9132                73.7425

 - Thermochemistry -
 -------------------
 Temperature   298.150 Kelvin.  Pressure   1.00000 Atm.
 Atom     1 has atomic number  6 and mass  12.00000

 Molecular mass:   222.08921 amu.
 Principal axes and moments of inertia in atomic units:
                           1         2         3
     Eigenvalues --  3173.587674659.844547710.23124
           X            0.99827  -0.05877   0.00203
           Y            0.05877   0.99826  -0.00368
           Z           -0.00181   0.00380   0.99999
 This molecule is an asymmetric top.
 Rotational symmetry number  1.
 Warning -- assumption of classical behavior for rotation
           may cause significant error
 Rotational temperatures (Kelvin)      0.02729     0.01859     0.01123
 Rotational constants (GHZ):           0.56868     0.38730     0.23407
 Zero-point vibrational energy     641160.2 (Joules/Mol)
                                  153.24097 (Kcal/Mol)
 Warning -- explicit consideration of  23 degrees of freedom as
           vibrations may cause significant error
 Vibrational temperatures:     18.75    52.93    72.04   117.35   128.22
          (Kelvin)            140.11   203.34   227.80   250.96   271.99
                              355.12   370.84   431.50   460.03   475.51
                              499.29   567.64   627.75   644.96   656.51
                              772.55   817.87   872.81   893.59   925.26
                              944.94  1000.36  1025.91  1086.90  1111.75
                             1142.10  1150.61  1255.99  1262.84  1322.13
                             1362.69  1393.55  1411.82  1523.10  1529.44
                             1537.90  1615.39  1622.75  1640.10  1705.42
                             1721.63  1785.79  1815.16  1843.11  1849.81
                             1901.17  1938.20  1946.93  1987.07  2020.21
                             2033.45  2076.09  2084.26  2110.96  2158.31
                             2165.39  2172.18  2191.75  2194.48  2201.87
                             2216.50  2336.23  2394.41  2607.56  2612.99
                             4347.57  4370.94  4381.67  4382.71  4423.25
                             4431.94  4476.75  4487.92  4541.62  4595.83
                             4618.27  4683.49  5298.65  5321.18

 Zero-point correction=                           0.244205 (Hartree/Particle)
 Thermal correction to Energy=                    0.260181
 Thermal correction to Enthalpy=                  0.261125
 Thermal correction to Gibbs Free Energy=         0.198538
 Sum of electronic and zero-point Energies=           -766.456836
 Sum of electronic and thermal Energies=              -766.440859
 Sum of electronic and thermal Enthalpies=            -766.439915
 Sum of electronic and thermal Free Energies=         -766.502502

                     E (Thermal)             CV                S
                      KCal/Mol        Cal/Mol-Kelvin    Cal/Mol-Kelvin
 Total                  163.266             58.609            131.726
 Electronic               0.000              0.000              0.000
 Translational            0.889              2.981             42.096
 Rotational               0.889              2.981             33.100
 Vibrational            161.489             52.647             56.530
 Vibration     1          0.593              1.987              7.485
 Vibration     2          0.594              1.982              5.425
 Vibration     3          0.595              1.978              4.815
 Vibration     4          0.600              1.962              3.853
 Vibration     5          0.602              1.957              3.679
 Vibration     6          0.603              1.951              3.506
 Vibration     7          0.615              1.912              2.786
 Vibration     8          0.621              1.893              2.570
 Vibration     9          0.627              1.874              2.387
 Vibration    10          0.633              1.855              2.237
 Vibration    11          0.661              1.768              1.753
 Vibration    12          0.667              1.750              1.677
 Vibration    13          0.692              1.674              1.417
 Vibration    14          0.706              1.636              1.311
 Vibration    15          0.713              1.615              1.258
 Vibration    16          0.725              1.581              1.180
 Vibration    17          0.761              1.482              0.983
 Vibration    18          0.797              1.391              0.838
 Vibration    19          0.807              1.365              0.801
 Vibration    20          0.815              1.347              0.777
 Vibration    21          0.892              1.168              0.572
 Vibration    22          0.924              1.100              0.507
 Vibration    23          0.965              1.018              0.438

 Optimization completed.
    -- Stationary point found.
 Normal termination of Gaussian 16 at Fri Dec 11 01:10:44 2020.

 ----------------------------------------------------------------------
 # B3LYP/6-311++G(d,p) empiricaldispersion=gd3bj scf=xqc pop=npa geom=c
 heck
 ----------------------------------------------------------------------

 ---------------------------------------
 CID_150209123_JID_6858_Energie_neutraal
 ---------------------------------------
 Structure from the checkpoint file:  "JID_6858.chk"
 Charge =  0 Multiplicity = 1

 SCF Done:  E(RB3LYP) =  -766.930362690     A.U. after   16 cycles
 Normal termination of Gaussian 16 at Fri Dec 11 01:14:33 2020.

 ----------------------------------------------------------------------
 # B3LYP/6-311++G(d,p) empiricaldispersion=gd3bj scf=xqc pop=npa geom=c
 heck
 ----------------------------------------------------------------------

 -------------------------------------
 CID_150209123_JID_6858_Energie_kation
 -------------------------------------
 Structure from the checkpoint file:  "JID_6858.chk"
 Charge =  1 Multiplicity = 2

 SCF Done:  E(UB3LYP) =  -766.605721261     A.U. after   26 cycles
 Normal termination of Gaussian 16 at Fri Dec 11 01:22:39 2020.
 Gaussian 16:  ES64L-G16RevA.03 25-Dec-2016

 ----------------------------------------------------------------------
 # B3LYP/6-311++G(d,p) empiricaldispersion=gd3bj scf=xqc pop=npa geom=c
 heck
 ----------------------------------------------------------------------

 ------------------------------------
 CID_150209123_JID_6858_Energie_anion
 ------------------------------------
 Structure from the checkpoint file:  "JID_6858.chk"
 Charge = -1 Multiplicity = 2

                         Standard orientation:
 ---------------------------------------------------------------------
 Center     Atomic      Atomic             Coordinates (Angstroms)
 Number     Number       Type             X           Y           Z
 ---------------------------------------------------------------------
      1          6           0        5.119995   -1.071444    0.071419
      2          6           0        3.774621   -0.342768    0.046540
      3          6           0        2.593315   -1.315764    0.059962
      4          6           0        1.212031   -0.691671    0.018171
      5          6           0        0.084618   -1.511434   -0.017991
      6          6           0       -1.214701   -0.993911   -0.049399
      7          6           0       -1.445172    0.401332   -0.086165
      8          6           0       -0.299809    1.228148   -0.026724
      9          6           0        0.993792    0.682399    0.020261
     10          6           0       -0.422068    2.711477    0.028400
     11          8           0       -1.415166    3.347150    0.323500
     12          8           0        0.746467    3.343943   -0.272522
     13          6           0       -2.830738    0.980352   -0.251580
     14          6           0       -2.278485   -2.043421   -0.027918
     15          8           0       -2.110179   -3.189987   -0.394712
     16          8           0       -3.457184   -1.641550    0.508141
     17          1           0        5.216318   -1.692835    0.969833
     18          1           0        5.955461   -0.363403    0.063170
     19          1           0        5.229275   -1.728839   -0.799402
     20          1           0        3.707531    0.330863    0.910983
     21          1           0        3.717142    0.293146   -0.846649
     22          1           0        2.664722   -1.950437    0.955079
     23          1           0        2.688940   -2.004501   -0.791548
     24          1           0        0.195551   -2.591477   -0.019169
     25          1           0        1.831529    1.365546    0.058626
     26          1           0        0.555653    4.293519   -0.161726
     27          1           0       -3.489314    0.278188   -0.760204
     28          1           0       -3.279611    1.208208    0.721256
     29          1           0       -2.797340    1.915852   -0.807524
     30          1           0       -4.031758   -2.430042    0.482166
 ---------------------------------------------------------------------

 SCF Done:  E(UB3LYP) =  -766.943731969     A.U. after   25 cycles

 The electronic state is 2-A.
 Alpha  occ. eigenvalues --  -19.03482 -19.02731 -18.96412 -18.95523 -10.15139
 Alpha  occ. eigenvalues --  -10.14187 -10.06989 -10.06205 -10.05269 -10.05169
 Alpha  occ. eigenvalues --  -10.03075 -10.02748 -10.02487 -10.02297 -10.00810
 Alpha  occ. eigenvalues --  -10.00195  -0.97249  -0.96404  -0.87629  -0.86906
 Alpha  occ. eigenvalues --   -0.71915  -0.68706  -0.63755  -0.62219  -0.58588
 Alpha  occ. eigenvalues --   -0.54426  -0.51298  -0.50604  -0.48630  -0.43751
 Alpha  occ. eigenvalues --   -0.42434  -0.37615  -0.36280  -0.35506  -0.34887
 Alpha  occ. eigenvalues --   -0.33156  -0.32521  -0.32467  -0.31550  -0.31111
 Alpha  occ. eigenvalues --   -0.29835  -0.29150  -0.28399  -0.27587  -0.27140
 Alpha  occ. eigenvalues --   -0.25418  -0.25164  -0.24195  -0.23480  -0.22953
 Alpha  occ. eigenvalues --   -0.20724  -0.20379  -0.19541  -0.18923  -0.18330
 Alpha  occ. eigenvalues --   -0.14515  -0.13160  -0.11422  -0.10067   0.04582
 Alpha virt. eigenvalues --    0.07085   0.08953   0.09118   0.09830   0.10027
 Alpha virt. eigenvalues --    0.10251   0.11025   0.11671   0.12760   0.13126
 Alpha virt. eigenvalues --    0.13366   0.14323   0.14768   0.15128   0.15758

  Beta  occ. eigenvalues --  -19.03435 -19.02704 -18.96302 -18.95295 -10.14971
  Beta  occ. eigenvalues --  -10.13990 -10.06990 -10.06201 -10.05258 -10.05208
  Beta  occ. eigenvalues --  -10.03229 -10.02691 -10.02384 -10.02296 -10.00405
  Beta  occ. eigenvalues --   -9.99690  -0.97080  -0.96200  -0.87445  -0.86585
  Beta  occ. eigenvalues --   -0.71583  -0.68665  -0.63598  -0.61580  -0.58505
  Beta  occ. eigenvalues --   -0.54175  -0.50667  -0.50381  -0.48483  -0.43378
  Beta  occ. eigenvalues --   -0.42291  -0.37453  -0.36267  -0.35334  -0.34676
  Beta  occ. eigenvalues --   -0.32991  -0.32171  -0.32095  -0.31287  -0.30507
  Beta  occ. eigenvalues --   -0.29450  -0.29109  -0.28229  -0.27446  -0.27036
  Beta  occ. eigenvalues --   -0.25286  -0.25006  -0.24152  -0.23388  -0.22865
  Beta  occ. eigenvalues --   -0.20376  -0.19682  -0.19347  -0.18289  -0.17487
  Beta  occ. eigenvalues --   -0.14308  -0.12935  -0.09558  -0.09042
  Beta virt. eigenvalues --    0.07048   0.08929   0.09091   0.09971   0.10065
  Beta virt. eigenvalues --    0.10711   0.10899   0.11005   0.11638   0.12762
  Beta virt. eigenvalues --    0.13210   0.13440   0.14385   0.14747   0.15112

 Mulliken charges and spin densities:
               1          2
     1  C   -0.743485  -0.000851
     2  C   -0.075757  -0.015970
     3  C   -0.570174   0.016588
     4  C    1.926093  -0.110589
     5  C    0.146050   0.455781
     6  C    0.196314  -0.034711
     7  C   -0.025585  -0.039012
     8  C   -0.332632   0.012817
     9  C   -2.072525   0.326401
    10  C    0.129657   0.162275
    11  O   -0.369442   0.076574
    12  O   -0.206024   0.005411
    13  C   -0.647365   0.005779
    14  C    0.023620   0.113172
    15  O   -0.350926   0.040762
    16  O   -0.194361   0.010165
    17  H    0.127365   0.001035
    18  H    0.125395   0.000390
    19  H    0.130533   0.000135
    20  H    0.130956   0.009634
    21  H    0.144720   0.003676
    22  H    0.133452   0.002491
    23  H    0.128078   0.002805
    24  H    0.144074  -0.030932
    25  H    0.081606  -0.018284
    26  H    0.256248   0.002776
    27  H    0.148802   0.000058
    28  H    0.186526  -0.000861
    29  H    0.165120  -0.000785
    30  H    0.263669   0.003268
 Sum of Mulliken charges =  -1.00000   1.00000

 Dipole moment (field-independent basis, Debye):
    X=              3.3221    Y=              0.2157    Z=              0.2197  Tot=              3.3363
 Quadrupole moment (field-independent basis, Debye-Ang):
   XX=           -115.3697   YY=           -130.8712   ZZ=           -103.0296
   XY=              3.3626   XZ=              0.2718   YZ=             -4.9939

 Summary of Natural Population Analysis:

                                       Natural Population
                Natural  -----------------------------------------------
    Atom  No    Charge         Core      Valence    Rydberg      Total
 -----------------------------------------------------------------------
      C    1   -0.28220      0.99967     2.27871    0.00382     3.28220
      C    2   -0.19131      0.99965     2.18520    0.00646     3.19131
      C    3   -0.18778      0.99960     2.18098    0.00720     3.18778
      C    4   -0.06229      0.99953     2.05361    0.00916     3.06229
      C    5    0.03885      0.99941     1.95325    0.00848     2.96115
      C    6   -0.08778      0.99942     2.07848    0.00988     3.08778
      C    7    0.01889      0.99949     1.97432    0.00731     2.98111
      C    8   -0.07824      0.99943     2.06920    0.00961     3.07824
      C    9    0.00370      0.99943     1.98897    0.00789     2.99630
      C   10    0.42035      0.99966     1.55424    0.02575     2.57965
      O   11   -0.31103      0.99987     3.30455    0.00661     4.31103
      O   12   -0.35656      0.99988     3.34942    0.00726     4.35656
      C   13   -0.29105      0.99958     2.28625    0.00522     3.29105
      C   14    0.42238      0.99966     1.55383    0.02413     2.57762
      O   15   -0.32237      0.99987     3.31547    0.00703     4.32237
      O   16   -0.34805      0.99988     3.34186    0.00630     4.34805
      H   17    0.09237      0.00000     0.40657    0.00106     0.40763
      H   18    0.09297      0.00000     0.40618    0.00085     0.40703
      H   19    0.09251      0.00000     0.40643    0.00106     0.40749
      H   20    0.09494      0.00000     0.40365    0.00140     0.40506
      H   21    0.09565      0.00000     0.40293    0.00142     0.40435
      H   22    0.09342      0.00000     0.40526    0.00132     0.40658
      H   23    0.09396      0.00000     0.40476    0.00129     0.40604
      H   24    0.09466      0.00000     0.40375    0.00159     0.40534
      H   25    0.09641      0.00000     0.40214    0.00145     0.40359
      H   26    0.22829      0.00000     0.26666    0.00504     0.27171
      H   27    0.09908      0.00000     0.39974    0.00118     0.40092
      H   28    0.10467      0.00000     0.39396    0.00137     0.39533
      H   29    0.10755      0.00000     0.39130    0.00115     0.39245
      H   30    0.22801      0.00000     0.26658    0.00541     0.27199
 =======================================================================
   * Total *    0.00001     15.99404    42.82827    0.17768    58.99999

 Normal termination of Gaussian 16 at Fri Dec 11 01:30:38 2020.
