 Gaussian 16, Revision A.03,

 -----------------------------------------------------------
 # opt freq B3LYP/6-31G(d) empiricaldispersion=gd3bj scf=xqc
 -----------------------------------------------------------

 -------------------------------
 CID_80832185_JID_10921_neutraal
 -------------------------------
 Symbolic Z-matrix:
 Charge =  0 Multiplicity = 1

 SCF Done:  E(RB3LYP) =  -879.158284389     A.U. after   15 cycles
 SCF Done:  E(RB3LYP) =  -879.164451534     A.U. after   13 cycles
 SCF Done:  E(RB3LYP) =  -879.167275908     A.U. after   13 cycles
 SCF Done:  E(RB3LYP) =  -879.169995879     A.U. after   13 cycles
 SCF Done:  E(RB3LYP) =  -879.172196436     A.U. after   13 cycles
 SCF Done:  E(RB3LYP) =  -879.174136357     A.U. after   12 cycles
 SCF Done:  E(RB3LYP) =  -879.174203952     A.U. after   13 cycles
 SCF Done:  E(RB3LYP) =  -879.175566183     A.U. after   12 cycles
 SCF Done:  E(RB3LYP) =  -879.177002463     A.U. after   13 cycles
 SCF Done:  E(RB3LYP) =  -879.179715420     A.U. after   12 cycles
 SCF Done:  E(RB3LYP) =  -879.193256570     A.U. after    7 cycles
 SCF Done:  E(RB3LYP) =  -879.193256855     A.U. after    7 cycles
 SCF Done:  E(RB3LYP) =  -879.193257086     A.U. after    7 cycles
 SCF Done:  E(RB3LYP) =  -879.193257319     A.U. after    7 cycles
 SCF Done:  E(RB3LYP) =  -879.193257381     A.U. after    7 cycles
 Optimization completed.
    -- Stationary point found.
 Normal termination of Gaussian 16 at Sat Dec 12 17:06:08 2020.

 --------------------------------------------------------------------
 #N Geom=AllCheck Guess=TCheck SCRF=Check GenChk RB3LYP/6-31G(d) Freq
 --------------------------------------------------------------------

 Structure from the checkpoint file:  "JID_10921.chk"
 -------------------------------
 CID_80832185_JID_10921_neutraal
 -------------------------------
 Charge =  0 Multiplicity = 1

 SCF Done:  E(RB3LYP) =  -879.193257381     A.U. after    1 cycles

  Exact polarizability: 244.888 -16.717 230.713   6.542   8.386 110.556
 Approx polarizability: 349.054 -22.752 374.285  14.321  21.338 164.362

                      1                      2                      3
                      A                      A                      A
 Frequencies --     32.2113                36.0296                54.5320
 Red. masses --      4.3350                 3.8625                 3.4459
 Frc consts  --      0.0027                 0.0030                 0.0060
 IR Inten    --      0.2586                 0.1129                 1.2135

                      4                      5                      6
                      A                      A                      A
 Frequencies --     78.1385               101.3830               115.5238
 Red. masses --      3.2714                 3.3538                 1.5876
 Frc consts  --      0.0118                 0.0203                 0.0125
 IR Inten    --      9.3913                 1.5364                 0.2932

                      7                      8                      9
                      A                      A                      A
 Frequencies --    123.1147               154.9607               159.9391
 Red. masses --      2.3239                 2.5232                 2.2076
 Frc consts  --      0.0208                 0.0357                 0.0333
 IR Inten    --      0.0174                 1.1999                 2.7074

                     10                     11                     12
                      A                      A                      A
 Frequencies --    180.7087               188.2349               207.2256
 Red. masses --      2.7026                 3.0370                 2.5160
 Frc consts  --      0.0520                 0.0634                 0.0637
 IR Inten    --      2.4839                 0.7628                 0.8000

                     13                     14                     15
                      A                      A                      A
 Frequencies --    218.4205               227.4220               238.7071
 Red. masses --      2.8104                 1.1360                 3.4077
 Frc consts  --      0.0790                 0.0346                 0.1144
 IR Inten    --      3.9808                 0.1963                 3.8297

                     16                     17                     18
                      A                      A                      A
 Frequencies --    257.4167               265.4341               293.5183
 Red. masses --      2.3789                 2.9215                 5.3302
 Frc consts  --      0.0929                 0.1213                 0.2706
 IR Inten    --      1.7373                 1.7208                 1.6585

                     19                     20                     21
                      A                      A                      A
 Frequencies --    311.0964               343.8190               361.8715
 Red. masses --      2.0949                 2.4155                 1.8313
 Frc consts  --      0.1195                 0.1682                 0.1413
 IR Inten    --      0.3464                 0.0403                 7.0716

                     22                     23                     24
                      A                      A                      A
 Frequencies --    375.6550               389.3246               441.1889
 Red. masses --      3.0234                 2.6768                 4.1421
 Frc consts  --      0.2514                 0.2391                 0.4750
 IR Inten    --      8.0506                23.5097                 4.9265

                     25                     26                     27
                      A                      A                      A
 Frequencies --    455.4931               459.7447               480.0939
 Red. masses --      1.8022                 1.6764                 2.7918
 Frc consts  --      0.2203                 0.2088                 0.3791
 IR Inten    --     86.3898                10.5806                 7.6530

                     28                     29                     30
                      A                      A                      A
 Frequencies --    520.6944               541.8003               553.9386
 Red. masses --      3.5893                 3.2700                 5.5122
 Frc consts  --      0.5734                 0.5656                 0.9966
 IR Inten    --      3.5508                13.0429                 7.6237

                     31                     32                     33
                      A                      A                      A
 Frequencies --    593.5294               621.9767               659.9667
 Red. masses --      3.1078                 5.8627                 5.3625
 Frc consts  --      0.6450                 1.3363                 1.3761
 IR Inten    --      0.2221                 2.5402                 9.7657

                     34                     35                     36
                      A                      A                      A
 Frequencies --    682.1900               700.2140               733.8363
 Red. masses --      4.1539                 4.2474                 2.3351
 Frc consts  --      1.1390                 1.2270                 0.7409
 IR Inten    --      3.3464                18.2962                17.3710

                     37                     38                     39
                      A                      A                      A
 Frequencies --    739.9723               754.1325               759.6943
 Red. masses --      3.3955                 1.5025                 1.5235
 Frc consts  --      1.0954                 0.5034                 0.5180
 IR Inten    --      0.6953                28.3237                92.3864

                     40                     41                     42
                      A                      A                      A
 Frequencies --    784.7796               797.6716               808.9650
 Red. masses --      1.3851                 4.3953                 1.5720
 Frc consts  --      0.5026                 1.6477                 0.6061
 IR Inten    --      5.4461                22.8084                 8.0918

                     43                     44                     45
                      A                      A                      A
 Frequencies --    824.7564               866.1332               888.5132
 Red. masses --      2.6863                 1.5799                 4.0049
 Frc consts  --      1.0766                 0.6983                 1.8628
 IR Inten    --      5.1421                 6.8233                 1.3526

                     46                     47                     48
                      A                      A                      A
 Frequencies --    915.4497               924.2403               962.6958
 Red. masses --      2.8917                 1.3367                 1.8357
 Frc consts  --      1.4278                 0.6728                 1.0024
 IR Inten    --      2.4790                 1.0187                 4.0365

                     49                     50                     51
                      A                      A                      A
 Frequencies --    992.2335               995.0438              1016.4813
 Red. masses --      1.2810                 2.1477                 2.2777
 Frc consts  --      0.7431                 1.2529                 1.3866
 IR Inten    --      0.2933                 5.6666                 5.3499

                     52                     53                     54
                      A                      A                      A
 Frequencies --   1027.4799              1061.3287              1064.7875
 Red. masses --      2.2689                 2.1009                 2.2955
 Frc consts  --      1.4113                 1.3943                 1.5334
 IR Inten    --     12.4126                 2.9648                 2.2186

                     55                     56                     57
                      A                      A                      A
 Frequencies --   1067.4544              1097.3073              1112.2085
 Red. masses --      1.9535                 2.1278                 2.1605
 Frc consts  --      1.3115                 1.5095                 1.5746
 IR Inten    --      3.9742                11.5614                21.3382

                     58                     59                     60
                      A                      A                      A
 Frequencies --   1136.2172              1154.8650              1158.0708
 Red. masses --      4.5652                 2.0241                 1.3143
 Frc consts  --      3.4724                 1.5905                 1.0386
 IR Inten    --     40.4722                 7.0535                18.2210

                     61                     62                     63
                      A                      A                      A
 Frequencies --   1182.1206              1193.0677              1206.0526
 Red. masses --      1.7656                 1.4221                 2.1093
 Frc consts  --      1.4537                 1.1926                 1.8077
 IR Inten    --     53.4210                 1.6041                 2.4114

                     64                     65                     66
                      A                      A                      A
 Frequencies --   1211.1862              1223.3797              1228.3655
 Red. masses --      2.3019                 2.6646                 2.2093
 Frc consts  --      1.9896                 2.3497                 1.9641
 IR Inten    --      6.4939                 7.7010                 3.6729

                     67                     68                     69
                      A                      A                      A
 Frequencies --   1288.0995              1300.0276              1309.6801
 Red. masses --      1.7737                 1.2554                 2.7899
 Frc consts  --      1.7339                 1.2500                 2.8195
 IR Inten    --     17.8192                14.4207                59.4849

                     70                     71                     72
                      A                      A                      A
 Frequencies --   1326.8663              1338.2646              1352.9113
 Red. masses --      1.2553                 1.2332                 2.0442
 Frc consts  --      1.3021                 1.3013                 2.2045
 IR Inten    --      7.9594                 4.0740                 3.2919

                     73                     74                     75
                      A                      A                      A
 Frequencies --   1389.3072              1401.9252              1406.9965
 Red. masses --      1.4986                 1.6840                 3.2783
 Frc consts  --      1.7043                 1.9500                 3.8237
 IR Inten    --     26.0046                 1.3342                 7.8792

                     76                     77                     78
                      A                      A                      A
 Frequencies --   1419.2317              1439.9084              1442.0747
 Red. masses --      1.4549                 2.3445                 1.2701
 Frc consts  --      1.7266                 2.8640                 1.5563
 IR Inten    --      5.1336               135.9937                21.0695

                     79                     80                     81
                      A                      A                      A
 Frequencies --   1448.9115              1455.5143              1478.3427
 Red. masses --      1.2851                 1.8271                 1.9044
 Frc consts  --      1.5895                 2.2806                 2.4523
 IR Inten    --      9.9855                58.1932               101.1626

                     82                     83                     84
                      A                      A                      A
 Frequencies --   1506.0735              1512.8370              1516.4323
 Red. masses --      1.7062                 1.0890                 1.0615
 Frc consts  --      2.2801                 1.4685                 1.4382
 IR Inten    --      6.3817                11.4895                17.4968

                     85                     86                     87
                      A                      A                      A
 Frequencies --   1520.8721              1525.9691              1527.9068
 Red. masses --      1.0891                 1.1787                 1.0813
 Frc consts  --      1.4843                 1.6172                 1.4873
 IR Inten    --     10.9159                 4.0816                 8.8685

                     88                     89                     90
                      A                      A                      A
 Frequencies --   1532.5224              1536.4340              1537.8758
 Red. masses --      1.0712                 1.0606                 1.0764
 Frc consts  --      1.4822                 1.4751                 1.5000
 IR Inten    --      2.2514                 1.6539                 2.9517

                     91                     92                     93
                      A                      A                      A
 Frequencies --   1545.2185              1547.3013              1573.9890
 Red. masses --      1.0703                 1.9836                 1.2793
 Frc consts  --      1.5057                 2.7980                 1.8674
 IR Inten    --      2.9133                73.3953               141.7518

                     94                     95                     96
                      A                      A                      A
 Frequencies --   1587.8946              1589.8021              1623.5018
 Red. masses --      2.3300                 2.9476                 6.1195
 Frc consts  --      3.4613                 4.3893                 9.5033
 IR Inten    --    421.7393               120.6940               225.2376

                     97                     98                     99
                      A                      A                      A
 Frequencies --   1658.5612              1683.1283              2980.4130
 Red. masses --      3.6017                 5.7119                 1.0722
 Frc consts  --      5.8374                 9.5337                 5.6115
 IR Inten    --    902.2654                45.0923                68.8271

                    100                    101                    102
                      A                      A                      A
 Frequencies --   3025.1909              3043.3844              3050.7933
 Red. masses --      1.0605                 1.0431                 1.0376
 Frc consts  --      5.7185                 5.6924                 5.6898
 IR Inten    --     24.4759                56.8837                18.7215

                    103                    104                    105
                      A                      A                      A
 Frequencies --   3059.2929              3062.8717              3074.4618
 Red. masses --      1.1005                 1.0372                 1.0705
 Frc consts  --      6.0687                 5.7330                 5.9617
 IR Inten    --     31.8027                14.4805                17.0125

                    106                    107                    108
                      A                      A                      A
 Frequencies --   3098.1031              3108.2039              3111.0658
 Red. masses --      1.0901                 1.0992                 1.0940
 Frc consts  --      6.1647                 6.2568                 6.2388
 IR Inten    --     79.5352                22.7857                24.2088

                    109                    110                    111
                      A                      A                      A
 Frequencies --   3120.8275              3126.4147              3136.5778
 Red. masses --      1.1012                 1.1006                 1.1014
 Frc consts  --      6.3191                 6.3384                 6.3843
 IR Inten    --     32.7036                33.6792                36.5377

                    112                    113                    114
                      A                      A                      A
 Frequencies --   3141.5043              3150.4478              3169.6591
 Red. masses --      1.0955                 1.1036                 1.0868
 Frc consts  --      6.3698                 6.4538                 6.4330
 IR Inten    --     22.9917                25.6871                15.3807

                    115                    116                    117
                      A                      A                      A
 Frequencies --   3189.8172              3209.9116              3220.8353
 Red. masses --      1.0879                 1.0936                 1.0951
 Frc consts  --      6.5220                 6.6388                 6.6933
 IR Inten    --     14.0047                24.1758                16.0364

                    118                    119                    120
                      A                      A                      A
 Frequencies --   3436.3070              3645.7889              3648.6560
 Red. masses --      1.0668                 1.0752                 1.0768
 Frc consts  --      7.4222                 8.4205                 8.4460
 IR Inten    --    649.0074                23.4727                56.7959

 - Thermochemistry -
 -------------------
 Temperature   298.150 Kelvin.  Pressure   1.00000 Atm.
 Atom     1 has atomic number  6 and mass  12.00000

 Molecular mass:   274.17936 amu.
 Principal axes and moments of inertia in atomic units:
                           1         2         3
     Eigenvalues --  3891.628746760.984819524.70826
           X            0.99975   0.02201  -0.00297
           Y           -0.02202   0.99976  -0.00118
           Z            0.00295   0.00124   0.99999
 This molecule is an asymmetric top.
 Rotational symmetry number  1.
 Warning -- assumption of classical behavior for rotation
           may cause significant error
 Rotational temperatures (Kelvin)      0.02226     0.01281     0.00909
 Rotational constants (GHZ):           0.46375     0.26693     0.18948
 Zero-point vibrational energy     953716.3 (Joules/Mol)
                                  227.94367 (Kcal/Mol)
 Warning -- explicit consideration of  31 degrees of freedom as
           vibrations may cause significant error
 Vibrational temperatures:     46.34    51.84    78.46   112.42   145.87
          (Kelvin)            166.21   177.13   222.95   230.12   260.00
                              270.83   298.15   314.26   327.21   343.45
                              370.37   381.90   422.31   447.60   494.68
                              520.65   540.48   560.15   634.77   655.35
                              661.47   690.75   749.16   779.53   796.99
                              853.96   894.89   949.54   981.52  1007.45
                             1055.83  1064.66  1085.03  1093.03  1129.12
                             1147.67  1163.92  1186.64  1246.17  1278.37
                             1317.13  1329.78  1385.10  1427.60  1431.65
                             1462.49  1478.31  1527.02  1531.99  1535.83
                             1578.78  1600.22  1634.76  1661.59  1666.21
                             1700.81  1716.56  1735.24  1742.63  1760.17
                             1767.34  1853.29  1870.45  1884.34  1909.06
                             1925.46  1946.54  1998.90  2017.06  2024.35
                             2041.96  2071.71  2074.82  2084.66  2094.16
                             2127.01  2166.90  2176.64  2181.81  2188.20
                             2195.53  2198.32  2204.96  2210.59  2212.66
                             2223.22  2226.22  2264.62  2284.63  2287.37
                             2335.86  2386.30  2421.65  4288.15  4352.57
                             4378.75  4389.41  4401.64  4406.79  4423.46
                             4457.48  4472.01  4476.13  4490.17  4498.21
                             4512.84  4519.92  4532.79  4560.43  4589.44
                             4618.35  4634.06  4944.08  5245.48  5249.60

 Zero-point correction=                           0.363251 (Hartree/Particle)
 Thermal correction to Energy=                    0.383101
 Thermal correction to Enthalpy=                  0.384046
 Thermal correction to Gibbs Free Energy=         0.315309
 Sum of electronic and zero-point Energies=           -878.830006
 Sum of electronic and thermal Energies=              -878.810156
 Sum of electronic and thermal Enthalpies=            -878.809212
 Sum of electronic and thermal Free Energies=         -878.877948

                     E (Thermal)             CV                S
                      KCal/Mol        Cal/Mol-Kelvin    Cal/Mol-Kelvin
 Total                  240.400             76.485            144.668
 Electronic               0.000              0.000              0.000
 Translational            0.889              2.981             42.724
 Rotational               0.889              2.981             33.882
 Vibrational            238.622             70.523             68.061
 Vibration     1          0.594              1.983              5.688
 Vibration     2          0.594              1.982              5.466
 Vibration     3          0.596              1.976              4.646
 Vibration     4          0.599              1.964              3.937
 Vibration     5          0.604              1.948              3.428
 Vibration     6          0.608              1.937              3.174
 Vibration     7          0.610              1.930              3.051
 Vibration     8          0.620              1.897              2.610
 Vibration     9          0.622              1.891              2.551
 Vibration    10          0.630              1.866              2.321
 Vibration    11          0.633              1.856              2.245
 Vibration    12          0.641              1.830              2.068
 Vibration    13          0.646              1.813              1.972
 Vibration    14          0.651              1.799              1.899
 Vibration    15          0.657              1.781              1.812
 Vibration    16          0.667              1.750              1.679
 Vibration    17          0.671              1.736              1.626
 Vibration    18          0.688              1.686              1.454
 Vibration    19          0.700              1.653              1.356
 Vibration    20          0.723              1.588              1.194
 Vibration    21          0.736              1.551              1.114
 Vibration    22          0.746              1.522              1.057
 Vibration    23          0.757              1.493              1.003
 Vibration    24          0.801              1.380              0.823
 Vibration    25          0.814              1.349              0.779
 Vibration    26          0.818              1.339              0.767
 Vibration    27          0.836              1.294              0.710
 Vibration    28          0.876              1.204              0.608
 Vibration    29          0.897              1.158              0.561
 Vibration    30          0.909              1.131              0.536
 Vibration    31          0.951              1.046              0.461

 Optimization completed.
    -- Stationary point found.
 Normal termination of Gaussian 16 at Sat Dec 12 17:29:06 2020.

 ----------------------------------------------------------------------
 # B3LYP/6-311++G(d,p) empiricaldispersion=gd3bj scf=xqc pop=npa geom=c
 heck
 ----------------------------------------------------------------------

 ---------------------------------------
 CID_80832185_JID_10921_Energie_neutraal
 ---------------------------------------
 Structure from the checkpoint file:  "JID_10921.chk"
 Charge =  0 Multiplicity = 1

 SCF Done:  E(RB3LYP) =  -879.440698210     A.U. after   16 cycles
 Normal termination of Gaussian 16 at Sat Dec 12 17:39:19 2020.

 ----------------------------------------------------------------------
 # B3LYP/6-311++G(d,p) empiricaldispersion=gd3bj scf=xqc pop=npa geom=c
 heck
 ----------------------------------------------------------------------

 -------------------------------------
 CID_80832185_JID_10921_Energie_kation
 -------------------------------------
 Structure from the checkpoint file:  "JID_10921.chk"
 Charge =  1 Multiplicity = 2

 SCF Done:  E(UB3LYP) =  -879.176178402     A.U. after   23 cycles
 Normal termination of Gaussian 16 at Sat Dec 12 17:59:14 2020.
 Gaussian 16:  ES64L-G16RevA.03 25-Dec-2016

 ----------------------------------------------------------------------
 # B3LYP/6-311++G(d,p) empiricaldispersion=gd3bj scf=xqc pop=npa geom=c
 heck
 ----------------------------------------------------------------------

 ------------------------------------
 CID_80832185_JID_10921_Energie_anion
 ------------------------------------
 Structure from the checkpoint file:  "JID_10921.chk"
 Charge = -1 Multiplicity = 2

                         Standard orientation:
 ---------------------------------------------------------------------
 Center     Atomic      Atomic             Coordinates (Angstroms)
 Number     Number       Type             X           Y           Z
 ---------------------------------------------------------------------
      1          6           0       -2.010428   -1.123686    2.272107
      2          6           0       -2.389837   -0.050352    1.250485
      3          6           0       -2.196955   -0.466806   -0.222229
      4          6           0       -3.006988   -1.734187   -0.592826
      5          6           0       -4.491084   -1.720839   -0.221355
      6          6           0       -2.626954    0.679396   -1.178338
      7          8           0       -2.250574    1.970238   -0.770874
      8          7           0       -0.784956   -0.861955   -0.468115
      9          6           0        0.356041   -0.161910   -0.242581
     10          7           0        0.296632    1.159248   -0.103591
     11          6           0        1.465419    1.833801    0.101896
     12          7           0        2.687876    1.320245    0.136471
     13          6           0        2.771196   -0.028500   -0.006736
     14          6           0        4.050013   -0.643054    0.032561
     15          6           0        4.179448   -2.009366   -0.082017
     16          6           0        3.041215   -2.830833   -0.237010
     17          6           0        1.786653   -2.258111   -0.284837
     18          6           0        1.624556   -0.858308   -0.183079
     19          7           0        1.360009    3.176960    0.294299
     20          6           0        0.140387    3.945365    0.148772
     21          1           0       -2.635464   -2.020271    2.188069
     22          1           0       -2.125862   -0.738629    3.290660
     23          1           0       -0.965616   -1.431659    2.153710
     24          1           0       -3.435161    0.251312    1.382774
     25          1           0       -1.798250    0.849996    1.426779
     26          1           0       -2.899417   -1.896426   -1.674136
     27          1           0       -2.540950   -2.601125   -0.104251
     28          1           0       -5.024028   -0.878678   -0.672904
     29          1           0       -4.970699   -2.639902   -0.574183
     30          1           0       -4.636562   -1.666337    0.861744
     31          1           0       -2.240262    0.429109   -2.180993
     32          1           0       -3.719545    0.685812   -1.240304
     33          1           0       -1.288302    1.904611   -0.569350
     34          1           0       -0.651273   -1.855988   -0.566152
     35          1           0        4.910990    0.004424    0.161665
     36          1           0        5.166187   -2.463152   -0.046599
     37          1           0        3.152349   -3.907834   -0.314608
     38          1           0        0.925266   -2.912497   -0.394259
     39          1           0        2.247990    3.653789    0.337789
     40          1           0        0.351113    4.978168    0.435390
     41          1           0       -0.244604    3.937426   -0.879312
     42          1           0       -0.646322    3.558807    0.803128
 ---------------------------------------------------------------------

 SCF Done:  E(UB3LYP) =  -879.441983785     A.U. after   33 cycles
 SCF Done:  E(UB3LYP) =  -879.441983784     a.u. after    1 cycles

 The electronic state is 2-A.
 Alpha  occ. eigenvalues --  -18.98796 -14.21188 -14.20642 -14.16579 -14.14915
 Alpha  occ. eigenvalues --  -10.13592 -10.11295 -10.10707 -10.10297 -10.09798
 Alpha  occ. eigenvalues --  -10.07959 -10.07297 -10.07247 -10.05735 -10.05639
 Alpha  occ. eigenvalues --  -10.04203 -10.03748 -10.03534 -10.03402 -10.02129
 Alpha  occ. eigenvalues --   -0.90047  -0.87131  -0.83229  -0.78468  -0.74692
 Alpha  occ. eigenvalues --   -0.71303  -0.69384  -0.65299  -0.62913  -0.61796
 Alpha  occ. eigenvalues --   -0.60434  -0.57940  -0.55265  -0.52936  -0.51893
 Alpha  occ. eigenvalues --   -0.49952  -0.46999  -0.45536  -0.43681  -0.41226
 Alpha  occ. eigenvalues --   -0.39647  -0.38747  -0.37518  -0.36204  -0.35498
 Alpha  occ. eigenvalues --   -0.34962  -0.34236  -0.33578  -0.33068  -0.32176
 Alpha  occ. eigenvalues --   -0.31160  -0.30616  -0.30452  -0.29814  -0.29273
 Alpha  occ. eigenvalues --   -0.28639  -0.28054  -0.27052  -0.26551  -0.25371
 Alpha  occ. eigenvalues --   -0.24390  -0.24098  -0.23544  -0.22992  -0.22261
 Alpha  occ. eigenvalues --   -0.21765  -0.21015  -0.17662  -0.16069  -0.15436
 Alpha  occ. eigenvalues --   -0.12715  -0.12491  -0.12054  -0.07685   0.04443
 Alpha virt. eigenvalues --    0.05926   0.07507   0.08110   0.08143   0.08996
 Alpha virt. eigenvalues --    0.09420   0.10277   0.10596   0.10932   0.11402
 Alpha virt. eigenvalues --    0.11550   0.11768   0.11841   0.12781   0.13382

  Beta  occ. eigenvalues --  -18.98795 -14.21185 -14.20576 -14.16468 -14.14798
  Beta  occ. eigenvalues --  -10.13582 -10.11295 -10.10324 -10.10291 -10.09797
  Beta  occ. eigenvalues --  -10.07951 -10.07278 -10.07252 -10.05723 -10.05626
  Beta  occ. eigenvalues --  -10.04236 -10.03791 -10.03249 -10.03225 -10.01955
  Beta  occ. eigenvalues --   -0.90031  -0.86932  -0.83016  -0.78362  -0.74434
  Beta  occ. eigenvalues --   -0.71081  -0.69214  -0.65269  -0.62693  -0.61517
  Beta  occ. eigenvalues --   -0.60311  -0.57800  -0.55121  -0.52895  -0.51629
  Beta  occ. eigenvalues --   -0.49734  -0.46720  -0.45450  -0.43575  -0.41113
  Beta  occ. eigenvalues --   -0.39562  -0.38642  -0.37369  -0.36160  -0.35403
  Beta  occ. eigenvalues --   -0.34846  -0.34119  -0.33493  -0.33017  -0.32051
  Beta  occ. eigenvalues --   -0.31134  -0.30502  -0.30395  -0.29260  -0.29128
  Beta  occ. eigenvalues --   -0.28568  -0.28019  -0.27000  -0.26492  -0.25341
  Beta  occ. eigenvalues --   -0.24160  -0.23925  -0.23332  -0.22443  -0.21968
  Beta  occ. eigenvalues --   -0.21509  -0.20699  -0.17488  -0.15591  -0.15308
  Beta  occ. eigenvalues --   -0.12152  -0.11922  -0.11265  -0.06917
  Beta virt. eigenvalues --    0.06328   0.07478   0.08133   0.08160   0.08984
  Beta virt. eigenvalues --    0.09299   0.09686   0.10222   0.10677   0.10946
  Beta virt. eigenvalues --    0.11349   0.11607   0.11859   0.11924   0.12776

 Mulliken charges and spin densities:
               1          2
     1  C   -0.425821  -0.366535
     2  C   -0.066222   0.087765
     3  C    0.098255  -0.317550
     4  C   -0.675666   0.683454
     5  C    0.180870  -0.880279
     6  C   -0.247367  -0.026001
     7  O   -0.236507   0.002438
     8  N    0.185066   0.058801
     9  C   -0.048283   0.173096
    10  N   -0.370432   0.069622
    11  C    0.234551   0.000209
    12  N   -0.135512   0.058216
    13  C   -0.214861   0.030988
    14  C   -0.667458   0.119309
    15  C   -0.260485   0.151545
    16  C   -0.439878  -0.035353
    17  C   -0.575753   0.239162
    18  C    0.688542  -0.076008
    19  N   -0.228707   0.001757
    20  C   -0.364090  -0.011703
    21  H    0.004964   0.124992
    22  H    0.046068   0.094055
    23  H    0.157726   0.005842
    24  H    0.096713   0.082666
    25  H    0.161470  -0.024888
    26  H    0.154733  -0.002823
    27  H    0.019380   0.108573
    28  H    0.056544   0.067045
    29  H   -0.248778   0.392607
    30  H   -0.020714   0.170422
    31  H    0.146331   0.000232
    32  H    0.145670   0.007596
    33  H    0.387049  -0.004737
    34  H    0.396553  -0.023178
    35  H    0.124408  -0.011605
    36  H    0.102977  -0.011258
    37  H    0.106823   0.010587
    38  H   -0.018656   0.032641
    39  H    0.294428   0.000625
    40  H    0.114701   0.000462
    41  H    0.179770   0.000344
    42  H    0.161598   0.016865
 Sum of Mulliken charges =  -1.00000   1.00000

 Dipole moment (field-independent basis, Debye):
    X=             -2.1406    Y=              1.9974    Z=             -0.4760  Tot=              2.9662
 Quadrupole moment (field-independent basis, Debye-Ang):
   XX=           -188.4008   YY=           -146.8056   ZZ=           -140.1301
   XY=              1.9618   XZ=              2.6362   YZ=              3.8223

 Summary of Natural Population Analysis:

                                       Natural Population
                Natural  -----------------------------------------------
    Atom  No    Charge         Core      Valence    Rydberg      Total
 -----------------------------------------------------------------------
      C    1   -0.29110      0.99966     2.28555    0.00589     3.29110
      C    2   -0.20466      0.99958     2.19337    0.01171     3.20466
      C    3    0.06056      0.99955     1.92626    0.01363     2.93944
      C    4   -0.19623      0.99960     2.18540    0.01123     3.19623
      C    5   -0.28789      0.99966     2.28269    0.00553     3.28789
      C    6   -0.00581      0.99952     1.99425    0.01204     3.00581
      O    7   -0.39833      0.99989     3.39036    0.00808     4.39833
      N    8   -0.30672      0.99964     2.79584    0.01124     3.80672
      C    9    0.28768      0.99959     1.69553    0.01719     2.71232
      N   10   -0.32212      0.99962     2.81221    0.01030     3.82212
      C   11    0.31218      0.99961     1.67115    0.01707     2.68782
      N   12   -0.28925      0.99965     2.77732    0.01229     3.78925
      C   13    0.08495      0.99955     1.89872    0.01678     2.91505
      C   14   -0.08407      0.99954     2.07486    0.00967     3.08407
      C   15   -0.06689      0.99957     2.05757    0.00975     3.06689
      C   16   -0.13214      0.99957     2.12277    0.00979     3.13214
      C   17   -0.05679      0.99960     2.04252    0.01467     3.05679
      C   18   -0.03095      0.99946     2.02242    0.00907     3.03095
      N   19   -0.31257      0.99966     2.80368    0.00923     3.81257
      C   20   -0.18015      0.99966     2.17356    0.00692     3.18015
      H   21    0.09211      0.00000     0.40691    0.00098     0.40789
      H   22    0.09736      0.00000     0.40198    0.00066     0.40264
      H   23    0.10510      0.00000     0.39399    0.00091     0.39490
      H   24    0.09669      0.00000     0.40221    0.00110     0.40331
      H   25    0.11388      0.00000     0.38469    0.00143     0.38612
      H   26    0.09899      0.00000     0.39992    0.00109     0.40101
      H   27    0.09862      0.00000     0.40028    0.00110     0.40138
      H   28    0.09598      0.00000     0.40305    0.00097     0.40402
      H   29    0.09975      0.00000     0.39944    0.00081     0.40025
      H   30    0.10010      0.00000     0.39893    0.00097     0.39990
      H   31    0.07701      0.00000     0.42188    0.00111     0.42299
      H   32    0.08054      0.00000     0.41794    0.00152     0.41946
      H   33    0.24922      0.00000     0.24736    0.00341     0.25078
      H   34    0.19008      0.00000     0.30760    0.00232     0.30992
      H   35    0.09400      0.00000     0.40440    0.00160     0.40600
      H   36    0.08786      0.00000     0.41107    0.00108     0.41214
      H   37    0.09053      0.00000     0.40806    0.00141     0.40947
      H   38    0.08326      0.00000     0.41511    0.00163     0.41674
      H   39    0.19132      0.00000     0.30708    0.00160     0.30868
      H   40    0.08958      0.00000     0.40967    0.00075     0.41042
      H   41    0.09111      0.00000     0.40741    0.00148     0.40889
      H   42    0.09985      0.00000     0.39875    0.00140     0.40015
 =======================================================================
   * Total *    0.00263     19.99218    53.75381    0.25138    73.99737

 Normal termination of Gaussian 16 at Sat Dec 12 18:27:47 2020.
