 Gaussian 16, Revision A.03,

 -----------------------------------------------------------
 # opt freq B3LYP/6-31G(d) empiricaldispersion=gd3bj scf=xqc
 -----------------------------------------------------------

 ------------------------------
 CID_65389280_JID_6585_neutraal
 ------------------------------
 Symbolic Z-matrix:
 Charge =  0 Multiplicity = 1

 SCF Done:  E(RB3LYP) =  -672.390750514     A.U. after   14 cycles
 SCF Done:  E(RB3LYP) =  -672.394585010     A.U. after   12 cycles
 SCF Done:  E(RB3LYP) =  -672.395887711     A.U. after   12 cycles
 SCF Done:  E(RB3LYP) =  -672.396485488     A.U. after   12 cycles
 SCF Done:  E(RB3LYP) =  -672.396767964     A.U. after   11 cycles
 SCF Done:  E(RB3LYP) =  -672.396825676     A.U. after   10 cycles
 SCF Done:  E(RB3LYP) =  -672.396834096     A.U. after    9 cycles
 SCF Done:  E(RB3LYP) =  -672.396836441     A.U. after    8 cycles
 SCF Done:  E(RB3LYP) =  -672.396837825     A.U. after    8 cycles
 SCF Done:  E(RB3LYP) =  -672.396838179     A.U. after    7 cycles
 SCF Done:  E(RB3LYP) =  -672.398725772     A.U. after   10 cycles
 SCF Done:  E(RB3LYP) =  -672.398727235     A.U. after    9 cycles
 SCF Done:  E(RB3LYP) =  -672.398727616     A.U. after    8 cycles
 SCF Done:  E(RB3LYP) =  -672.398727753     A.U. after    7 cycles
 Optimization completed.
    -- Stationary point found.
 Normal termination of Gaussian 16 at Fri Dec 11 00:13:38 2020.

 --------------------------------------------------------------------
 #N Geom=AllCheck Guess=TCheck SCRF=Check GenChk RB3LYP/6-31G(d) Freq
 --------------------------------------------------------------------

 Structure from the checkpoint file:  "JID_6585.chk"
 ------------------------------
 CID_65389280_JID_6585_neutraal
 ------------------------------
 Charge =  0 Multiplicity = 1

 SCF Done:  E(RB3LYP) =  -672.398727753     A.U. after    1 cycles

  Exact polarizability: 179.317  -3.625 158.461  15.945  -2.513 116.083
 Approx polarizability: 237.012  -8.789 250.546  34.786  -7.735 177.350

                      1                      2                      3
                      A                      A                      A
 Frequencies --     16.2599                51.5247                85.6220
 Red. masses --      3.8395                 3.7398                 1.0520
 Frc consts  --      0.0006                 0.0058                 0.0045
 IR Inten    --      0.2468                 0.7018                 0.4030

                      4                      5                      6
                      A                      A                      A
 Frequencies --    109.5039               143.4338               178.0861
 Red. masses --      3.0330                 3.5627                 3.1201
 Frc consts  --      0.0214                 0.0432                 0.0583
 IR Inten    --      0.9999                 1.9664                 1.3241

                      7                      8                      9
                      A                      A                      A
 Frequencies --    195.3256               212.0876               217.5683
 Red. masses --      2.9976                 2.0369                 5.1321
 Frc consts  --      0.0674                 0.0540                 0.1431
 IR Inten    --      3.4239                 1.5963                 1.5650

                     10                     11                     12
                      A                      A                      A
 Frequencies --    239.2376               266.1209               296.4236
 Red. masses --      1.3075                 1.3784                 1.7208
 Frc consts  --      0.0441                 0.0575                 0.0891
 IR Inten    --      0.3604                 0.0557                 0.2758

                     13                     14                     15
                      A                      A                      A
 Frequencies --    297.2220               343.4894               378.2770
 Red. masses --      2.5211                 2.1991                 2.4027
 Frc consts  --      0.1312                 0.1529                 0.2026
 IR Inten    --      3.2300                 0.6022                 3.3982

                     16                     17                     18
                      A                      A                      A
 Frequencies --    385.4046               401.1838               413.2157
 Red. masses --      2.2816                 1.2170                 1.8940
 Frc consts  --      0.1997                 0.1154                 0.1905
 IR Inten    --      2.7390               205.1668                 2.2951

                     19                     20                     21
                      A                      A                      A
 Frequencies --    419.6582               462.0675               484.5419
 Red. masses --      1.9069                 2.9679                 3.4798
 Frc consts  --      0.1979                 0.3734                 0.4814
 IR Inten    --      0.7376                10.1109                 2.8835

                     22                     23                     24
                      A                      A                      A
 Frequencies --    496.8525               520.3841               539.4257
 Red. masses --      1.2182                 3.8441                 3.1850
 Frc consts  --      0.1772                 0.6133                 0.5460
 IR Inten    --    121.7406                 1.6207                 2.3201

                     25                     26                     27
                      A                      A                      A
 Frequencies --    565.5628               592.2221               597.6837
 Red. masses --      3.9676                 3.1473                 4.3763
 Frc consts  --      0.7477                 0.6504                 0.9211
 IR Inten    --      4.9390                 6.1853                 3.4094

                     28                     29                     30
                      A                      A                      A
 Frequencies --    656.6196               709.3013               755.8727
 Red. masses --      3.9475                 3.2496                 3.0486
 Frc consts  --      1.0028                 0.9632                 1.0262
 IR Inten    --      8.5099                 1.2860                 4.1671

                     31                     32                     33
                      A                      A                      A
 Frequencies --    795.8212               818.9819               840.5646
 Red. masses --      1.5270                 3.3508                 1.5908
 Frc consts  --      0.5698                 1.3242                 0.6622
 IR Inten    --      0.1929                 5.4251                21.9524

                     34                     35                     36
                      A                      A                      A
 Frequencies --    860.0706               882.6361               923.3279
 Red. masses --      3.3901                 2.0938                 2.3628
 Frc consts  --      1.4775                 0.9611                 1.1868
 IR Inten    --      4.9713                 0.5498                 0.8014

                     37                     38                     39
                      A                      A                      A
 Frequencies --    952.5810               963.7403               972.4166
 Red. masses --      1.9186                 1.9185                 1.4829
 Frc consts  --      1.0257                 1.0499                 0.8262
 IR Inten    --      9.0021                10.1850                 0.3224

                     40                     41                     42
                      A                      A                      A
 Frequencies --    990.5737              1000.5372              1016.5211
 Red. masses --      1.7798                 3.5687                 2.4375
 Frc consts  --      1.0289                 2.1048                 1.4840
 IR Inten    --      6.6554                 0.2531                 0.7335

                     43                     44                     45
                      A                      A                      A
 Frequencies --   1017.1408              1044.9945              1048.7485
 Red. masses --      2.5347                 1.4170                 1.7697
 Frc consts  --      1.5451                 0.9117                 1.1468
 IR Inten    --     16.9357                 1.7533                 4.8359

                     46                     47                     48
                      A                      A                      A
 Frequencies --   1057.5280              1070.0716              1074.2172
 Red. masses --      2.2993                 1.6623                 1.6118
 Frc consts  --      1.5151                 1.1215                 1.0958
 IR Inten    --      0.7988                 0.9073                 5.3211

                     49                     50                     51
                      A                      A                      A
 Frequencies --   1110.1601              1122.1913              1171.2679
 Red. masses --      1.6602                 1.2230                 2.3978
 Frc consts  --      1.2056                 0.9074                 1.9381
 IR Inten    --      7.7807                 3.0831                 1.1362

                     52                     53                     54
                      A                      A                      A
 Frequencies --   1181.9982              1208.9712              1215.8473
 Red. masses --      1.5368                 1.1167                 2.0465
 Frc consts  --      1.2650                 0.9617                 1.7824
 IR Inten    --      1.2120                 1.2703                16.3046

                     55                     56                     57
                      A                      A                      A
 Frequencies --   1220.1998              1287.0487              1292.7850
 Red. masses --      1.6811                 1.6406                 2.4960
 Frc consts  --      1.4747                 1.6012                 2.4578
 IR Inten    --     20.2578                 7.8503                 0.4222

                     58                     59                     60
                      A                      A                      A
 Frequencies --   1304.6707              1335.2929              1346.6054
 Red. masses --      3.3885                 1.6789                 1.5217
 Frc consts  --      3.3983                 1.7637                 1.6258
 IR Inten    --      0.9343                 6.8749                 0.1972

                     61                     62                     63
                      A                      A                      A
 Frequencies --   1354.3347              1375.2213              1389.9581
 Red. masses --      1.6965                 1.4145                 1.3828
 Frc consts  --      1.8334                 1.5762                 1.5741
 IR Inten    --     41.9890                 1.4221                 2.5184

                     64                     65                     66
                      A                      A                      A
 Frequencies --   1403.9434              1410.3968              1424.3742
 Red. masses --      1.8739                 1.4915                 1.4946
 Frc consts  --      2.1762                 1.7481                 1.7865
 IR Inten    --     35.0613                 0.2803                 9.5124

                     67                     68                     69
                      A                      A                      A
 Frequencies --   1427.3868              1440.7182              1449.3763
 Red. masses --      1.2617                 2.2176                 1.2425
 Frc consts  --      1.5146                 2.7120                 1.5378
 IR Inten    --      6.7562                28.3732                 2.2624

                     70                     71                     72
                      A                      A                      A
 Frequencies --   1463.8253              1482.2307              1503.4203
 Red. masses --      3.4666                 2.7670                 1.0455
 Frc consts  --      4.3765                 3.5817                 1.3923
 IR Inten    --     63.1075                 1.4396                 5.9256

                     73                     74                     75
                      A                      A                      A
 Frequencies --   1506.3310              1509.2553              1514.4626
 Red. masses --      1.0811                 1.0723                 1.0804
 Frc consts  --      1.4453                 1.4391                 1.4600
 IR Inten    --      3.9793                 1.1071                 1.5083

                     76                     77                     78
                      A                      A                      A
 Frequencies --   1520.6138              1522.3024              1527.3371
 Red. masses --      1.2603                 1.0795                 1.0802
 Frc consts  --      1.7170                 1.4739                 1.4847
 IR Inten    --     70.7946                23.9568                10.0545

                     79                     80                     81
                      A                      A                      A
 Frequencies --   1534.8007              1537.3171              1546.0727
 Red. masses --      1.0920                 1.0678                 1.0598
 Frc consts  --      1.5156                 1.4869                 1.4926
 IR Inten    --      1.6349                 7.3329                 4.0237

                     82                     83                     84
                      A                      A                      A
 Frequencies --   1616.5447              1640.7830              1674.7882
 Red. masses --      7.0552                 2.9297                 1.6579
 Frc consts  --     10.8627                 4.6471                 2.7399
 IR Inten    --    202.2265               139.6838               426.5421

                     85                     86                     87
                      A                      A                      A
 Frequencies --   3014.3991              3022.7814              3031.0927
 Red. masses --      1.0815                 1.0587                 1.0463
 Frc consts  --      5.7901                 5.6994                 5.6637
 IR Inten    --     24.6877                28.1593                17.1761

                     88                     89                     90
                      A                      A                      A
 Frequencies --   3034.8158              3043.3198              3048.4301
 Red. masses --      1.0525                 1.0452                 1.0702
 Frc consts  --      5.7115                 5.7037                 5.8598
 IR Inten    --     42.7566                30.9175                17.9308

                     91                     92                     93
                      A                      A                      A
 Frequencies --   3052.3090              3057.7727              3067.0505
 Red. masses --      1.0799                 1.0357                 1.0853
 Frc consts  --      5.9276                 5.7057                 6.0152
 IR Inten    --     29.1070                14.5846                82.3670

                     94                     95                     96
                      A                      A                      A
 Frequencies --   3087.7148              3095.9015              3102.6793
 Red. masses --      1.0957                 1.1023                 1.1015
 Frc consts  --      6.1546                 6.2247                 6.2475
 IR Inten    --     27.5326                 2.8420                60.8697

                     97                     98                     99
                      A                      A                      A
 Frequencies --   3103.5744              3110.4563              3116.2811
 Red. masses --      1.1012                 1.0956                 1.0959
 Frc consts  --      6.2492                 6.2453                 6.2702
 IR Inten    --     63.0864                37.9922                28.6067

                    100                    101                    102
                      A                      A                      A
 Frequencies --   3118.8247              3124.4875              3140.5106
 Red. masses --      1.1005                 1.0987                 1.1036
 Frc consts  --      6.3070                 6.3197                 6.4131
 IR Inten    --     10.4683                34.1601                19.8715

                    103                    104                    105
                      A                      A                      A
 Frequencies --   3201.4184              3581.7040              3698.9179
 Red. masses --      1.0920                 1.0463                 1.1018
 Frc consts  --      6.5939                 7.9081                 8.8817
 IR Inten    --     15.4115                44.1926                25.4019

 - Thermochemistry -
 -------------------
 Temperature   298.150 Kelvin.  Pressure   1.00000 Atm.
 Atom     1 has atomic number  6 and mass  12.00000

 Molecular mass:   219.17355 amu.
 Principal axes and moments of inertia in atomic units:
                           1         2         3
     Eigenvalues --  1978.145385385.791916131.85572
           X            0.99997   0.00820  -0.00054
           Y           -0.00819   0.99987   0.01389
           Z            0.00065  -0.01388   0.99990
 This molecule is an asymmetric top.
 Rotational symmetry number  1.
 Warning -- assumption of classical behavior for rotation
           may cause significant error
 Rotational temperatures (Kelvin)      0.04379     0.01608     0.01413
 Rotational constants (GHZ):           0.91234     0.33509     0.29432
 Zero-point vibrational energy     866024.1 (Joules/Mol)
                                  206.98473 (Kcal/Mol)
 Warning -- explicit consideration of  27 degrees of freedom as
           vibrations may cause significant error
 Vibrational temperatures:     23.39    74.13   123.19   157.55   206.37
          (Kelvin)            256.23   281.03   305.15   313.03   344.21
                              382.89   426.49   427.64   494.20   544.26
                              554.51   577.21   594.53   603.79   664.81
                              697.15   714.86   748.72   776.11   813.72
                              852.08   859.93   944.73  1020.53  1087.53
                             1145.01  1178.33  1209.38  1237.45  1269.92
                             1328.46  1370.55  1386.61  1399.09  1425.21
                             1439.55  1462.55  1463.44  1503.51  1508.92
                             1521.55  1539.59  1545.56  1597.27  1614.58
                             1685.19  1700.63  1739.44  1749.33  1755.60
                             1851.78  1860.03  1877.13  1921.19  1937.46
                             1948.59  1978.64  1999.84  2019.96  2029.25
                             2049.36  2053.69  2072.87  2085.33  2106.12
                             2132.60  2163.09  2167.27  2171.48  2178.97
                             2187.82  2190.25  2197.50  2208.24  2211.86
                             2224.45  2325.85  2360.72  2409.65  4337.05
                             4349.11  4361.07  4366.42  4378.66  4386.01
                             4391.59  4399.45  4412.80  4442.53  4454.31
                             4464.06  4465.35  4475.25  4483.63  4487.29
                             4495.44  4518.49  4606.13  5153.27  5321.92

 Zero-point correction=                           0.329851 (Hartree/Particle)
 Thermal correction to Energy=                    0.345611
 Thermal correction to Enthalpy=                  0.346556
 Thermal correction to Gibbs Free Energy=         0.286911
 Sum of electronic and zero-point Energies=           -672.068877
 Sum of electronic and thermal Energies=              -672.053116
 Sum of electronic and thermal Enthalpies=            -672.052172
 Sum of electronic and thermal Free Energies=         -672.111817

                     E (Thermal)             CV                S
                      KCal/Mol        Cal/Mol-Kelvin    Cal/Mol-Kelvin
 Total                  216.874             62.729            125.533
 Electronic               0.000              0.000              0.000
 Translational            0.889              2.981             42.057
 Rotational               0.889              2.981             32.546
 Vibrational            215.097             56.767             50.930
 Vibration     1          0.593              1.986              7.045
 Vibration     2          0.596              1.977              4.758
 Vibration     3          0.601              1.959              3.758
 Vibration     4          0.606              1.942              3.278
 Vibration     5          0.616              1.910              2.758
 Vibration     6          0.629              1.869              2.348
 Vibration     7          0.636              1.846              2.177
 Vibration     8          0.643              1.822              2.026
 Vibration     9          0.646              1.814              1.979
 Vibration    10          0.657              1.780              1.809
 Vibration    11          0.672              1.735              1.621
 Vibration    12          0.690              1.680              1.437
 Vibration    13          0.691              1.679              1.432
 Vibration    14          0.722              1.589              1.196
 Vibration    15          0.749              1.516              1.046
 Vibration    16          0.754              1.501              1.018
 Vibration    17          0.767              1.468              0.958
 Vibration    18          0.777              1.442              0.915
 Vibration    19          0.782              1.428              0.893
 Vibration    20          0.820              1.334              0.760
 Vibration    21          0.841              1.284              0.698
 Vibration    22          0.852              1.257              0.666
 Vibration    23          0.875              1.205              0.609
 Vibration    24          0.894              1.163              0.567
 Vibration    25          0.921              1.106              0.513
 Vibration    26          0.950              1.048              0.463
 Vibration    27          0.956              1.037              0.454

 Optimization completed.
    -- Stationary point found.
 Normal termination of Gaussian 16 at Fri Dec 11 00:27:05 2020.

 ----------------------------------------------------------------------
 # B3LYP/6-311++G(d,p) empiricaldispersion=gd3bj scf=xqc pop=npa geom=c
 heck
 ----------------------------------------------------------------------

 --------------------------------------
 CID_65389280_JID_6585_Energie_neutraal
 --------------------------------------
 Structure from the checkpoint file:  "JID_6585.chk"
 Charge =  0 Multiplicity = 1

 SCF Done:  E(RB3LYP) =  -672.582345490     A.U. after   14 cycles
 Normal termination of Gaussian 16 at Fri Dec 11 00:32:45 2020.

 ----------------------------------------------------------------------
 # B3LYP/6-311++G(d,p) empiricaldispersion=gd3bj scf=xqc pop=npa geom=c
 heck
 ----------------------------------------------------------------------

 ------------------------------------
 CID_65389280_JID_6585_Energie_kation
 ------------------------------------
 Structure from the checkpoint file:  "JID_6585.chk"
 Charge =  1 Multiplicity = 2

 SCF Done:  E(UB3LYP) =  -672.272087072     A.U. after   33 cycles
 SCF Done:  E(UB3LYP) =  -672.272087072     a.u. after    1 cycles
 Normal termination of Gaussian 16 at Fri Dec 11 00:50:18 2020.
 Gaussian 16:  ES64L-G16RevA.03 25-Dec-2016

 ----------------------------------------------------------------------
 # B3LYP/6-311++G(d,p) empiricaldispersion=gd3bj scf=xqc pop=npa geom=c
 heck
 ----------------------------------------------------------------------

 -----------------------------------
 CID_65389280_JID_6585_Energie_anion
 -----------------------------------
 Structure from the checkpoint file:  "JID_6585.chk"
 Charge = -1 Multiplicity = 2

                         Standard orientation:
 ---------------------------------------------------------------------
 Center     Atomic      Atomic             Coordinates (Angstroms)
 Number     Number       Type             X           Y           Z
 ---------------------------------------------------------------------
      1          6           0        2.701368    2.777597    0.151857
      2          6           0        2.365744    1.316877    0.028276
      3          6           0        3.222071    0.324657    0.475125
      4          6           0        2.796200   -1.007179    0.302892
      5          7           0        1.618736   -1.297831   -0.264376
      6          6           0        0.855952   -0.263935   -0.654509
      7          7           0        1.175668    1.027242   -0.540557
      8          6           0       -0.466107   -0.631868   -1.315731
      9          6           0       -1.367245    0.579293   -1.607849
     10          6           0       -1.989407    1.169913   -0.334890
     11          6           0       -2.744007    0.138668    0.534205
     12          6           0       -1.816010   -1.069860    0.793850
     13          6           0       -1.231982   -1.682319   -0.484084
     14          6           0       -4.041254   -0.313553   -0.160312
     15          6           0       -3.111868    0.787000    1.876992
     16          7           0        3.545103   -2.069468    0.740441
     17          1           0        3.681910    2.934965    0.610171
     18          1           0        1.941502    3.285618    0.755987
     19          1           0        2.689988    3.249699   -0.836616
     20          1           0        4.173057    0.560582    0.942242
     21          1           0       -0.191593   -1.103101   -2.271156
     22          1           0       -2.157944    0.253261   -2.295636
     23          1           0       -0.792358    1.354634   -2.121989
     24          1           0       -2.672052    1.988109   -0.602797
     25          1           0       -1.184752    1.614810    0.261605
     26          1           0       -0.986265   -0.742382    1.436515
     27          1           0       -2.361890   -1.836265    1.360759
     28          1           0       -2.034886   -2.099636   -1.104056
     29          1           0       -0.557265   -2.504999   -0.232524
     30          1           0       -3.856769   -0.771667   -1.136714
     31          1           0       -4.575612   -1.048237    0.454620
     32          1           0       -4.710592    0.540797   -0.318633
     33          1           0       -3.645911    0.080345    2.524699
     34          1           0       -2.213711    1.120470    2.410709
     35          1           0       -3.758584    1.660851    1.729016
     36          1           0        4.538103   -1.937903    0.866150
     37          1           0        3.258364   -2.971301    0.384163
 ---------------------------------------------------------------------

 SCF Done:  E(UB3LYP) =  -672.571444929     A.U. after   33 cycles
 SCF Done:  E(UB3LYP) =  -672.571445290     a.u. after    3 cycles

 The electronic state is 2-A.
 Alpha  occ. eigenvalues --  -14.22131 -14.19787 -14.19526 -10.15243 -10.13720
 Alpha  occ. eigenvalues --  -10.12110 -10.08762 -10.07823 -10.07235 -10.07053
 Alpha  occ. eigenvalues --  -10.06928 -10.06821 -10.06713 -10.06563 -10.06509
 Alpha  occ. eigenvalues --  -10.06251  -0.88704  -0.82590  -0.76469  -0.75016
 Alpha  occ. eigenvalues --   -0.70276  -0.67134  -0.64535  -0.62132  -0.59791
 Alpha  occ. eigenvalues --   -0.59313  -0.54374  -0.52307  -0.50911  -0.47756
 Alpha  occ. eigenvalues --   -0.44638  -0.43565  -0.40282  -0.38574  -0.37325
 Alpha  occ. eigenvalues --   -0.36309  -0.36134  -0.35847  -0.34607  -0.33982
 Alpha  occ. eigenvalues --   -0.32979  -0.32082  -0.30719  -0.30180  -0.29424
 Alpha  occ. eigenvalues --   -0.29075  -0.28034  -0.27896  -0.26668  -0.25813
 Alpha  occ. eigenvalues --   -0.25165  -0.24399  -0.23434  -0.22016  -0.20944
 Alpha  occ. eigenvalues --   -0.20010  -0.19132  -0.17484  -0.14866  -0.13524
 Alpha  occ. eigenvalues --    0.04231
 Alpha virt. eigenvalues --    0.05748   0.06816   0.07066   0.07429   0.07899
 Alpha virt. eigenvalues --    0.08343   0.08734   0.09405   0.09842   0.09970
 Alpha virt. eigenvalues --    0.10296   0.10726   0.11033   0.11816   0.12244

  Beta  occ. eigenvalues --  -14.22053 -14.19765 -14.19525 -10.15236 -10.13717
  Beta  occ. eigenvalues --  -10.12099 -10.08762 -10.07821 -10.07213 -10.07022
  Beta  occ. eigenvalues --  -10.06914 -10.06811 -10.06706 -10.06558 -10.06505
  Beta  occ. eigenvalues --  -10.06244  -0.88675  -0.82528  -0.76421  -0.74999
  Beta  occ. eigenvalues --   -0.70246  -0.67106  -0.64523  -0.62087  -0.59767
  Beta  occ. eigenvalues --   -0.59291  -0.54331  -0.52266  -0.50856  -0.47727
  Beta  occ. eigenvalues --   -0.44598  -0.43526  -0.40218  -0.38550  -0.37258
  Beta  occ. eigenvalues --   -0.36275  -0.36112  -0.35783  -0.34584  -0.33949
  Beta  occ. eigenvalues --   -0.32959  -0.32068  -0.30676  -0.30151  -0.29408
  Beta  occ. eigenvalues --   -0.29044  -0.28022  -0.27884  -0.26644  -0.25799
  Beta  occ. eigenvalues --   -0.25147  -0.24381  -0.23407  -0.22000  -0.20924
  Beta  occ. eigenvalues --   -0.19999  -0.19112  -0.17417  -0.14845  -0.13461
  Beta virt. eigenvalues --    0.05817   0.06946   0.07090   0.07471   0.07731
  Beta virt. eigenvalues --    0.08318   0.08573   0.09087   0.09533   0.09964
  Beta virt. eigenvalues --    0.10117   0.10576   0.11113   0.11153   0.11814

 Mulliken charges and spin densities:
               1          2
     1  C    1.752026  -2.285598
     2  C   -0.765730   1.063777
     3  C    0.461908  -0.546437
     4  C    0.549474  -0.593710
     5  N    0.098405  -0.061670
     6  C   -1.181384  -0.077467
     7  N    0.009059   0.118336
     8  C    1.528948  -0.385757
     9  C   -0.638181  -0.145403
    10  C   -0.317400   0.003805
    11  C   -0.049292   0.415554
    12  C   -0.143652   0.015459
    13  C   -0.654973  -0.331362
    14  C   -0.083774  -0.591305
    15  C   -0.281860  -0.173319
    16  N   -0.445381   0.164579
    17  H   -0.220574   0.378470
    18  H   -0.038841   0.189930
    19  H    0.046892   0.109329
    20  H   -1.020984   1.221368
    21  H    0.063492   0.176154
    22  H    0.146599  -0.006476
    23  H    0.136391   0.055722
    24  H    0.025032   0.124810
    25  H    0.247220  -0.064964
    26  H    0.165271  -0.015160
    27  H    0.047703   0.130173
    28  H    0.107400   0.015843
    29  H    0.131739   0.074990
    30  H    0.051552   0.068252
    31  H    0.010942   0.125396
    32  H    0.007698   0.133059
    33  H    0.044806   0.085927
    34  H    0.045158   0.097595
    35  H    0.032930   0.096997
    36  H   -0.655389   0.932840
    37  H   -0.213232   0.480262
 Sum of Mulliken charges =  -1.00000   1.00000

 Dipole moment (field-independent basis, Debye):
    X=             -9.7814    Y=              2.2148    Z=             -2.5596  Tot=             10.3505
 Quadrupole moment (field-independent basis, Debye-Ang):
   XX=           -203.9832   YY=           -143.4191   ZZ=           -128.5401
   XY=             13.3906   XZ=            -11.8782   YZ=              1.4829

 Summary of Natural Population Analysis:

                                       Natural Population
                Natural  -----------------------------------------------
    Atom  No    Charge         Core      Valence    Rydberg      Total
 -----------------------------------------------------------------------
      C    1   -0.29903      0.99963     2.29312    0.00628     3.29903
      C    2    0.13089      0.99954     1.85660    0.01297     2.86911
      C    3   -0.16382      0.99945     2.15471    0.00967     3.16382
      C    4    0.21912      0.99954     1.76593    0.01540     2.78088
      N    5   -0.28295      0.99963     2.77267    0.01064     3.78295
      C    6    0.23843      0.99958     1.74310    0.01890     2.76157
      N    7   -0.28837      0.99964     2.77777    0.01095     3.78837
      C    8   -0.12735      0.99955     2.11657    0.01122     3.12735
      C    9   -0.18863      0.99962     2.18075    0.00826     3.18863
      C   10   -0.19103      0.99959     2.18271    0.00874     3.19103
      C   11   -0.04776      0.99957     2.03673    0.01147     3.04776
      C   12   -0.18948      0.99959     2.18135    0.00855     3.18948
      C   13   -0.18873      0.99961     2.17974    0.00937     3.18873
      C   14   -0.28610      0.99963     2.28042    0.00606     3.28610
      C   15   -0.28055      0.99963     2.27502    0.00590     3.28055
      N   16   -0.38236      0.99970     2.87302    0.00963     3.88236
      H   17    0.10289      0.00000     0.39613    0.00098     0.39711
      H   18    0.10840      0.00000     0.39054    0.00106     0.39160
      H   19    0.10705      0.00000     0.39197    0.00099     0.39295
      H   20    0.11083      0.00000     0.38664    0.00253     0.38917
      H   21    0.10825      0.00000     0.39041    0.00133     0.39175
      H   22    0.09241      0.00000     0.40652    0.00107     0.40759
      H   23    0.10958      0.00000     0.38927    0.00116     0.39042
      H   24    0.09516      0.00000     0.40388    0.00096     0.40484
      H   25    0.10797      0.00000     0.39051    0.00152     0.39203
      H   26    0.10069      0.00000     0.39804    0.00127     0.39931
      H   27    0.09728      0.00000     0.40179    0.00092     0.40272
      H   28    0.09259      0.00000     0.40643    0.00098     0.40741
      H   29    0.11267      0.00000     0.38598    0.00135     0.38733
      H   30    0.09918      0.00000     0.39975    0.00107     0.40082
      H   31    0.09729      0.00000     0.40177    0.00094     0.40271
      H   32    0.09741      0.00000     0.40167    0.00092     0.40259
      H   33    0.09662      0.00000     0.40251    0.00088     0.40338
      H   34    0.10087      0.00000     0.39820    0.00092     0.39913
      H   35    0.09682      0.00000     0.40230    0.00088     0.40318
      H   36    0.19855      0.00000     0.28083    0.02062     0.30145
      H   37    0.19520      0.00000     0.30096    0.00383     0.30480
 =======================================================================
   * Total *   -0.00000     15.99350    43.79630    0.21020    60.00000

 Normal termination of Gaussian 16 at Fri Dec 11 02:06:00 2020.
