 Gaussian 16, Revision A.03,

 -----------------------------------------------------------
 # opt freq B3LYP/6-31G(d) empiricaldispersion=gd3bj scf=xqc
 -----------------------------------------------------------

 -------------------------------
 CID_117537806_JID_2849_neutraal
 -------------------------------
 Symbolic Z-matrix:
 Charge =  0 Multiplicity = 1

 SCF Done:  E(RB3LYP) =  -578.280755555     A.U. after   14 cycles
 SCF Done:  E(RB3LYP) =  -578.283193536     A.U. after   12 cycles
 SCF Done:  E(RB3LYP) =  -578.282718303     A.U. after   12 cycles
 SCF Done:  E(RB3LYP) =  -578.283635346     A.U. after   11 cycles
 SCF Done:  E(RB3LYP) =  -578.283881562     A.U. after   11 cycles
 SCF Done:  E(RB3LYP) =  -578.283889982     A.U. after   11 cycles
 SCF Done:  E(RB3LYP) =  -578.283951592     A.U. after   10 cycles
 SCF Done:  E(RB3LYP) =  -578.283970162     A.U. after   11 cycles
 SCF Done:  E(RB3LYP) =  -578.283984319     A.U. after    9 cycles
 SCF Done:  E(RB3LYP) =  -578.283991507     A.U. after   10 cycles
 SCF Done:  E(RB3LYP) =  -578.283993667     A.U. after    8 cycles
 SCF Done:  E(RB3LYP) =  -578.283994481     A.U. after    8 cycles
 SCF Done:  E(RB3LYP) =  -578.283995173     A.U. after    8 cycles
 SCF Done:  E(RB3LYP) =  -578.283995339     A.U. after    8 cycles
 Optimization completed.
    -- Stationary point found.

 1\1\GINC-NODE203\FOpt\RB3LYP\6-31G(d)\C9H16O3\VSC10255\09-Dec-2020\0\\
 # opt freq B3LYP/6-31G(d) empiricaldispersion=gd3bj scf=xqc\\CID_11753
 7806_JID_2849_neutraal\\0,1\C,0.9778523206,-0.0361134612,0.0751788368\
 C,0.6637252797,-1.470865388,-0.3556754681\C,1.0766390007,-2.5275003157
 ,0.6892360872\C,0.4521061747,-2.39339325,2.106836596\C,-1.0037796941,-
 2.8183628178,2.3380752273\C,-1.3897396414,-2.8534341668,3.8410935565\O
 ,-1.825228402,-4.2252768779,3.7522210692\C,-1.2884910269,-4.343058141,
 2.4166162388\C,-2.0405491861,-2.0756374922,1.4955756607\C,0.8970641881

 Normal termination of Gaussian 16 at Wed Dec  9 18:08:48 2020.

 --------------------------------------------------------------------
 #N Geom=AllCheck Guess=TCheck SCRF=Check GenChk RB3LYP/6-31G(d) Freq
 --------------------------------------------------------------------

 Structure from the checkpoint file:  "JID_2849.chk"
 -------------------------------
 CID_117537806_JID_2849_neutraal
 -------------------------------
 Charge =  0 Multiplicity = 1

 SCF Done:  E(RB3LYP) =  -578.283995339     A.U. after    1 cycles

  Exact polarizability: 100.353  -1.062 102.758  -0.397   0.827  91.198
 Approx polarizability: 129.023   0.313 145.843  -0.447  -3.056 141.783

                      1                      2                      3
                      A                      A                      A
 Frequencies --     46.6456                55.1540                71.0755
 Red. masses --      3.4947                 7.4308                 2.8961
 Frc consts  --      0.0045                 0.0133                 0.0086
 IR Inten    --      0.5589                 2.3401                 0.6862

                      4                      5                      6
                      A                      A                      A
 Frequencies --     83.6169               115.2636               165.3483
 Red. masses --      4.4234                 3.6069                 2.2556
 Frc consts  --      0.0182                 0.0282                 0.0363
 IR Inten    --      3.2430                 0.6898                 0.2358

                      7                      8                      9
                      A                      A                      A
 Frequencies --    188.2951               215.6314               237.5697
 Red. masses --      2.3057                 3.3951                 1.7705
 Frc consts  --      0.0482                 0.0930                 0.0589
 IR Inten    --      0.0936                 0.5793                 0.2410

                     10                     11                     12
                      A                      A                      A
 Frequencies --    272.8679               309.1435               355.6014
 Red. masses --      1.7914                 1.4030                 2.0678
 Frc consts  --      0.0786                 0.0790                 0.1541
 IR Inten    --      0.4484                 0.4641                 0.5956

                     13                     14                     15
                      A                      A                      A
 Frequencies --    359.8135               391.3751               402.4927
 Red. masses --      2.6840                 2.0777                 2.5822
 Frc consts  --      0.2047                 0.1875                 0.2465
 IR Inten    --      1.2721                 0.3230                 2.0869

                     16                     17                     18
                      A                      A                      A
 Frequencies --    441.6961               546.9847               604.1617
 Red. masses --      2.3826                 3.0305                 3.5248
 Frc consts  --      0.2739                 0.5342                 0.7580
 IR Inten    --      1.3592                 5.9142                34.6263

                     19                     20                     21
                      A                      A                      A
 Frequencies --    633.5117               691.8388               770.0610
 Red. masses --      1.6261                 2.2363                 1.5494
 Frc consts  --      0.3845                 0.6307                 0.5413
 IR Inten    --     57.6694                34.6510                19.2920

                     22                     23                     24
                      A                      A                      A
 Frequencies --    785.3955               843.7355               857.4441
 Red. masses --      3.8327                 3.0000                 2.2733
 Frc consts  --      1.3929                 1.2583                 0.9847
 IR Inten    --     32.9998                12.8264                 3.0362

                     25                     26                     27
                      A                      A                      A
 Frequencies --    864.9376               917.9210               943.8053
 Red. masses --      2.0414                 2.3742                 1.5994
 Frc consts  --      0.8998                 1.1787                 0.8394
 IR Inten    --      7.0010                 4.5086                 3.9834

                     28                     29                     30
                      A                      A                      A
 Frequencies --    953.9994               964.8610              1007.0250
 Red. masses --      1.8637                 1.6321                 2.0509
 Frc consts  --      0.9993                 0.8952                 1.2254
 IR Inten    --     13.0701                 4.4915                 5.7605

                     31                     32                     33
                      A                      A                      A
 Frequencies --   1022.0033              1028.5125              1046.9691
 Red. masses --      1.9825                 2.1288                10.3546
 Frc consts  --      1.2200                 1.3268                 6.6873
 IR Inten    --      5.5167                 3.5095                72.7179

                     34                     35                     36
                      A                      A                      A
 Frequencies --   1070.1866              1110.4239              1128.4710
 Red. masses --      2.5195                 1.8963                 1.5518
 Frc consts  --      1.7001                 1.3777                 1.1643
 IR Inten    --      9.4209                43.9577                16.2361

                     37                     38                     39
                      A                      A                      A
 Frequencies --   1170.2754              1178.5040              1183.7303
 Red. masses --      1.1708                 1.7791                 1.3613
 Frc consts  --      0.9448                 1.4558                 1.1239
 IR Inten    --      0.2811                13.7816                 5.0325

                     40                     41                     42
                      A                      A                      A
 Frequencies --   1213.2668              1228.8259              1286.9977
 Red. masses --      2.2723                 2.1364                 1.7630
 Frc consts  --      1.9708                 1.9007                 1.7205
 IR Inten    --    129.6787                 6.7630                 4.7339

                     43                     44                     45
                      A                      A                      A
 Frequencies --   1294.5291              1313.0218              1324.6494
 Red. masses --      1.4513                 1.4552                 1.2822
 Frc consts  --      1.4329                 1.4782                 1.3256
 IR Inten    --      5.5590                 4.6517                 1.6336

                     46                     47                     48
                      A                      A                      A
 Frequencies --   1351.9425              1372.7908              1374.6631
 Red. masses --      1.4821                 1.8299                 1.3240
 Frc consts  --      1.5961                 2.0318                 1.4741
 IR Inten    --      5.4271                22.5172                 3.6599

                     49                     50                     51
                      A                      A                      A
 Frequencies --   1399.9933              1408.3423              1422.1372
 Red. masses --      1.5343                 1.5852                 1.4416
 Frc consts  --      1.7717                 1.8525                 1.7179
 IR Inten    --      1.1411                 4.7029                 0.5576

                     52                     53                     54
                      A                      A                      A
 Frequencies --   1442.3427              1444.5912              1509.7054
 Red. masses --      1.2546                 1.2535                 1.0746
 Frc consts  --      1.5377                 1.5412                 1.4431
 IR Inten    --      7.5615                 6.2291                 5.7338

                     55                     56                     57
                      A                      A                      A
 Frequencies --   1516.7003              1525.9081              1531.2985
 Red. masses --      1.0637                 1.0569                 1.0537
 Frc consts  --      1.4417                 1.4499                 1.4558
 IR Inten    --      4.3173                 0.1685                 8.8744

                     58                     59                     60
                      A                      A                      A
 Frequencies --   1538.6576              1544.5274              1554.6436
 Red. masses --      1.0535                 1.0748                 1.0646
 Frc consts  --      1.4694                 1.5106                 1.5161
 IR Inten    --      0.7873                 2.1066                11.1384

                     61                     62                     63
                      A                      A                      A
 Frequencies --   1569.8546              1840.6415              3016.3662
 Red. masses --      1.1090                 9.4427                 1.0574
 Frc consts  --      1.6102                18.8488                 5.6686
 IR Inten    --      2.1079               250.5881                80.6116

                     64                     65                     66
                      A                      A                      A
 Frequencies --   3038.8225              3045.9250              3048.9848
 Red. masses --      1.0569                 1.0515                 1.0390
 Frc consts  --      5.7503                 5.7477                 5.6909
 IR Inten    --     41.0668                13.5316                11.0736

                     67                     68                     69
                      A                      A                      A
 Frequencies --   3051.8543              3052.4315              3065.7657
 Red. masses --      1.0525                 1.0733                 1.0786
 Frc consts  --      5.7757                 5.8920                 5.9731
 IR Inten    --     13.2238                32.0278                17.9078

                     70                     71                     72
                      A                      A                      A
 Frequencies --   3069.6394              3084.3417              3088.9322
 Red. masses --      1.1063                 1.1066                 1.1078
 Frc consts  --      6.1417                 6.2024                 6.2277
 IR Inten    --     51.1889                21.4433                45.4635

                     73                     74                     75
                      A                      A                      A
 Frequencies --   3109.2575              3110.7649              3122.8265
 Red. masses --      1.0987                 1.1020                 1.1012
 Frc consts  --      6.2583                 6.2829                 6.3270
 IR Inten    --     23.8219                34.7524                34.3681

                     76                     77                     78
                      A                      A                      A
 Frequencies --   3140.0721              3153.2729              3678.7850
 Red. masses --      1.0972                 1.0929                 1.0640
 Frc consts  --      6.3742                 6.4025                 8.4839
 IR Inten    --     35.3599                16.9067                51.1094

 - Thermochemistry -
 -------------------
 Temperature   298.150 Kelvin.  Pressure   1.00000 Atm.
 Atom     1 has atomic number  6 and mass  12.00000

 Molecular mass:   172.10994 amu.
 Principal axes and moments of inertia in atomic units:
                           1         2         3
     Eigenvalues --  1516.507512477.207393225.47744
           X            0.99892  -0.04633  -0.00361
           Y            0.04638   0.99884   0.01267
           Z            0.00302  -0.01282   0.99991
 This molecule is an asymmetric top.
 Rotational symmetry number  1.
 Warning -- assumption of classical behavior for rotation
           may cause significant error
 Rotational temperatures (Kelvin)      0.05711     0.03496     0.02685
 Rotational constants (GHZ):           1.19006     0.72854     0.55953
 Zero-point vibrational energy     645531.4 (Joules/Mol)
                                  154.28571 (Kcal/Mol)
 Warning -- explicit consideration of  18 degrees of freedom as
           vibrations may cause significant error
 Vibrational temperatures:     67.11    79.35   102.26   120.31   165.84
          (Kelvin)            237.90   270.91   310.25   341.81   392.60
                              444.79   511.63   517.69   563.10   579.10
                              635.50   786.99   869.25   911.48   995.40
                             1107.95  1130.01  1213.95  1233.67  1244.45
                             1320.68  1357.93  1372.59  1388.22  1448.88
                             1470.43  1479.80  1506.36  1539.76  1597.65
                             1623.62  1683.77  1695.60  1703.12  1745.62
                             1768.01  1851.70  1862.54  1889.15  1905.88
                             1945.14  1975.14  1977.83  2014.28  2026.29
                             2046.14  2075.21  2078.44  2172.13  2182.19
                             2195.44  2203.20  2213.79  2222.23  2236.79
                             2258.67  2648.27  4339.88  4372.19  4382.41
                             4386.81  4390.94  4391.77  4410.95  4416.53
                             4437.68  4444.28  4473.53  4475.70  4493.05
                             4517.86  4536.86  5292.95

 Zero-point correction=                           0.245870 (Hartree/Particle)
 Thermal correction to Energy=                    0.258919
 Thermal correction to Enthalpy=                  0.259863
 Thermal correction to Gibbs Free Energy=         0.205881
 Sum of electronic and zero-point Energies=           -578.038125
 Sum of electronic and thermal Energies=              -578.025077
 Sum of electronic and thermal Enthalpies=            -578.024132
 Sum of electronic and thermal Free Energies=         -578.078114

                     E (Thermal)             CV                S
                      KCal/Mol        Cal/Mol-Kelvin    Cal/Mol-Kelvin
 Total                  162.474             48.021            113.615
 Electronic               0.000              0.000              0.000
 Translational            0.889              2.981             41.336
 Rotational               0.889              2.981             30.872
 Vibrational            160.697             42.060             41.406
 Vibration     1          0.595              1.979              4.955
 Vibration     2          0.596              1.976              4.623
 Vibration     3          0.598              1.968              4.123
 Vibration     4          0.601              1.960              3.804
 Vibration     5          0.608              1.937              3.178
 Vibration     6          0.624              1.885              2.488
 Vibration     7          0.633              1.856              2.245
 Vibration     8          0.645              1.817              1.995
 Vibration     9          0.656              1.783              1.821
 Vibration    10          0.676              1.723              1.578
 Vibration    11          0.698              1.656              1.367
 Vibration    12          0.731              1.564              1.141
 Vibration    13          0.734              1.555              1.123
 Vibration    14          0.759              1.489              0.995
 Vibration    15          0.768              1.465              0.954
 Vibration    16          0.801              1.379              0.821
 Vibration    17          0.902              1.146              0.550
 Vibration    18          0.963              1.023              0.443

 Optimization completed.
    -- Stationary point found.

 1\1\GINC-NODE203\Freq\RB3LYP\6-31G(d)\C9H16O3\VSC10255\09-Dec-2020\0\\
 #N Geom=AllCheck Guess=TCheck SCRF=Check GenChk RB3LYP/6-31G(d) Freq\\
 CID_117537806_JID_2849_neutraal\\0,1\C,0.9778523206,-0.0361134612,0.07
 51788368\C,0.6637252797,-1.470865388,-0.3556754681\C,1.0766390007,-2.5
 275003157,0.6892360872\C,0.4521061747,-2.39339325,2.106836596\C,-1.003
 7796941,-2.8183628178,2.3380752273\C,-1.3897396414,-2.8534341668,3.841
 0935565\O,-1.825228402,-4.2252768779,3.7522210692\C,-1.2884910269,-4.3
 43058141,2.4166162388\C,-2.0405491861,-2.0756374922,1.4955756607\C,0.8

 Normal termination of Gaussian 16 at Wed Dec  9 18:16:02 2020.

 ----------------------------------------------------------------------
 # B3LYP/6-311++G(d,p) empiricaldispersion=gd3bj scf=xqc pop=npa geom=c
 heck
 ----------------------------------------------------------------------

 ---------------------------------------
 CID_117537806_JID_2849_Energie_neutraal
 ---------------------------------------
 Structure from the checkpoint file:  "JID_2849.chk"
 Charge =  0 Multiplicity = 1

 SCF Done:  E(RB3LYP) =  -578.460979397     A.U. after   14 cycles
 Normal termination of Gaussian 16 at Wed Dec  9 18:19:48 2020.

 ----------------------------------------------------------------------
 # B3LYP/6-311++G(d,p) empiricaldispersion=gd3bj scf=xqc pop=npa geom=c
 heck
 ----------------------------------------------------------------------

 -------------------------------------
 CID_117537806_JID_2849_Energie_kation
 -------------------------------------
 Structure from the checkpoint file:  "JID_2849.chk"
 Charge =  1 Multiplicity = 2

 SCF Done:  E(UB3LYP) =  -578.121876294     A.U. after   26 cycles
 Normal termination of Gaussian 16 at Wed Dec  9 18:27:38 2020.
 Gaussian 16:  ES64L-G16RevA.03 25-Dec-2016

 ------------------------------------
 CID_117537806_JID_2849_Energie_anion
 ------------------------------------
 Structure from the checkpoint file:  "JID_2849.chk"
 Charge = -1 Multiplicity = 2

                         Standard orientation:
 ---------------------------------------------------------------------
 Center     Atomic      Atomic             Coordinates (Angstroms)
 Number     Number       Type             X           Y           Z
 ---------------------------------------------------------------------
      1          6           0        2.626120   -2.092145   -0.233320
      2          6           0        2.262756   -0.716803    0.331680
      3          6           0        1.350196    0.105775   -0.600745
      4          6           0       -0.011511   -0.534285   -0.992784
      5          6           0       -1.162065   -0.551693    0.021907
      6          6           0       -2.510811   -0.996984   -0.604079
      7          8           0       -3.175238    0.202528   -0.157751
      8          6           0       -1.918715    0.784919    0.251848
      9          6           0       -0.865628   -1.284812    1.329959
     10          6           0        1.112486    1.519082   -0.104170
     11          8           0        1.012194    2.498757   -0.809632
     12          8           0        0.971650    1.591886    1.247075
     13          1           0        1.757014   -2.756140   -0.287565
     14          1           0        3.372251   -2.582137    0.400988
     15          1           0        3.047722   -2.011188   -1.242744
     16          1           0        1.811027   -0.827945    1.318940
     17          1           0        3.184023   -0.140456    0.485554
     18          1           0        1.887667    0.240520   -1.546725
     19          1           0        0.182537   -1.564040   -1.317207
     20          1           0       -0.365157    0.001574   -1.881727
     21          1           0       -2.499288   -1.073338   -1.701040
     22          1           0       -2.966473   -1.903722   -0.186119
     23          1           0       -1.951814    1.147684    1.285903
     24          1           0       -1.616618    1.605919   -0.411508
     25          1           0       -1.787376   -1.398915    1.911480
     26          1           0       -0.457530   -2.285545    1.143920
     27          1           0       -0.155304   -0.726724    1.944437
     28          1           0        0.791514    2.530779    1.444100
 ---------------------------------------------------------------------

 SCF Done:  E(UB3LYP) =  -578.449109222     A.U. after   33 cycles
 SCF Done:  E(UB3LYP) =  -578.449109222     a.u. after    1 cycles

 The electronic state is 2-A.
 Alpha  occ. eigenvalues --  -19.07065 -19.02259 -19.01707 -10.20613 -10.11981
 Alpha  occ. eigenvalues --  -10.11609 -10.09335 -10.09212 -10.08015 -10.06907
 Alpha  occ. eigenvalues --  -10.06174 -10.05746  -1.01134  -0.94820  -0.92183
 Alpha  occ. eigenvalues --   -0.73174  -0.68684  -0.63126  -0.59790  -0.58613
 Alpha  occ. eigenvalues --   -0.55570  -0.51732  -0.48505  -0.44270  -0.40404
 Alpha  occ. eigenvalues --   -0.39535  -0.38624  -0.37747  -0.37377  -0.35553
 Alpha  occ. eigenvalues --   -0.34320  -0.32368  -0.31959  -0.30134  -0.29855
 Alpha  occ. eigenvalues --   -0.29528  -0.28931  -0.27990  -0.26354  -0.25784
 Alpha  occ. eigenvalues --   -0.24306  -0.22844  -0.22703  -0.21066  -0.19943
 Alpha  occ. eigenvalues --   -0.18016  -0.15941   0.04383
 Alpha virt. eigenvalues --    0.06541   0.07405   0.07985   0.08730   0.09544
 Alpha virt. eigenvalues --    0.09729   0.10221   0.10421   0.11420   0.11941
 Alpha virt. eigenvalues --    0.12778   0.13173   0.13609   0.14121   0.14637

  Beta  occ. eigenvalues --  -19.07015 -19.02256 -19.01692 -10.20601 -10.11966
  Beta  occ. eigenvalues --  -10.11591 -10.09336 -10.09198 -10.07993 -10.06888
  Beta  occ. eigenvalues --  -10.06146 -10.05699  -1.01065  -0.94809  -0.92127
  Beta  occ. eigenvalues --   -0.73140  -0.68655  -0.63068  -0.59754  -0.58552
  Beta  occ. eigenvalues --   -0.55518  -0.51622  -0.48425  -0.44219  -0.40370
  Beta  occ. eigenvalues --   -0.39495  -0.38584  -0.37714  -0.37343  -0.35526
  Beta  occ. eigenvalues --   -0.34277  -0.32332  -0.31930  -0.30093  -0.29811
  Beta  occ. eigenvalues --   -0.29495  -0.28897  -0.27946  -0.26304  -0.25739
  Beta  occ. eigenvalues --   -0.24271  -0.22795  -0.22663  -0.21041  -0.19920
  Beta  occ. eigenvalues --   -0.17965  -0.15930
  Beta virt. eigenvalues --    0.06823   0.07833   0.08010   0.08638   0.09069
  Beta virt. eigenvalues --    0.10067   0.10239   0.10576   0.10683   0.11735
  Beta virt. eigenvalues --    0.12478   0.13080   0.13506   0.13907   0.14361

 Mulliken charges and spin densities:
               1          2
     1  C    1.688009  -2.319286
     2  C   -1.492653   1.167521
     3  C    0.997261  -0.415106
     4  C    1.922725  -2.541237
     5  C   -2.522256   3.229381
     6  C    0.612416  -0.905140
     7  O   -0.200895   0.012057
     8  C   -0.099747  -0.288341
     9  C    1.049579  -1.853264
    10  C   -0.341762  -0.191635
    11  O   -0.260940   0.039435
    12  O   -0.175001   0.057723
    13  H   -0.348653   0.488853
    14  H   -0.435548   0.580109
    15  H   -0.243343   0.380482
    16  H    0.044377   0.107724
    17  H   -0.389333   0.569154
    18  H   -0.139140   0.403997
    19  H   -0.238963   0.423092
    20  H    0.231693  -0.059774
    21  H   -0.105993   0.252309
    22  H   -0.081187   0.233636
    23  H   -0.045845   0.219903
    24  H    0.105622   0.095374
    25  H    0.053287   0.110850
    26  H   -0.341654   0.505019
    27  H    0.104021   0.051979
    28  H   -0.346076   0.645186
 Sum of Mulliken charges =  -1.00000   1.00000

 Dipole moment (field-independent basis, Debye):
    X=             -3.0888    Y=              0.8899    Z=             -0.6376  Tot=              3.2770
 Quadrupole moment (field-independent basis, Debye-Ang):
   XX=           -130.3614   YY=           -128.6232   ZZ=           -109.3353
   XY=              5.5802   XZ=              0.5879   YZ=             -2.9155

 Summary of Natural Population Analysis:

                                       Natural Population
                Natural  -----------------------------------------------
    Atom  No    Charge         Core      Valence    Rydberg      Total
 -----------------------------------------------------------------------
      C    1   -0.28552      0.99967     2.28062    0.00523     3.28552
      C    2   -0.18991      0.99962     2.18119    0.00911     3.18991
      C    3   -0.15145      0.99953     2.13976    0.01216     3.15145
      C    4   -0.18479      0.99957     2.17427    0.01095     3.18479
      C    5   -0.06598      0.99956     2.05399    0.01243     3.06598
      C    6    0.00518      0.99958     1.98221    0.01303     2.99482
      O    7   -0.30792      0.99991     3.29988    0.00813     4.30792
      C    8   -0.00253      0.99957     1.99002    0.01294     3.00253
      C    9   -0.28714      0.99962     2.28052    0.00700     3.28714
      C   10    0.41358      0.99967     1.55998    0.02676     2.58642
      O   11   -0.30807      0.99987     3.30218    0.00603     4.30807
      O   12   -0.34747      0.99988     3.33970    0.00789     4.34747
      H   13    0.09763      0.00000     0.40080    0.00157     0.40237
      H   14    0.10251      0.00000     0.39615    0.00134     0.39749
      H   15    0.09687      0.00000     0.40163    0.00150     0.40313
      H   16    0.10242      0.00000     0.39555    0.00204     0.39758
      H   17    0.09879      0.00000     0.39976    0.00144     0.40121
      H   18    0.11167      0.00000     0.38666    0.00167     0.38833
      H   19    0.10740      0.00000     0.39110    0.00150     0.39260
      H   20    0.10395      0.00000     0.39459    0.00145     0.39605
      H   21    0.08074      0.00000     0.41774    0.00152     0.41926
      H   22    0.08311      0.00000     0.41544    0.00145     0.41689
      H   23    0.08707      0.00000     0.41134    0.00160     0.41293
      H   24    0.08677      0.00000     0.41176    0.00148     0.41323
      H   25    0.09988      0.00000     0.39875    0.00137     0.40012
      H   26    0.10209      0.00000     0.39662    0.00129     0.39791
      H   27    0.10709      0.00000     0.39132    0.00159     0.39291
      H   28    0.24401      0.00000     0.24461    0.01138     0.25599
 =======================================================================
   * Total *   -0.00000     11.99604    34.83813    0.16584    47.00000

 Normal termination of Gaussian 16 at Wed Dec  9 18:37:44 2020.
