 Gaussian 16, Revision A.03,

 -----------------------------------------------------------
 # opt freq B3LYP/6-31G(d) empiricaldispersion=gd3bj scf=xqc
 -----------------------------------------------------------

 -----------------------------
 CID_43200452_JID_718_neutraal
 -----------------------------
 Symbolic Z-matrix:
 Charge =  0 Multiplicity = 1

 SCF Done:  E(RB3LYP) =  -410.401807405     A.U. after   12 cycles
 SCF Done:  E(RB3LYP) =  -410.404689075     A.U. after   10 cycles
 SCF Done:  E(RB3LYP) =  -410.404951049     A.U. after   10 cycles
 SCF Done:  E(RB3LYP) =  -410.404997326     A.U. after   10 cycles
 SCF Done:  E(RB3LYP) =  -410.405100450     A.U. after    9 cycles
 SCF Done:  E(RB3LYP) =  -410.405115042     A.U. after    9 cycles
 SCF Done:  E(RB3LYP) =  -410.405127330     A.U. after    9 cycles
 SCF Done:  E(RB3LYP) =  -410.405131789     A.U. after    8 cycles
 SCF Done:  E(RB3LYP) =  -410.405134699     A.U. after    8 cycles
 SCF Done:  E(RB3LYP) =  -410.405135597     A.U. after    7 cycles
 SCF Done:  E(RB3LYP) =  -410.405136094     A.U. after    7 cycles
 Optimization completed.
    -- Stationary point found.

 1\1\GINC-NODE203\FOpt\RB3LYP\6-31G(d)\C9H21N1\VSC10255\08-Dec-2020\0\\
 # opt freq B3LYP/6-31G(d) empiricaldispersion=gd3bj scf=xqc\\CID_43200
 452_JID_718_neutraal\\0,1\C,0.8223097033,0.0580146073,0.1196275174\C,0
 .1500425457,-1.0694054805,-0.6697467743\C,0.8014378748,-2.4384470542,-
 0.4562550497\N,0.680419528,-2.8732790512,0.9314288462\C,1.0867056685,-
 4.2580799167,1.2096800105\C,2.5961012652,-4.4821471584,1.023212074\C,0
 .5625586736,-4.6558646781,2.6113960903\C,-0.9667740829,-4.5326800205,2
 .6559055182\C,1.0023384598,-6.0736269428,3.0523494202\C,2.2754610779,-

 Normal termination of Gaussian 16 at Tue Dec  8 12:29:45 2020.

 --------------------------------------------------------------------
 #N Geom=AllCheck Guess=TCheck SCRF=Check GenChk RB3LYP/6-31G(d) Freq
 --------------------------------------------------------------------

 Structure from the checkpoint file:  "JID_718.chk"
 -----------------------------
 CID_43200452_JID_718_neutraal
 -----------------------------
 Charge =  0 Multiplicity = 1

 SCF Done:  E(RB3LYP) =  -410.405136094     A.U. after    1 cycles

  Exact polarizability: 123.006   0.201  97.747  -0.794   0.223  91.697
 Approx polarizability: 142.504  -1.521 134.200   0.028   1.149 137.735

                      1                      2                      3
                      A                      A                      A
 Frequencies --     29.8430                49.1560                88.6197
 Red. masses --      2.5781                 2.8373                 2.4967
 Frc consts  --      0.0014                 0.0040                 0.0116
 IR Inten    --      0.2410                 0.0830                 0.4405

                      4                      5                      6
                      A                      A                      A
 Frequencies --    103.5897               119.5729               179.7115
 Red. masses --      2.4520                 2.1435                 1.6635
 Frc consts  --      0.0155                 0.0181                 0.0317
 IR Inten    --      0.1083                 0.2596                 0.9482

                      7                      8                      9
                      A                      A                      A
 Frequencies --    207.0623               236.4492               247.3124
 Red. masses --      1.4536                 1.1895                 1.5327
 Frc consts  --      0.0367                 0.0392                 0.0552
 IR Inten    --      0.0974                 0.0360                 0.2076

                     10                     11                     12
                      A                      A                      A
 Frequencies --    264.9134               277.0295               310.1535
 Red. masses --      1.4002                 1.8379                 1.3328
 Frc consts  --      0.0579                 0.0831                 0.0755
 IR Inten    --      0.6812                 0.2492                 0.3980

                     13                     14                     15
                      A                      A                      A
 Frequencies --    315.0007               354.3719               396.9438
 Red. masses --      1.9535                 2.2791                 2.6249
 Frc consts  --      0.1142                 0.1686                 0.2437
 IR Inten    --      1.4642                 0.6356                 2.5953

                     16                     17                     18
                      A                      A                      A
 Frequencies --    422.6063               458.3623               497.7848
 Red. masses --      2.2316                 2.4546                 2.6989
 Frc consts  --      0.2348                 0.3038                 0.3940
 IR Inten    --      0.6402                 1.5535                 0.3338

                     19                     20                     21
                      A                      A                      A
 Frequencies --    547.3827               749.4011               775.3116
 Red. masses --      2.2614                 1.5266                 1.3436
 Frc consts  --      0.3992                 0.5051                 0.4759
 IR Inten    --      1.4112                39.6590                 2.4102

                     22                     23                     24
                      A                      A                      A
 Frequencies --    792.4937               825.3317               876.1222
 Red. masses --      1.1840                 1.6464                 1.9968
 Frc consts  --      0.4381                 0.6607                 0.9031
 IR Inten    --     29.7055                 5.6366                 0.4958

                     25                     26                     27
                      A                      A                      A
 Frequencies --    900.2175               921.4346               943.3015
 Red. masses --      2.0284                 1.5058                 1.4699
 Frc consts  --      0.9685                 0.7533                 0.7706
 IR Inten    --      1.6495                 4.1494                 5.8434

                     28                     29                     30
                      A                      A                      A
 Frequencies --    982.9588              1014.1413              1026.9484
 Red. masses --      1.3380                 1.6642                 1.4628
 Frc consts  --      0.7617                 1.0084                 0.9089
 IR Inten    --      1.8893                 0.5692                12.3242

                     31                     32                     33
                      A                      A                      A
 Frequencies --   1040.5166              1051.8316              1076.2250
 Red. masses --      1.7107                 1.9060                 2.9079
 Frc consts  --      1.0912                 1.2424                 1.9844
 IR Inten    --      3.0470                 4.2473                 6.6129

                     34                     35                     36
                      A                      A                      A
 Frequencies --   1101.5359              1143.8715              1151.7257
 Red. masses --      1.8382                 1.8977                 2.5699
 Frc consts  --      1.3141                 1.4630                 2.0085
 IR Inten    --      3.1436                26.9438                32.7480

                     37                     38                     39
                      A                      A                      A
 Frequencies --   1170.8439              1185.1376              1202.4660
 Red. masses --      2.0265                 2.1833                 1.9127
 Frc consts  --      1.6368                 1.8067                 1.6295
 IR Inten    --      5.7569                17.0197                15.7409

                     40                     41                     42
                      A                      A                      A
 Frequencies --   1219.0700              1269.9094              1302.8568
 Red. masses --      2.0833                 1.3097                 1.2623
 Frc consts  --      1.8242                 1.2444                 1.2624
 IR Inten    --      0.2103                 1.1633                 3.1236

                     43                     44                     45
                      A                      A                      A
 Frequencies --   1322.1596              1339.0239              1345.4945
 Red. masses --      1.2310                 1.2633                 1.2428
 Frc consts  --      1.2678                 1.3346                 1.3256
 IR Inten    --      0.4206                 2.7013                 8.2182

                     46                     47                     48
                      A                      A                      A
 Frequencies --   1371.7384              1394.0462              1398.9054
 Red. masses --      1.2176                 1.3660                 1.4280
 Frc consts  --      1.3499                 1.5641                 1.6464
 IR Inten    --     15.1322                 5.7403                 6.1972

                     49                     50                     51
                      A                      A                      A
 Frequencies --   1408.0763              1420.6615              1429.4263
 Red. masses --      1.4535                 1.3263                 1.2658
 Frc consts  --      1.6980                 1.5772                 1.5238
 IR Inten    --      0.6083                 5.7726                 3.1574

                     52                     53                     54
                      A                      A                      A
 Frequencies --   1435.0200              1441.9888              1444.6122
 Red. masses --      1.2437                 1.2413                 1.2793
 Frc consts  --      1.5090                 1.5208                 1.5730
 IR Inten    --      9.1607                 4.8731                 7.8362

                     55                     56                     57
                      A                      A                      A
 Frequencies --   1505.6591              1511.9546              1517.3707
 Red. masses --      1.1455                 1.1036                 1.0608
 Frc consts  --      1.5301                 1.4865                 1.4390
 IR Inten    --     15.5285                15.1360                 2.3653

                     58                     59                     60
                      A                      A                      A
 Frequencies --   1521.2368              1523.6547              1529.4625
 Red. masses --      1.0534                 1.0596                 1.0647
 Frc consts  --      1.4363                 1.4493                 1.4675
 IR Inten    --      3.3466                 0.3073                14.5288

                     61                     62                     63
                      A                      A                      A
 Frequencies --   1534.2844              1538.4307              1540.8132
 Red. masses --      1.0553                 1.0571                 1.0692
 Frc consts  --      1.4637                 1.4741                 1.4955
 IR Inten    --      2.8714                10.6900                 4.3718

                     64                     65                     66
                      A                      A                      A
 Frequencies --   1543.5585              1545.8510              1547.8658
 Red. masses --      1.0597                 1.0575                 1.0661
 Frc consts  --      1.4876                 1.4889                 1.5050
 IR Inten    --      4.4262                11.6472                 5.2130

                     67                     68                     69
                      A                      A                      A
 Frequencies --   2932.7564              2985.8208              3015.8494
 Red. masses --      1.0727                 1.0815                 1.0834
 Frc consts  --      5.4361                 5.6805                 5.8057
 IR Inten    --     75.0516                12.5836                13.9650

                     70                     71                     72
                      A                      A                      A
 Frequencies --   3030.3649              3040.4457              3040.6969
 Red. masses --      1.0602                 1.0462                 1.0573
 Frc consts  --      5.7361                 5.6980                 5.7598
 IR Inten    --     18.9626                46.1473                24.2434

                     73                     74                     75
                      A                      A                      A
 Frequencies --   3041.7853              3044.4426              3048.3751
 Red. masses --      1.0423                 1.0399                 1.0412
 Frc consts  --      5.6821                 5.6788                 5.7007
 IR Inten    --     28.2608                10.2629                43.5427

                     76                     77                     78
                      A                      A                      A
 Frequencies --   3062.6221              3063.0843              3081.0867
 Red. masses --      1.0858                 1.0965                 1.1005
 Frc consts  --      6.0006                 6.0614                 6.1555
 IR Inten    --     54.3774                26.8645                10.8064

                     79                     80                     81
                      A                      A                      A
 Frequencies --   3098.9554              3106.6257              3109.1248
 Red. masses --      1.0993                 1.1019                 1.1019
 Frc consts  --      6.2198                 6.2655                 6.2757
 IR Inten    --     39.0734                41.5271                50.5123

                     82                     83                     84
                      A                      A                      A
 Frequencies --   3112.5548              3114.9775              3126.6719
 Red. masses --      1.0974                 1.1016                 1.1013
 Frc consts  --      6.2637                 6.2977                 6.3436
 IR Inten    --     51.0237                55.0282                60.4899

                     85                     86                     87
                      A                      A                      A
 Frequencies --   3134.6123              3153.5925              3481.0272
 Red. masses --      1.0988                 1.0981                 1.0727
 Frc consts  --      6.3613                 6.4343                 7.6583
 IR Inten    --     18.5744                17.9165                 0.9470

 - Thermochemistry -
 -------------------
 Temperature   298.150 Kelvin.  Pressure   1.00000 Atm.
 Atom     1 has atomic number  6 and mass  12.00000

 Molecular mass:   143.16740 amu.
 Principal axes and moments of inertia in atomic units:
                           1         2         3
     Eigenvalues --   761.010493216.481653526.39345
           X            1.00000   0.00158   0.00168
           Y           -0.00157   0.99997  -0.00772
           Z           -0.00169   0.00772   0.99997
 This molecule is an asymmetric top.
 Rotational symmetry number  1.
 Warning -- assumption of classical behavior for rotation
           may cause significant error
 Rotational temperatures (Kelvin)      0.11381     0.02693     0.02456
 Rotational constants (GHZ):           2.37151     0.56109     0.51178
 Zero-point vibrational energy     770193.4 (Joules/Mol)
                                  184.08065 (Kcal/Mol)
 Warning -- explicit consideration of  19 degrees of freedom as
           vibrations may cause significant error
 Vibrational temperatures:     42.94    70.72   127.50   149.04   172.04
          (Kelvin)            258.56   297.92   340.20   355.83   381.15
                              398.58   446.24   453.22   509.86   571.11
                              608.04   659.48   716.20   787.56  1078.22
                             1115.50  1140.22  1187.47  1260.54  1295.21
                             1325.74  1357.20  1414.26  1459.12  1477.55
                             1497.07  1513.35  1548.45  1584.86  1645.78
                             1657.08  1684.58  1705.15  1730.08  1753.97
                             1827.12  1874.52  1902.29  1926.56  1935.87
                             1973.63  2005.72  2012.71  2025.91  2044.02
                             2056.63  2064.67  2074.70  2078.47  2166.31
                             2175.37  2183.16  2188.72  2192.20  2200.56
                             2207.49  2213.46  2216.89  2220.84  2224.13
                             2227.03  4219.58  4295.93  4339.13  4360.02
                             4374.52  4374.88  4376.45  4380.27  4385.93
                             4406.43  4407.10  4433.00  4458.71  4469.74
                             4473.34  4478.27  4481.76  4498.58  4510.01
                             4537.32  5008.42

 Zero-point correction=                           0.293351 (Hartree/Particle)
 Thermal correction to Energy=                    0.306615
 Thermal correction to Enthalpy=                  0.307559
 Thermal correction to Gibbs Free Energy=         0.253536
 Sum of electronic and zero-point Energies=           -410.111785
 Sum of electronic and thermal Energies=              -410.098521
 Sum of electronic and thermal Enthalpies=            -410.097577
 Sum of electronic and thermal Free Energies=         -410.151600

                     E (Thermal)             CV                S
                      KCal/Mol        Cal/Mol-Kelvin    Cal/Mol-Kelvin
 Total                  192.404             48.706            113.700
 Electronic               0.000              0.000              0.000
 Translational            0.889              2.981             40.788
 Rotational               0.889              2.981             30.535
 Vibrational            190.626             42.744             42.377
 Vibration     1          0.594              1.984              5.840
 Vibration     2          0.595              1.978              4.851
 Vibration     3          0.601              1.957              3.690
 Vibration     4          0.605              1.946              3.386
 Vibration     5          0.609              1.933              3.107
 Vibration     6          0.629              1.867              2.331
 Vibration     7          0.641              1.830              2.069
 Vibration     8          0.655              1.785              1.829
 Vibration     9          0.661              1.767              1.750
 Vibration    10          0.671              1.737              1.629
 Vibration    11          0.678              1.716              1.552
 Vibration    12          0.699              1.654              1.362
 Vibration    13          0.702              1.645              1.336
 Vibration    14          0.730              1.566              1.147
 Vibration    15          0.763              1.477              0.974
 Vibration    16          0.785              1.421              0.883
 Vibration    17          0.816              1.342              0.771
 Vibration    18          0.853              1.255              0.664
 Vibration    19          0.903              1.145              0.550

 Optimization completed.
    -- Stationary point found.

 1\1\GINC-NODE203\Freq\RB3LYP\6-31G(d)\C9H21N1\VSC10255\08-Dec-2020\0\\
 #N Geom=AllCheck Guess=TCheck SCRF=Check GenChk RB3LYP/6-31G(d) Freq\\
 CID_43200452_JID_718_neutraal\\0,1\C,0.8223097033,0.0580146073,0.11962
 75174\C,0.1500425457,-1.0694054805,-0.6697467743\C,0.8014378748,-2.438
 4470542,-0.4562550497\N,0.680419528,-2.8732790512,0.9314288462\C,1.086
 7056685,-4.2580799167,1.2096800105\C,2.5961012652,-4.4821471584,1.0232
 12074\C,0.5625586736,-4.6558646781,2.6113960903\C,-0.9667740829,-4.532
 6800205,2.6559055182\C,1.0023384598,-6.0736269428,3.0523494202\C,2.275

 Normal termination of Gaussian 16 at Tue Dec  8 12:43:26 2020.

 ----------------------------------------------------------------------
 # B3LYP/6-311++G(d,p) empiricaldispersion=gd3bj scf=xqc pop=npa geom=c
 heck
 ----------------------------------------------------------------------

 -------------------------------------
 CID_43200452_JID_718_Energie_neutraal
 -------------------------------------
 Structure from the checkpoint file:  "JID_718.chk"
 Charge =  0 Multiplicity = 1

 SCF Done:  E(RB3LYP) =  -410.525001267     A.U. after   12 cycles
 Normal termination of Gaussian 16 at Tue Dec  8 12:50:18 2020.

 ----------------------------------------------------------------------
 # B3LYP/6-311++G(d,p) empiricaldispersion=gd3bj scf=xqc pop=npa geom=c
 heck
 ----------------------------------------------------------------------

 -----------------------------------
 CID_43200452_JID_718_Energie_kation
 -----------------------------------
 Structure from the checkpoint file:  "JID_718.chk"
 Charge =  1 Multiplicity = 2

 SCF Done:  E(UB3LYP) =  -410.224270275     A.U. after   17 cycles
 Normal termination of Gaussian 16 at Tue Dec  8 13:04:50 2020.
 Gaussian 16:  ES64L-G16RevA.03 25-Dec-2016

 ----------------------------------
 CID_43200452_JID_718_Energie_anion
 ----------------------------------
 Structure from the checkpoint file:  "JID_718.chk"
 Charge = -1 Multiplicity = 2

                         Standard orientation:
 ---------------------------------------------------------------------
 Center     Atomic      Atomic             Coordinates (Angstroms)
 Number     Number       Type             X           Y           Z
 ---------------------------------------------------------------------
      1          6           0        3.753118   -0.052122    1.143073
      2          6           0        3.388420    0.276087   -0.307929
      3          6           0        2.080802   -0.371497   -0.771543
      4          7           0        0.941112    0.130039   -0.010650
      5          6           0       -0.385885   -0.265918   -0.503054
      6          6           0       -0.648133   -1.773353   -0.354333
      7          6           0       -1.453130    0.625992    0.177576
      8          6           0       -1.187205    2.103164   -0.143765
      9          6           0       -2.905256    0.244659   -0.201650
     10          6           0       -3.599946   -0.715462    0.770146
     11          1           0        3.019407    0.362220    1.844134
     12          1           0        4.728807    0.367688    1.410876
     13          1           0        3.801226   -1.136848    1.303858
     14          1           0        3.302245    1.362573   -0.430233
     15          1           0        4.195505   -0.062392   -0.971077
     16          1           0        1.906475   -0.117669   -1.824917
     17          1           0        2.194752   -1.471979   -0.730342
     18          1           0        1.024591   -0.163299    0.961808
     19          1           0       -0.398530   -0.022579   -1.576304
     20          1           0       -0.677741   -2.058292    0.705335
     21          1           0       -1.594696   -2.076139   -0.812036
     22          1           0        0.146891   -2.353178   -0.834364
     23          1           0       -1.340554    0.489855    1.265980
     24          1           0       -1.374088    2.301948   -1.207676
     25          1           0       -1.851881    2.753781    0.436208
     26          1           0       -0.149616    2.365979    0.072050
     27          1           0       -3.502982    1.163544   -0.251192
     28          1           0       -2.922229   -0.170854   -1.219112
     29          1           0       -3.643654   -0.278600    1.775315
     30          1           0       -4.628889   -0.921216    0.452944
     31          1           0       -3.079536   -1.674122    0.852168
 ---------------------------------------------------------------------

 SCF Done:  E(UB3LYP) =  -410.506469332     A.U. after   28 cycles

 The electronic state is 2-A.
 Alpha  occ. eigenvalues --  -14.18949 -10.09462 -10.08607 -10.06946 -10.06393
 Alpha  occ. eigenvalues --  -10.06298 -10.05687 -10.05583 -10.05267 -10.05111
 Alpha  occ. eigenvalues --   -0.80603  -0.70827  -0.67012  -0.62917  -0.61907
 Alpha  occ. eigenvalues --   -0.56926  -0.53402  -0.50780  -0.47821  -0.46177
 Alpha  occ. eigenvalues --   -0.38166  -0.37963  -0.35155  -0.33564  -0.33435
 Alpha  occ. eigenvalues --   -0.32061  -0.31215  -0.30762  -0.30206  -0.29707
 Alpha  occ. eigenvalues --   -0.27960  -0.26566  -0.25266  -0.24818  -0.24481
 Alpha  occ. eigenvalues --   -0.23657  -0.23584  -0.22310  -0.21844  -0.20630
 Alpha  occ. eigenvalues --   -0.12152   0.04700
 Alpha virt. eigenvalues --    0.06407   0.07333   0.07547   0.08438   0.08853
 Alpha virt. eigenvalues --    0.09281   0.10348   0.10537   0.11066   0.11184
 Alpha virt. eigenvalues --    0.11644   0.12244   0.12829   0.13649   0.14066

  Beta  occ. eigenvalues --  -14.18939 -10.09453 -10.08589 -10.06939 -10.06378
  Beta  occ. eigenvalues --  -10.06281 -10.05650 -10.05551 -10.05238 -10.05101
  Beta  occ. eigenvalues --   -0.80582  -0.70803  -0.66975  -0.62877  -0.61869
  Beta  occ. eigenvalues --   -0.56865  -0.53350  -0.50715  -0.47753  -0.46126
  Beta  occ. eigenvalues --   -0.38131  -0.37935  -0.35124  -0.33517  -0.33405
  Beta  occ. eigenvalues --   -0.32026  -0.31180  -0.30718  -0.30171  -0.29682
  Beta  occ. eigenvalues --   -0.27921  -0.26530  -0.25218  -0.24785  -0.24439
  Beta  occ. eigenvalues --   -0.23618  -0.23545  -0.22259  -0.21820  -0.20608
  Beta  occ. eigenvalues --   -0.12131
  Beta virt. eigenvalues --    0.06824   0.07424   0.07787   0.08085   0.09109
  Beta virt. eigenvalues --    0.09327   0.09754   0.10674   0.10986   0.11463
  Beta virt. eigenvalues --    0.11653   0.12026   0.12663   0.13161   0.14012

 Mulliken charges and spin densities:
               1          2
     1  C    0.835334  -1.372102
     2  C    0.175045  -0.379212
     3  C    0.159228  -0.386083
     4  N    0.178086  -0.019474
     5  C   -0.958808   0.149340
     6  C    1.049936  -1.704329
     7  C    0.081377   0.698421
     8  C    0.180107  -0.688674
     9  C   -1.371983   0.967168
    10  C    1.098121  -1.709117
    11  H   -0.280169   0.406185
    12  H   -0.478724   0.626837
    13  H   -0.187945   0.330553
    14  H    0.094490   0.045837
    15  H   -0.262606   0.389329
    16  H   -0.153031   0.283973
    17  H   -0.028368   0.147996
    18  H    0.555132  -0.346952
    19  H    0.048265   0.104214
    20  H   -0.163265   0.324588
    21  H   -0.199310   0.349505
    22  H   -0.369120   0.515085
    23  H   -0.261433   0.395791
    24  H   -0.027071   0.154617
    25  H   -0.097494   0.221827
    26  H    0.226200  -0.064803
    27  H   -0.071180   0.225321
    28  H   -0.115342   0.272367
    29  H   -0.143345   0.274124
    30  H   -0.521207   0.654289
    31  H    0.009079   0.133379
 Sum of Mulliken charges =  -1.00000   1.00000

 Dipole moment (field-independent basis, Debye):
    X=             -0.7004    Y=              2.7452    Z=             -1.2359  Tot=              3.0910
 Quadrupole moment (field-independent basis, Debye-Ang):
   XX=           -160.4504   YY=           -107.7002   ZZ=           -100.6780
   XY=             -1.5655   XZ=             -3.0277   YZ=             -2.2768

 Summary of Natural Population Analysis:

                                       Natural Population
                Natural  -----------------------------------------------
    Atom  No    Charge         Core      Valence    Rydberg      Total
 -----------------------------------------------------------------------
      C    1   -0.28890      0.99967     2.28409    0.00515     3.28890
      C    2   -0.19164      0.99964     2.18257    0.00942     3.19164
      C    3   -0.08340      0.99962     2.07324    0.01054     3.08340
      N    4   -0.34566      0.99973     2.83507    0.01086     3.84566
      C    5   -0.00237      0.99958     1.99076    0.01202     3.00237
      C    6   -0.29647      0.99965     2.29075    0.00608     3.29647
      C    7   -0.11204      0.99958     2.10108    0.01138     3.11204
      C    8   -0.28262      0.99965     2.27805    0.00492     3.28262
      C    9   -0.19026      0.99962     2.18106    0.00958     3.19026
      C   10   -0.28373      0.99966     2.27920    0.00487     3.28373
      H   11    0.09514      0.00000     0.40371    0.00115     0.40486
      H   12    0.10005      0.00000     0.39857    0.00139     0.39995
      H   13    0.09728      0.00000     0.40129    0.00144     0.40272
      H   14    0.09476      0.00000     0.40402    0.00122     0.40524
      H   15    0.09490      0.00000     0.40392    0.00118     0.40510
      H   16    0.09079      0.00000     0.40778    0.00143     0.40921
      H   17    0.07851      0.00000     0.41981    0.00168     0.42149
      H   18    0.17064      0.00000     0.32606    0.00330     0.32936
      H   19    0.08640      0.00000     0.41160    0.00200     0.41360
      H   20    0.09671      0.00000     0.40192    0.00137     0.40329
      H   21    0.10171      0.00000     0.39719    0.00110     0.39829
      H   22    0.10167      0.00000     0.39723    0.00110     0.39833
      H   23    0.09006      0.00000     0.40813    0.00181     0.40994
      H   24    0.09254      0.00000     0.40649    0.00098     0.40746
      H   25    0.09445      0.00000     0.40461    0.00094     0.40555
      H   26    0.11000      0.00000     0.38878    0.00121     0.39000
      H   27    0.09526      0.00000     0.40357    0.00117     0.40474
      H   28    0.09478      0.00000     0.40403    0.00119     0.40522
      H   29    0.09487      0.00000     0.40387    0.00126     0.40513
      H   30    0.09817      0.00000     0.40063    0.00120     0.40183
      H   31    0.09840      0.00000     0.40028    0.00132     0.40160
 =======================================================================
   * Total *   -0.00000      9.99641    30.88935    0.11425    41.00000

 Normal termination of Gaussian 16 at Tue Dec  8 13:17:18 2020.
