 Gaussian 16, Revision A.03,

 -----------------------------------------------------------
 # opt freq B3LYP/6-31G(d) empiricaldispersion=gd3bj scf=xqc
 -----------------------------------------------------------

 -------------------------------
 CID_107356922_JID_9980_neutraal
 -------------------------------
 Symbolic Z-matrix:
 Charge =  0 Multiplicity = 1

 SCF Done:  E(RB3LYP) =  -783.060912557     A.U. after   15 cycles
 SCF Done:  E(RB3LYP) =  -783.068549678     A.U. after   12 cycles
 SCF Done:  E(RB3LYP) =  -783.069416448     A.U. after   12 cycles
 SCF Done:  E(RB3LYP) =  -783.069607711     A.U. after   12 cycles
 SCF Done:  E(RB3LYP) =  -783.069709773     A.U. after   12 cycles
 SCF Done:  E(RB3LYP) =  -783.069752440     A.U. after   12 cycles
 SCF Done:  E(RB3LYP) =  -783.069814276     A.U. after   12 cycles
 SCF Done:  E(RB3LYP) =  -783.069861629     A.U. after   12 cycles
 SCF Done:  E(RB3LYP) =  -783.069871438     A.U. after   11 cycles
 SCF Done:  E(RB3LYP) =  -783.069885059     A.U. after   11 cycles
 SCF Done:  E(RB3LYP) =  -783.069976311     A.U. after    9 cycles
 SCF Done:  E(RB3LYP) =  -783.069976397     A.U. after    8 cycles
 SCF Done:  E(RB3LYP) =  -783.069976461     A.U. after    9 cycles
 SCF Done:  E(RB3LYP) =  -783.069976463     A.U. after    7 cycles
 SCF Done:  E(RB3LYP) =  -783.069976485     A.U. after    7 cycles
 Optimization completed on the basis of negligible forces.
    -- Stationary point found.
 Normal termination of Gaussian 16 at Sun Dec 13 16:43:19 2020.

 --------------------------------------------------------------------
 #N Geom=AllCheck Guess=TCheck SCRF=Check GenChk RB3LYP/6-31G(d) Freq
 --------------------------------------------------------------------

 Structure from the checkpoint file:  "JID_9980.chk"
 -------------------------------
 CID_107356922_JID_9980_neutraal
 -------------------------------
 Charge =  0 Multiplicity = 1

 SCF Done:  E(RB3LYP) =  -783.069976485     A.U. after    1 cycles

  Exact polarizability: 268.370  16.031 148.863  33.083  -2.188 141.064
 Approx polarizability: 389.782  35.565 248.665  68.576 -10.412 253.527

                      1                      2                      3
                      A                      A                      A
 Frequencies --     14.7683                21.3959                26.2672
 Red. masses --      4.7041                 1.6262                 1.6129
 Frc consts  --      0.0006                 0.0004                 0.0007
 IR Inten    --      0.1891                 0.3184                 0.1431

                      4                      5                      6
                      A                      A                      A
 Frequencies --     44.7198               101.0447               144.8583
 Red. masses --      5.0126                 4.5859                 2.5107
 Frc consts  --      0.0059                 0.0276                 0.0310
 IR Inten    --      0.2700                 1.1623                 4.4302

                      7                      8                      9
                      A                      A                      A
 Frequencies --    166.8751               179.8538               186.4620
 Red. masses --      4.7425                 1.9140                 2.1638
 Frc consts  --      0.0778                 0.0365                 0.0443
 IR Inten    --      2.8927                34.6033                13.8367

                     10                     11                     12
                      A                      A                      A
 Frequencies --    216.1071               231.3916               294.8393
 Red. masses --      2.8734                 4.4295                 5.6456
 Frc consts  --      0.0791                 0.1397                 0.2892
 IR Inten    --      3.7168                 1.9823                 0.6682

                     13                     14                     15
                      A                      A                      A
 Frequencies --    310.2053               370.4996               380.4014
 Red. masses --      4.1871                 2.8508                 4.6005
 Frc consts  --      0.2374                 0.2306                 0.3922
 IR Inten    --      6.4049                 1.1391                 5.3859

                     16                     17                     18
                      A                      A                      A
 Frequencies --    420.0149               451.8093               476.0758
 Red. masses --      4.6399                 3.2035                 4.5666
 Frc consts  --      0.4823                 0.3853                 0.6098
 IR Inten    --      7.4806                 4.0826                 0.2900

                     19                     20                     21
                      A                      A                      A
 Frequencies --    500.3632               514.5107               534.1541
 Red. masses --      4.1665                 3.7141                 4.9821
 Frc consts  --      0.6146                 0.5793                 0.8375
 IR Inten    --      0.5501                 0.4557                 0.5446

                     22                     23                     24
                      A                      A                      A
 Frequencies --    543.9106               569.8775               597.6562
 Red. masses --      7.0876                 5.3848                 4.4105
 Frc consts  --      1.2354                 1.0304                 0.9282
 IR Inten    --      0.2086                 5.6632                 1.0804

                     25                     26                     27
                      A                      A                      A
 Frequencies --    626.3631               634.1568               680.1052
 Red. masses --      5.5148                 5.7393                 4.9911
 Frc consts  --      1.2748                 1.3599                 1.3602
 IR Inten    --      1.3570                 7.2602                 1.1815

                     28                     29                     30
                      A                      A                      A
 Frequencies --    723.6527               759.3238               766.5235
 Red. masses --      2.1784                 3.0330                 3.4622
 Frc consts  --      0.6721                 1.0303                 1.1985
 IR Inten    --     13.2482                 2.7871                 9.3658

                     31                     32                     33
                      A                      A                      A
 Frequencies --    785.6032               799.6389               808.5555
 Red. masses --      1.5335                 3.8622                 1.7536
 Frc consts  --      0.5576                 1.4550                 0.6754
 IR Inten    --     48.1136                 3.9653                28.6595

                     34                     35                     36
                      A                      A                      A
 Frequencies --    822.6060               895.2966               904.3982
 Red. masses --      2.8772                 1.8085                 1.3231
 Frc consts  --      1.1471                 0.8541                 0.6376
 IR Inten    --      7.0017                 0.0915                 7.5095

                     37                     38                     39
                      A                      A                      A
 Frequencies --    910.4866               921.4219               939.6452
 Red. masses --      3.3790                 1.4851                 2.3781
 Frc consts  --      1.6504                 0.7429                 1.2371
 IR Inten    --     23.2630                11.1397                 5.3149

                     40                     41                     42
                      A                      A                      A
 Frequencies --    950.0744               972.8845               975.6505
 Red. masses --      1.6877                 1.3554                 2.0190
 Frc consts  --      0.8976                 0.7558                 1.1324
 IR Inten    --     13.4335                 7.8459               160.0810

                     43                     44                     45
                      A                      A                      A
 Frequencies --    978.7113              1000.8325              1021.9003
 Red. masses --      1.4133                 1.2760                 4.2864
 Frc consts  --      0.7976                 0.7530                 2.6373
 IR Inten    --     33.9710                 0.0010                 1.6152

                     46                     47                     48
                      A                      A                      A
 Frequencies --   1023.7136              1032.9958              1045.2128
 Red. masses --      4.3941                 1.6435                 2.0516
 Frc consts  --      2.7132                 1.0333                 1.3206
 IR Inten    --     29.5772                11.3281                 8.5560

                     49                     50                     51
                      A                      A                      A
 Frequencies --   1076.3319              1110.5543              1133.6829
 Red. masses --      1.5236                 2.3445                 1.6129
 Frc consts  --      1.0400                 1.7036                 1.2214
 IR Inten    --      6.8532                 4.4521                 2.6463

                     52                     53                     54
                      A                      A                      A
 Frequencies --   1150.1033              1164.1133              1190.9878
 Red. masses --      1.6307                 1.5056                 1.5157
 Frc consts  --      1.2708                 1.2021                 1.2667
 IR Inten    --     15.1586                30.7509                 2.5609

                     55                     56                     57
                      A                      A                      A
 Frequencies --   1199.8679              1208.7287              1237.0011
 Red. masses --      1.3794                 1.1362                 1.7384
 Frc consts  --      1.1700                 0.9781                 1.5673
 IR Inten    --     17.1709                 0.3558                 2.7434

                     58                     59                     60
                      A                      A                      A
 Frequencies --   1252.1721              1271.4791              1299.4858
 Red. masses --      2.3388                 2.6242                 1.9016
 Frc consts  --      2.1606                 2.4996                 1.8920
 IR Inten    --      5.7774                 4.2737                 8.5021

                     61                     62                     63
                      A                      A                      A
 Frequencies --   1324.0419              1332.2985              1360.7629
 Red. masses --      2.6782                 2.4281                 1.5296
 Frc consts  --      2.7663                 2.5393                 1.6687
 IR Inten    --     22.0618                 3.0122                 7.1644

                     64                     65                     66
                      A                      A                      A
 Frequencies --   1366.2997              1385.1662              1410.1972
 Red. masses --      2.6081                 2.7874                 2.9088
 Frc consts  --      2.8686                 3.1510                 3.4081
 IR Inten    --      1.0404                 6.2712                 1.6927

                     67                     68                     69
                      A                      A                      A
 Frequencies --   1418.5556              1443.2828              1454.5807
 Red. masses --      1.8819                 1.2517                 2.3752
 Frc consts  --      2.2312                 1.5362                 2.9609
 IR Inten    --     14.5432                 0.2907                 7.0111

                     70                     71                     72
                      A                      A                      A
 Frequencies --   1481.2300              1516.8832              1518.3246
 Red. masses --      2.1849                 1.0492                 2.9161
 Frc consts  --      2.8244                 1.4224                 3.9608
 IR Inten    --      3.5236                 5.2723                 1.4185

                     73                     74                     75
                      A                      A                      A
 Frequencies --   1526.2608              1545.6385              1549.3613
 Red. masses --      1.3057                 2.0597                 3.3997
 Frc consts  --      1.7920                 2.8992                 4.8084
 IR Inten    --     10.8843                10.4275                21.4904

                     76                     77                     78
                      A                      A                      A
 Frequencies --   1617.7964              1629.8607              1652.2646
 Red. masses --      7.9929                 7.3460                 5.5554
 Frc consts  --     12.3254                11.4975                 8.9355
 IR Inten    --     15.1499                11.0118                 1.9431

                     79                     80                     81
                      A                      A                      A
 Frequencies --   1669.5761              1674.4529              1706.1053
 Red. masses --      5.4629                 5.8751                 1.0906
 Frc consts  --      8.9720                 9.7054                 1.8703
 IR Inten    --     11.4205                 2.2667                29.1900

                     82                     83                     84
                      A                      A                      A
 Frequencies --   3011.2977              3044.2270              3099.7340
 Red. masses --      1.0829                 1.0391                 1.0980
 Frc consts  --      5.7855                 5.6736                 6.2158
 IR Inten    --     21.8517                27.1128                19.5766

                     85                     86                     87
                      A                      A                      A
 Frequencies --   3127.5301              3171.5077              3172.4504
 Red. masses --      1.1020                 1.0895                 1.0907
 Frc consts  --      6.3512                 6.4565                 6.4674
 IR Inten    --     15.3674                 7.1596                29.2053

                     88                     89                     90
                      A                      A                      A
 Frequencies --   3177.6711              3189.3303              3192.1841
 Red. masses --      1.0867                 1.0900                 1.0862
 Frc consts  --      6.4649                 6.5325                 6.5215
 IR Inten    --      5.3114                19.1856                 2.4189

                     91                     92                     93
                      A                      A                      A
 Frequencies --   3204.5436              3205.3049              3216.7741
 Red. masses --      1.0894                 1.0964                 1.0941
 Frc consts  --      6.5913                 6.6368                 6.6703
 IR Inten    --     11.0994                28.3193                15.0969

                     94                     95                     96
                      A                      A                      A
 Frequencies --   3221.8653              3456.2220              3536.3450
 Red. masses --      1.0968                 1.0501                 1.0904
 Frc consts  --      6.7081                 7.3905                 8.0340
 IR Inten    --     18.3287                 0.2127                 0.9379

 - Thermochemistry -
 -------------------
 Temperature   298.150 Kelvin.  Pressure   1.00000 Atm.
 Atom     1 has atomic number  6 and mass  12.00000

 Molecular mass:   249.12660 amu.
 Principal axes and moments of inertia in atomic units:
                           1         2         3
     Eigenvalues --  2197.958198905.002509454.23529
           X            0.99998  -0.00544   0.00178
           Y            0.00536   0.99913   0.04144
           Z           -0.00200  -0.04143   0.99914
 This molecule is an asymmetric top.
 Rotational symmetry number  1.
 Warning -- assumption of classical behavior for rotation
           may cause significant error
 Rotational temperatures (Kelvin)      0.03941     0.00973     0.00916
 Rotational constants (GHZ):           0.82110     0.20267     0.19089
 Zero-point vibrational energy     730812.1 (Joules/Mol)
                                  174.66830 (Kcal/Mol)
 Warning -- explicit consideration of  24 degrees of freedom as
           vibrations may cause significant error
 Vibrational temperatures:     21.25    30.78    37.79    64.34   145.38
          (Kelvin)            208.42   240.10   258.77   268.28   310.93
                              332.92   424.21   446.32   533.07   547.31
                              604.31   650.05   684.97   719.91   740.27
                              768.53   782.57   819.93   859.89   901.20
                              912.41   978.52  1041.17  1092.50  1102.86
                             1130.31  1150.50  1163.33  1183.55  1288.13
                             1301.23  1309.99  1325.72  1351.94  1366.95
                             1399.76  1403.74  1408.15  1439.97  1470.29
                             1472.90  1486.25  1503.83  1548.60  1597.84
                             1631.12  1654.74  1674.90  1713.57  1726.34
                             1739.09  1779.77  1801.60  1829.37  1869.67
                             1905.00  1916.88  1957.83  1965.80  1992.95
                             2028.96  2040.99  2076.56  2092.82  2131.16
                             2182.46  2184.53  2195.95  2223.83  2229.19
                             2327.65  2345.01  2377.24  2402.15  2409.16
                             2454.71  4332.59  4379.96  4459.83  4499.82
                             4563.09  4564.45  4571.96  4588.73  4592.84
                             4610.62  4611.72  4628.22  4635.55  4972.73
                             5088.01

 Zero-point correction=                           0.278352 (Hartree/Particle)
 Thermal correction to Energy=                    0.294333
 Thermal correction to Enthalpy=                  0.295278
 Thermal correction to Gibbs Free Energy=         0.231751
 Sum of electronic and zero-point Energies=           -782.791625
 Sum of electronic and thermal Energies=              -782.775643
 Sum of electronic and thermal Enthalpies=            -782.774699
 Sum of electronic and thermal Free Energies=         -782.838225

                     E (Thermal)             CV                S
                      KCal/Mol        Cal/Mol-Kelvin    Cal/Mol-Kelvin
 Total                  184.697             62.022            133.703
 Electronic               0.000              0.000              0.000
 Translational            0.889              2.981             42.439
 Rotational               0.889              2.981             33.581
 Vibrational            182.920             56.061             57.683
 Vibration     1          0.593              1.986              7.236
 Vibration     2          0.593              1.985              6.500
 Vibration     3          0.593              1.985              6.093
 Vibration     4          0.595              1.980              5.038
 Vibration     5          0.604              1.948              3.434
 Vibration     6          0.616              1.908              2.739
 Vibration     7          0.624              1.883              2.470
 Vibration     8          0.629              1.867              2.330
 Vibration     9          0.632              1.858              2.263
 Vibration    10          0.645              1.816              1.991
 Vibration    11          0.653              1.793              1.868
 Vibration    12          0.689              1.683              1.446
 Vibration    13          0.699              1.654              1.361
 Vibration    14          0.742              1.533              1.078
 Vibration    15          0.750              1.512              1.038
 Vibration    16          0.783              1.427              0.892
 Vibration    17          0.810              1.357              0.790
 Vibration    18          0.833              1.303              0.721
 Vibration    19          0.856              1.249              0.657
 Vibration    20          0.870              1.218              0.623
 Vibration    21          0.889              1.174              0.578
 Vibration    22          0.899              1.153              0.557
 Vibration    23          0.926              1.096              0.504
 Vibration    24          0.956              1.037              0.454

 Optimization completed on the basis of negligible forces.
    -- Stationary point found.
 Normal termination of Gaussian 16 at Sun Dec 13 16:58:40 2020.

 ----------------------------------------------------------------------
 # B3LYP/6-311++G(d,p) empiricaldispersion=gd3bj scf=xqc pop=npa geom=c
 heck
 ----------------------------------------------------------------------

 ---------------------------------------
 CID_107356922_JID_9980_Energie_neutraal
 ---------------------------------------
 Structure from the checkpoint file:  "JID_9980.chk"
 Charge =  0 Multiplicity = 1

 SCF Done:  E(RB3LYP) =  -783.273071691     A.U. after   17 cycles
 Normal termination of Gaussian 16 at Sun Dec 13 17:05:59 2020.

 ----------------------------------------------------------------------
 # B3LYP/6-311++G(d,p) empiricaldispersion=gd3bj scf=xqc pop=npa geom=c
 heck
 ----------------------------------------------------------------------

 -------------------------------------
 CID_107356922_JID_9980_Energie_kation
 -------------------------------------
 Structure from the checkpoint file:  "JID_9980.chk"
 Charge =  1 Multiplicity = 2

 SCF Done:  E(UB3LYP) =  -782.969653983     A.U. after   33 cycles
 SCF Done:  E(UB3LYP) =  -782.969654018     a.u. after    2 cycles
 Normal termination of Gaussian 16 at Sun Dec 13 17:47:20 2020.
 Gaussian 16:  ES64L-G16RevA.03 25-Dec-2016

 ----------------------------------------------------------------------
 # B3LYP/6-311++G(d,p) empiricaldispersion=gd3bj scf=xqc pop=npa geom=c
 heck
 ----------------------------------------------------------------------

 ------------------------------------
 CID_107356922_JID_9980_Energie_anion
 ------------------------------------
 Structure from the checkpoint file:  "JID_9980.chk"
 Charge = -1 Multiplicity = 2

                         Standard orientation:
 ---------------------------------------------------------------------
 Center     Atomic      Atomic             Coordinates (Angstroms)
 Number     Number       Type             X           Y           Z
 ---------------------------------------------------------------------
      1          6           0       -3.184272    2.622989    1.343222
      2          6           0       -3.230056    1.318465    0.585268
      3          6           0       -2.133031    0.453093    0.577941
      4          6           0       -2.151014   -0.748017   -0.141391
      5          6           0       -3.293138   -1.087628   -0.867686
      6          6           0       -4.397797   -0.235095   -0.871345
      7          6           0       -4.366426    0.956754   -0.150673
      8          6           0       -0.953670   -1.683820   -0.089405
      9          6           0        0.349565   -0.913193   -0.308096
     10          7           0        1.314615   -1.039176    0.574966
     11          6           0        2.471994   -0.348629    0.340656
     12          6           0        3.541599   -0.443469    1.262041
     13          6           0        4.710193    0.250539    1.033001
     14          6           0        4.854578    1.061088   -0.119328
     15          6           0        3.828010    1.169436   -1.032334
     16          6           0        2.617837    0.467266   -0.820741
     17          7           0        1.603516    0.577794   -1.732811
     18          6           0        0.508468   -0.094933   -1.471734
     19          7           0       -0.993010   -2.477884    1.139737
     20          1           0       -2.365661    2.634462    2.069475
     21          1           0       -3.033479    3.471338    0.663182
     22          1           0       -4.120073    2.804509    1.883468
     23          1           0       -1.240884    0.723865    1.139106
     24          1           0       -3.319550   -2.022949   -1.420109
     25          1           0       -5.286562   -0.503330   -1.435826
     26          1           0       -5.230806    1.616565   -0.157936
     27          1           0       -1.044039   -2.383411   -0.933922
     28          1           0        3.406923   -1.070996    2.137358
     29          1           0        5.531195    0.177715    1.740381
     30          1           0        5.784016    1.599318   -0.280456
     31          1           0        3.911135    1.782660   -1.923880
     32          1           0       -0.312366   -0.010240   -2.182158
     33          1           0       -0.063659   -2.873070    1.287438
     34          1           0       -1.129094   -1.840645    1.924272
 ---------------------------------------------------------------------

 SCF Done:  E(UB3LYP) =  -783.296864763     A.U. after   23 cycles

 The electronic state is 2-A.
 Alpha  occ. eigenvalues --  -14.17407 -14.14393 -14.13973 -10.08551 -10.08474
 Alpha  occ. eigenvalues --  -10.08174 -10.07903 -10.07634 -10.07548 -10.06967
 Alpha  occ. eigenvalues --  -10.06833 -10.05872 -10.05626 -10.05352 -10.04307
 Alpha  occ. eigenvalues --  -10.03365 -10.03304 -10.02316 -10.02226  -0.81891
 Alpha  occ. eigenvalues --   -0.78006  -0.75578  -0.74041  -0.70083  -0.67975
 Alpha  occ. eigenvalues --   -0.65503  -0.61241  -0.60282  -0.59514  -0.56077
 Alpha  occ. eigenvalues --   -0.50986  -0.49816  -0.48787  -0.46252  -0.45648
 Alpha  occ. eigenvalues --   -0.41141  -0.38951  -0.38417  -0.37804  -0.36539
 Alpha  occ. eigenvalues --   -0.34749  -0.34511  -0.33365  -0.32000  -0.31521
 Alpha  occ. eigenvalues --   -0.31093  -0.30036  -0.29455  -0.28961  -0.27794
 Alpha  occ. eigenvalues --   -0.27653  -0.26771  -0.25608  -0.24344  -0.23613
 Alpha  occ. eigenvalues --   -0.22100  -0.21502  -0.20262  -0.18904  -0.15655
 Alpha  occ. eigenvalues --   -0.15028  -0.14823  -0.12850  -0.10765  -0.10346
 Alpha  occ. eigenvalues --   -0.08940   0.03329
 Alpha virt. eigenvalues --    0.06664   0.07844   0.08016   0.08416   0.08876
 Alpha virt. eigenvalues --    0.09386   0.10215   0.10645   0.10867   0.10964
 Alpha virt. eigenvalues --    0.11851   0.12173   0.12433   0.12895   0.13193

  Beta  occ. eigenvalues --  -14.17406 -14.13864 -14.13384 -10.08558 -10.08430
  Beta  occ. eigenvalues --  -10.08177 -10.07903 -10.07623 -10.07538 -10.06930
  Beta  occ. eigenvalues --  -10.06842 -10.05930 -10.05705 -10.05236 -10.04186
  Beta  occ. eigenvalues --  -10.03322 -10.03234 -10.02142 -10.02029  -0.81256
  Beta  occ. eigenvalues --   -0.77870  -0.75457  -0.73195  -0.69753  -0.67917
  Beta  occ. eigenvalues --   -0.65452  -0.60966  -0.59907  -0.59483  -0.55918
  Beta  occ. eigenvalues --   -0.50728  -0.49447  -0.48660  -0.46105  -0.45303
  Beta  occ. eigenvalues --   -0.41097  -0.38695  -0.38198  -0.37718  -0.36436
  Beta  occ. eigenvalues --   -0.34602  -0.34482  -0.33310  -0.31896  -0.31477
  Beta  occ. eigenvalues --   -0.30997  -0.30002  -0.29305  -0.28714  -0.27489
  Beta  occ. eigenvalues --   -0.27208  -0.26319  -0.25461  -0.24283  -0.23513
  Beta  occ. eigenvalues --   -0.21966  -0.21332  -0.19021  -0.16689  -0.15463
  Beta  occ. eigenvalues --   -0.14629  -0.14501  -0.12637  -0.09868  -0.08724
  Beta  occ. eigenvalues --   -0.08372
  Beta virt. eigenvalues --    0.06638   0.07821   0.07978   0.08338   0.08847
  Beta virt. eigenvalues --    0.09329   0.09860   0.10296   0.10644   0.10880
  Beta virt. eigenvalues --    0.11031   0.12007   0.12179   0.12445   0.12916

 Mulliken charges and spin densities:
               1          2
     1  C   -0.513824  -0.001573
     2  C    0.551269   0.030841
     3  C   -1.208153  -0.001965
     4  C    0.806749   0.039261
     5  C    0.086906   0.054307
     6  C   -0.317436  -0.017545
     7  C   -0.493142   0.040171
     8  C    0.283932  -0.033896
     9  C   -0.396664   0.038335
    10  N   -0.011387   0.250089
    11  C    0.200942   0.005775
    12  C   -0.292087   0.086268
    13  C   -0.248553   0.073587
    14  C   -0.343379   0.038763
    15  C   -0.153063   0.109867
    16  C   -0.393379  -0.029214
    17  N   -0.074312   0.262999
    18  C   -0.447324   0.099550
    19  N   -0.311485  -0.005418
    20  H    0.146891   0.002247
    21  H    0.159898   0.005860
    22  H    0.122968   0.000675
    23  H    0.205309  -0.014812
    24  H    0.134570   0.000536
    25  H    0.141313   0.001183
    26  H    0.112705   0.003224
    27  H    0.184305   0.004228
    28  H    0.112090  -0.011263
    29  H    0.115439  -0.004800
    30  H    0.105620  -0.002891
    31  H    0.127683  -0.012644
    32  H    0.157350  -0.011387
    33  H    0.242405  -0.002364
    34  H    0.205844   0.002005
 Sum of Mulliken charges =  -1.00000   1.00000

 Dipole moment (field-independent basis, Debye):
    X=             -6.1414    Y=              1.1803    Z=              1.5531  Tot=              6.4438
 Quadrupole moment (field-independent basis, Debye-Ang):
   XX=           -160.3105   YY=           -128.5284   ZZ=           -126.7675
   XY=             -7.3475   XZ=              5.1130   YZ=              6.9836

 Summary of Natural Population Analysis:

                                       Natural Population
                Natural  -----------------------------------------------
    Atom  No    Charge         Core      Valence    Rydberg      Total
 -----------------------------------------------------------------------
      C    1   -0.29163      0.99964     2.28743    0.00456     3.29163
      C    2   -0.01195      0.99952     2.00444    0.00799     3.01195
      C    3   -0.10045      0.99946     2.09324    0.00775     3.10045
      C    4    0.00280      0.99950     1.98779    0.00992     2.99720
      C    5   -0.09621      0.99951     2.08836    0.00834     3.09621
      C    6   -0.10058      0.99958     2.09180    0.00920     3.10058
      C    7   -0.10920      0.99952     2.10102    0.00865     3.10920
      C    8   -0.03247      0.99953     2.01777    0.01517     3.03247
      C    9    0.10161      0.99954     1.88190    0.01694     2.89839
      N   10   -0.17932      0.99964     2.66561    0.01407     3.67932
      C   11    0.05684      0.99947     1.93116    0.01252     2.94316
      C   12   -0.07166      0.99954     2.06266    0.00947     3.07166
      C   13   -0.10060      0.99958     2.09138    0.00964     3.10060
      C   14   -0.10834      0.99958     2.09950    0.00927     3.10834
      C   15   -0.06434      0.99954     2.05500    0.00980     3.06434
      C   16    0.04807      0.99947     1.93928    0.01318     2.95193
      N   17   -0.14673      0.99969     2.63115    0.01590     3.64673
      C   18    0.03064      0.99956     1.95699    0.01281     2.96936
      N   19   -0.41744      0.99978     2.90931    0.00835     3.91744
      H   20    0.10261      0.00000     0.39661    0.00078     0.39739
      H   21    0.10301      0.00000     0.39610    0.00089     0.39699
      H   22    0.09778      0.00000     0.40131    0.00091     0.40222
      H   23    0.10732      0.00000     0.39146    0.00122     0.39268
      H   24    0.09849      0.00000     0.40022    0.00129     0.40151
      H   25    0.09441      0.00000     0.40455    0.00104     0.40559
      H   26    0.09317      0.00000     0.40586    0.00097     0.40683
      H   27    0.09310      0.00000     0.40520    0.00170     0.40690
      H   28    0.09326      0.00000     0.40502    0.00172     0.40674
      H   29    0.08963      0.00000     0.40974    0.00063     0.41037
      H   30    0.08869      0.00000     0.41021    0.00110     0.41131
      H   31    0.09415      0.00000     0.40394    0.00191     0.40585
      H   32    0.08056      0.00000     0.41778    0.00166     0.41944
      H   33    0.18338      0.00000     0.31503    0.00159     0.31662
      H   34    0.17141      0.00000     0.32701    0.00159     0.32859
 =======================================================================
   * Total *    0.00001     18.99164    46.78581    0.22254    65.99999

 Normal termination of Gaussian 16 at Sun Dec 13 18:00:57 2020.
