 Gaussian 16, Revision A.03,

 -----------------------------------------------------------
 # opt freq B3LYP/6-31G(d) empiricaldispersion=gd3bj scf=xqc
 -----------------------------------------------------------

 -------------------------------
 CID_149588895_JID_5783_neutraal
 -------------------------------
 Symbolic Z-matrix:
 Charge =  0 Multiplicity = 1

 SCF Done:  E(RB3LYP) =  -651.456466649     A.U. after   14 cycles
 SCF Done:  E(RB3LYP) =  -651.468166734     A.U. after   13 cycles
 SCF Done:  E(RB3LYP) =  -651.470674259     A.U. after   12 cycles
 SCF Done:  E(RB3LYP) =  -651.471611698     A.U. after   12 cycles
 SCF Done:  E(RB3LYP) =  -651.472352259     A.U. after   12 cycles
 SCF Done:  E(RB3LYP) =  -651.473568248     A.U. after   12 cycles
 SCF Done:  E(RB3LYP) =  -651.473778587     A.U. after   13 cycles
 SCF Done:  E(RB3LYP) =  -651.475679920     A.U. after   12 cycles
 SCF Done:  E(RB3LYP) =  -651.476772865     A.U. after   12 cycles
 SCF Done:  E(RB3LYP) =  -651.478066845     A.U. after   12 cycles
 SCF Done:  E(RB3LYP) =  -651.457265332     A.U. after   13 cycles
 SCF Done:  E(RB3LYP) =  -651.480928085     A.U. after   11 cycles
 SCF Done:  E(RB3LYP) =  -651.480930920     A.U. after   10 cycles
 SCF Done:  E(RB3LYP) =  -651.480931061     A.U. after    7 cycles
 SCF Done:  E(RB3LYP) =  -651.480931107     A.U. after    7 cycles
 SCF Done:  E(RB3LYP) =  -651.480931118     A.U. after    6 cycles
 Optimization completed.
    -- Stationary point found.
 Normal termination of Gaussian 16 at Thu Dec 10 18:06:35 2020.

 --------------------------------------------------------------------
 #N Geom=AllCheck Guess=TCheck SCRF=Check GenChk RB3LYP/6-31G(d) Freq
 --------------------------------------------------------------------

 Structure from the checkpoint file:  "JID_5783.chk"
 -------------------------------
 CID_149588895_JID_5783_neutraal
 -------------------------------
 Charge =  0 Multiplicity = 1

 SCF Done:  E(RB3LYP) =  -651.480931118     A.U. after    1 cycles

  Exact polarizability: 165.470  -2.780 154.172   9.737   2.593 110.830
 Approx polarizability: 232.154  -1.541 224.963  26.493   8.514 166.548

                      1                      2                      3
                      A                      A                      A
 Frequencies --     32.8049                47.3985                60.1168
 Red. masses --      3.5364                 3.5357                 2.8447
 Frc consts  --      0.0022                 0.0047                 0.0061
 IR Inten    --      0.1985                 1.1594                 0.2898

                      4                      5                      6
                      A                      A                      A
 Frequencies --     70.4207                80.3391               112.1118
 Red. masses --      3.1178                 3.1277                 2.6155
 Frc consts  --      0.0091                 0.0119                 0.0194
 IR Inten    --      0.7682                 2.6431                 9.2084

                      7                      8                      9
                      A                      A                      A
 Frequencies --    136.4980               157.8499               187.1756
 Red. masses --      3.2509                 2.6908                 1.5359
 Frc consts  --      0.0357                 0.0395                 0.0317
 IR Inten    --      0.5870                 1.1349                 3.0354

                     10                     11                     12
                      A                      A                      A
 Frequencies --    218.0769               237.4712               260.7541
 Red. masses --      1.2789                 1.1462                 2.2257
 Frc consts  --      0.0358                 0.0381                 0.0892
 IR Inten    --      0.8707                15.2879                 3.7109

                     13                     14                     15
                      A                      A                      A
 Frequencies --    280.5288               285.5716               305.8376
 Red. masses --      1.4721                 1.1571                 1.7040
 Frc consts  --      0.0683                 0.0556                 0.0939
 IR Inten    --      2.1524                 0.8948                11.1788

                     16                     17                     18
                      A                      A                      A
 Frequencies --    318.3676               335.8371               360.0321
 Red. masses --      2.7547                 2.6830                 1.9819
 Frc consts  --      0.1645                 0.1783                 0.1514
 IR Inten    --      3.4254                 5.6657                24.1476

                     19                     20                     21
                      A                      A                      A
 Frequencies --    400.8510               416.7475               429.9866
 Red. masses --      2.2184                 2.3030                 1.5036
 Frc consts  --      0.2100                 0.2357                 0.1638
 IR Inten    --     20.0989                 7.2597                35.5543

                     22                     23                     24
                      A                      A                      A
 Frequencies --    446.1657               477.8042               513.7115
 Red. masses --      2.8038                 2.2738                 2.6394
 Frc consts  --      0.3288                 0.3058                 0.4104
 IR Inten    --     51.1029                29.9657                45.0535

                     25                     26                     27
                      A                      A                      A
 Frequencies --    525.2033               543.7942               602.6728
 Red. masses --      2.4818                 3.3257                 3.7792
 Frc consts  --      0.4033                 0.5794                 0.8087
 IR Inten    --     18.1991                 5.6855                20.3393

                     28                     29                     30
                      A                      A                      A
 Frequencies --    624.4371               719.6247               732.2170
 Red. masses --      3.0121                 3.6655                 3.9920
 Frc consts  --      0.6920                 1.1184                 1.2610
 IR Inten    --      0.8374                15.4040                 9.8224

                     31                     32                     33
                      A                      A                      A
 Frequencies --    738.3620               758.4832               791.5029
 Red. masses --      1.5382                 3.7386                 1.2193
 Frc consts  --      0.4941                 1.2672                 0.4501
 IR Inten    --     10.0272                 2.0635                 0.7804

                     34                     35                     36
                      A                      A                      A
 Frequencies --    814.9372               854.8679               887.3947
 Red. masses --      2.3689                 2.0289                 1.8488
 Frc consts  --      0.9269                 0.8736                 0.8578
 IR Inten    --      7.2502                16.7703                27.5732

                     37                     38                     39
                      A                      A                      A
 Frequencies --    930.2628               943.8748               954.1893
 Red. masses --      2.0319                 1.9849                 1.9617
 Frc consts  --      1.0360                 1.0419                 1.0523
 IR Inten    --     74.3224                19.1882                 6.6453

                     40                     41                     42
                      A                      A                      A
 Frequencies --    971.0811               976.5670               997.3526
 Red. masses --      1.6868                 1.9889                 1.6643
 Frc consts  --      0.9372                 1.1175                 0.9754
 IR Inten    --      9.2901                10.4510                11.8750

                     43                     44                     45
                      A                      A                      A
 Frequencies --   1022.3529              1024.9002              1054.7114
 Red. masses --      1.4679                 1.7401                 1.7179
 Frc consts  --      0.9039                 1.0769                 1.1260
 IR Inten    --     48.3274                41.0033                16.3464

                     46                     47                     48
                      A                      A                      A
 Frequencies --   1074.5432              1094.7116              1108.3661
 Red. masses --      1.5180                 1.8145                 2.4650
 Frc consts  --      1.0327                 1.2812                 1.7842
 IR Inten    --     31.8848                 3.6306                 8.4336

                     49                     50                     51
                      A                      A                      A
 Frequencies --   1143.4704              1157.9732              1162.0452
 Red. masses --      2.0323                 2.2133                 2.8106
 Frc consts  --      1.5656                 1.7486                 2.2361
 IR Inten    --      8.3044                 3.1914                13.9595

                     52                     53                     54
                      A                      A                      A
 Frequencies --   1228.8726              1245.9893              1274.8683
 Red. masses --      2.7927                 1.9387                 1.4555
 Frc consts  --      2.4848                 1.7733                 1.3937
 IR Inten    --     45.2610                44.0445                11.4034

                     55                     56                     57
                      A                      A                      A
 Frequencies --   1279.4960              1290.2082              1338.1582
 Red. masses --      1.6828                 1.3125                 1.5516
 Frc consts  --      1.6231                 1.2873                 1.6370
 IR Inten    --      6.5741                 4.7825                16.9784

                     58                     59                     60
                      A                      A                      A
 Frequencies --   1340.4977              1346.4503              1371.6087
 Red. masses --      1.2145                 1.4151                 1.6667
 Frc consts  --      1.2858                 1.5115                 1.8474
 IR Inten    --      9.0812                 4.9918                64.4470

                     61                     62                     63
                      A                      A                      A
 Frequencies --   1387.4511              1396.9890              1407.5612
 Red. masses --      1.4449                 1.4012                 1.4134
 Frc consts  --      1.6388                 1.6112                 1.6498
 IR Inten    --     14.5851                10.0114                 3.5088

                     64                     65                     66
                      A                      A                      A
 Frequencies --   1418.6464              1422.8438              1429.7579
 Red. masses --      1.4142                 1.3892                 1.5715
 Frc consts  --      1.6770                 1.6570                 1.8928
 IR Inten    --     33.7775                11.9607                12.9768

                     67                     68                     69
                      A                      A                      A
 Frequencies --   1435.8588              1444.9032              1477.9242
 Red. masses --      1.2767                 1.2726                 1.9475
 Frc consts  --      1.5508                 1.5654                 2.5063
 IR Inten    --      9.6389                 9.7924                36.0816

                     70                     71                     72
                      A                      A                      A
 Frequencies --   1507.9918              1513.9087              1515.4170
 Red. masses --      1.0969                 1.0782                 1.1175
 Frc consts  --      1.4697                 1.4559                 1.5121
 IR Inten    --      6.7541                 7.5520                 7.1458

                     73                     74                     75
                      A                      A                      A
 Frequencies --   1520.2921              1521.7800              1527.1870
 Red. masses --      1.0578                 1.0859                 1.0803
 Frc consts  --      1.4404                 1.4816                 1.4844
 IR Inten    --      1.3000                 3.5098                 4.6858

                     76                     77                     78
                      A                      A                      A
 Frequencies --   1530.8793              1534.4606              1536.6077
 Red. masses --      1.0680                 1.0829                 1.1309
 Frc consts  --      1.4747                 1.5023                 1.5732
 IR Inten    --     10.4634                12.0188                14.3412

                     79                     80                     81
                      A                      A                      A
 Frequencies --   1544.4950              1555.8011              1610.9423
 Red. masses --      1.0845                 1.9660                 3.5151
 Frc consts  --      1.5243                 2.8038                 5.3747
 IR Inten    --      4.3731                18.0598               681.9478

                     82                     83                     84
                      A                      A                      A
 Frequencies --   1697.5605              1701.4926              2986.8576
 Red. masses --      1.1998                 4.0030                 1.0724
 Frc consts  --      2.0370                 6.8280                 5.6369
 IR Inten    --     32.7523               219.8226                57.5386

                     85                     86                     87
                      A                      A                      A
 Frequencies --   3036.4929              3042.1367              3043.7485
 Red. masses --      1.0659                 1.0393                 1.0359
 Frc consts  --      5.7907                 5.6668                 5.6544
 IR Inten    --     13.6206                 9.5037                41.1146

                     88                     89                     90
                      A                      A                      A
 Frequencies --   3051.0523              3053.1340              3053.5470
 Red. masses --      1.0677                 1.0603                 1.0381
 Frc consts  --      5.8561                 5.8235                 5.7030
 IR Inten    --     74.9311                 3.9203                24.8954

                     91                     92                     93
                      A                      A                      A
 Frequencies --   3058.9740              3080.7249              3088.1107
 Red. masses --      1.0897                 1.0985                 1.0968
 Frc consts  --      6.0075                 6.1427                 6.1625
 IR Inten    --      8.8878                 5.8082                 8.6683

                     94                     95                     96
                      A                      A                      A
 Frequencies --   3089.2443              3105.4248              3108.3877
 Red. masses --      1.0880                 1.1022                 1.1011
 Frc consts  --      6.1176                 6.2623                 6.2684
 IR Inten    --     63.4934               142.9748                30.9110

                     97                     98                     99
                      A                      A                      A
 Frequencies --   3114.4428              3118.3683              3120.8620
 Red. masses --      1.0967                 1.0999                 1.1024
 Frc consts  --      6.2673                 6.3017                 6.3259
 IR Inten    --     29.8906                39.7840                27.8033

                    100                    101                    102
                      A                      A                      A
 Frequencies --   3127.7424              3137.9790              3457.9496
 Red. masses --      1.1030                 1.1028                 1.0514
 Frc consts  --      6.3574                 6.3981                 7.4069
 IR Inten    --     20.0014                18.2711                 0.3005

                    103                    104                    105
                      A                      A                      A
 Frequencies --   3543.4477              3643.2359              3648.5570
 Red. masses --      1.0896                 1.0757                 1.0766
 Frc consts  --      8.0607                 8.4127                 8.4442
 IR Inten    --      0.1840                22.2516                23.9918

 - Thermochemistry -
 -------------------
 Temperature   298.150 Kelvin.  Pressure   1.00000 Atm.
 Atom     1 has atomic number  6 and mass  12.00000

 Molecular mass:   210.18445 amu.
 Principal axes and moments of inertia in atomic units:
                           1         2         3
     Eigenvalues --  2335.704613938.190225127.26105
           X            0.99993  -0.01180  -0.00096
           Y            0.01180   0.99993  -0.00001
           Z            0.00096   0.00000   1.00000
 This molecule is an asymmetric top.
 Rotational symmetry number  1.
 Warning -- assumption of classical behavior for rotation
           may cause significant error
 Rotational temperatures (Kelvin)      0.03708     0.02199     0.01689
 Rotational constants (GHZ):           0.77268     0.45827     0.35199
 Zero-point vibrational energy     875963.6 (Joules/Mol)
                                  209.36033 (Kcal/Mol)
 Warning -- explicit consideration of  27 degrees of freedom as
           vibrations may cause significant error
 Vibrational temperatures:     47.20    68.20    86.49   101.32   115.59
          (Kelvin)            161.30   196.39   227.11   269.30   313.76
                              341.67   375.17   403.62   410.87   440.03
                              458.06   483.19   518.01   576.74   599.61
                              618.65   641.93   687.45   739.12   755.65
                              782.40   867.11   898.43  1035.38  1053.50
                             1062.34  1091.29  1138.80  1172.51  1229.96
                             1276.76  1338.44  1358.03  1372.87  1397.17
                             1405.06  1434.97  1470.94  1474.60  1517.49
                             1546.03  1575.05  1594.69  1645.20  1666.07
                             1671.92  1768.07  1792.70  1834.25  1840.91
                             1856.32  1925.31  1928.68  1937.24  1973.44
                             1996.23  2009.96  2025.17  2041.12  2047.15
                             2057.10  2065.88  2078.89  2126.40  2169.66
                             2178.18  2180.35  2187.36  2189.50  2197.28
                             2202.59  2207.75  2210.84  2222.18  2238.45
                             2317.79  2442.41  2448.07  4297.42  4368.84
                             4376.96  4379.28  4389.78  4392.78  4393.37
                             4401.18  4432.48  4443.10  4444.73  4468.01
                             4472.28  4480.99  4486.64  4490.22  4500.12
                             4514.85  4975.22  5098.23  5241.80  5249.46

 Zero-point correction=                           0.333637 (Hartree/Particle)
 Thermal correction to Energy=                    0.350771
 Thermal correction to Enthalpy=                  0.351716
 Thermal correction to Gibbs Free Energy=         0.288951
 Sum of electronic and zero-point Energies=           -651.147294
 Sum of electronic and thermal Energies=              -651.130160
 Sum of electronic and thermal Enthalpies=            -651.129215
 Sum of electronic and thermal Free Energies=         -651.191980

                     E (Thermal)             CV                S
                      KCal/Mol        Cal/Mol-Kelvin    Cal/Mol-Kelvin
 Total                  220.112             64.822            132.099
 Electronic               0.000              0.000              0.000
 Translational            0.889              2.981             41.932
 Rotational               0.889              2.981             32.223
 Vibrational            218.335             58.860             57.945
 Vibration     1          0.594              1.983              5.652
 Vibration     2          0.595              1.979              4.923
 Vibration     3          0.597              1.973              4.453
 Vibration     4          0.598              1.968              4.142
 Vibration     5          0.600              1.962              3.883
 Vibration     6          0.607              1.939              3.232
 Vibration     7          0.614              1.917              2.852
 Vibration     8          0.621              1.894              2.575
 Vibration     9          0.632              1.857              2.256
 Vibration    10          0.646              1.814              1.975
 Vibration    11          0.656              1.783              1.822
 Vibration    12          0.669              1.745              1.657
 Vibration    13          0.680              1.710              1.530
 Vibration    14          0.683              1.700              1.500
 Vibration    15          0.696              1.663              1.385
 Vibration    16          0.705              1.638              1.318
 Vibration    17          0.717              1.604              1.232
 Vibration    18          0.735              1.555              1.122
 Vibration    19          0.767              1.468              0.960
 Vibration    20          0.780              1.434              0.903
 Vibration    21          0.791              1.405              0.859
 Vibration    22          0.805              1.369              0.807
 Vibration    23          0.834              1.299              0.716
 Vibration    24          0.869              1.220              0.625
 Vibration    25          0.880              1.194              0.598
 Vibration    26          0.899              1.153              0.557
 Vibration    27          0.961              1.026              0.445

 Optimization completed.
    -- Stationary point found.
 Normal termination of Gaussian 16 at Thu Dec 10 18:21:03 2020.

 ----------------------------------------------------------------------
 # B3LYP/6-311++G(d,p) empiricaldispersion=gd3bj scf=xqc pop=npa geom=c
 heck
 ----------------------------------------------------------------------

 ---------------------------------------
 CID_149588895_JID_5783_Energie_neutraal
 ---------------------------------------
 Structure from the checkpoint file:  "JID_5783.chk"
 Charge =  0 Multiplicity = 1

 SCF Done:  E(RB3LYP) =  -651.673282466     A.U. after   15 cycles
 Normal termination of Gaussian 16 at Thu Dec 10 18:28:24 2020.

 ----------------------------------------------------------------------
 # B3LYP/6-311++G(d,p) empiricaldispersion=gd3bj scf=xqc pop=npa geom=c
 heck
 ----------------------------------------------------------------------

 -------------------------------------
 CID_149588895_JID_5783_Energie_kation
 -------------------------------------
 Structure from the checkpoint file:  "JID_5783.chk"
 Charge =  1 Multiplicity = 2

 SCF Done:  E(UB3LYP) =  -651.428313770     A.U. after   21 cycles
 Normal termination of Gaussian 16 at Thu Dec 10 18:43:01 2020.
 Gaussian 16:  ES64L-G16RevA.03 25-Dec-2016

 ----------------------------------------------------------------------
 # B3LYP/6-311++G(d,p) empiricaldispersion=gd3bj scf=xqc pop=npa geom=c
 heck
 ----------------------------------------------------------------------

 ------------------------------------
 CID_149588895_JID_5783_Energie_anion
 ------------------------------------
 Structure from the checkpoint file:  "JID_5783.chk"
 Charge = -1 Multiplicity = 2

                         Standard orientation:
 ---------------------------------------------------------------------
 Center     Atomic      Atomic             Coordinates (Angstroms)
 Number     Number       Type             X           Y           Z
 ---------------------------------------------------------------------
      1          6           0       -3.929683   -0.450303    0.588640
      2          6           0       -2.573979   -0.993448    1.048774
      3          6           0       -1.897270   -1.933932    0.044200
      4          6           0       -1.654574   -1.314051   -1.344516
      5          7           0       -1.000534   -0.007185   -1.342823
      6          6           0        0.215331    0.237506   -0.747295
      7          6           0        0.622438    1.495038   -0.330120
      8          6           0        2.010073    1.589005    0.021931
      9          7           0        2.837394    0.613495    0.231987
     10          6           0        2.260816   -0.724576    0.233939
     11          7           0        1.099685   -0.794582   -0.668364
     12          6           0        1.855230   -1.097448    1.667973
     13          7           0        3.184678   -1.733045   -0.279780
     14          6           0       -0.252536    2.719991   -0.422713
     15          6           0       -1.279605    2.862867    0.714751
     16          1           0       -3.838030    0.185364   -0.300616
     17          1           0       -4.397058    0.156260    1.371577
     18          1           0       -4.620298   -1.265184    0.339045
     19          1           0       -1.896670   -0.159834    1.269918
     20          1           0       -2.704031   -1.535084    1.993848
     21          1           0       -0.942857   -2.268270    0.466182
     22          1           0       -2.509233   -2.835454   -0.099013
     23          1           0       -1.078947   -2.010985   -1.966874
     24          1           0       -2.605421   -1.173741   -1.866217
     25          1           0       -1.627173    0.782474   -1.311208
     26          1           0        2.432059    2.597630    0.090144
     27          1           0        0.853789   -1.718560   -0.988649
     28          1           0        1.492627   -2.130612    1.708147
     29          1           0        2.712072   -0.988379    2.340816
     30          1           0        1.064615   -0.421189    2.006530
     31          1           0        3.618134   -1.334161   -1.113745
     32          1           0        3.941700   -1.832228    0.395722
     33          1           0        0.399158    3.602940   -0.415141
     34          1           0       -0.778228    2.766481   -1.390573
     35          1           0       -0.775127    2.865846    1.686832
     36          1           0       -1.854780    3.792172    0.621396
     37          1           0       -1.992314    2.029832    0.721360
 ---------------------------------------------------------------------

 SCF Done:  E(UB3LYP) =  -651.663129179     A.U. after   32 cycles

 The electronic state is 2-A.
 Alpha  occ. eigenvalues --  -14.23817 -14.23610 -14.20725 -14.18050 -10.17063
 Alpha  occ. eigenvalues --  -10.15714 -10.11021 -10.10256 -10.07800 -10.06971
 Alpha  occ. eigenvalues --  -10.06705 -10.06649 -10.06244 -10.05482 -10.05327
 Alpha  occ. eigenvalues --   -0.89960  -0.84703  -0.77929  -0.77726  -0.70607
 Alpha  occ. eigenvalues --   -0.68818  -0.64615  -0.63003  -0.60885  -0.56339
 Alpha  occ. eigenvalues --   -0.54249  -0.53226  -0.50804  -0.47904  -0.44750
 Alpha  occ. eigenvalues --   -0.43016  -0.40701  -0.40361  -0.38491  -0.37091
 Alpha  occ. eigenvalues --   -0.36273  -0.35307  -0.34260  -0.33583  -0.32232
 Alpha  occ. eigenvalues --   -0.30905  -0.30757  -0.30150  -0.29247  -0.28672
 Alpha  occ. eigenvalues --   -0.28542  -0.27993  -0.26508  -0.25557  -0.24712
 Alpha  occ. eigenvalues --   -0.23622  -0.23379  -0.23188  -0.21399  -0.17743
 Alpha  occ. eigenvalues --   -0.16905  -0.14633  -0.08875   0.04211
 Alpha virt. eigenvalues --    0.06578   0.06868   0.07390   0.07722   0.08319
 Alpha virt. eigenvalues --    0.09022   0.09180   0.09510   0.09683   0.10730
 Alpha virt. eigenvalues --    0.11300   0.11716   0.11924   0.12195   0.12846

  Beta  occ. eigenvalues --  -14.23792 -14.23586 -14.20718 -14.18049 -10.17059
  Beta  occ. eigenvalues --  -10.15685 -10.10986 -10.10249 -10.07785 -10.06950
  Beta  occ. eigenvalues --  -10.06696 -10.06636 -10.06218 -10.05423 -10.05335
  Beta  occ. eigenvalues --   -0.89927  -0.84671  -0.77908  -0.77705  -0.70571
  Beta  occ. eigenvalues --   -0.68783  -0.64584  -0.62951  -0.60840  -0.56268
  Beta  occ. eigenvalues --   -0.54211  -0.53168  -0.50752  -0.47826  -0.44709
  Beta  occ. eigenvalues --   -0.42971  -0.40671  -0.40341  -0.38429  -0.37043
  Beta  occ. eigenvalues --   -0.36237  -0.35268  -0.34232  -0.33553  -0.32201
  Beta  occ. eigenvalues --   -0.30881  -0.30702  -0.30128  -0.29194  -0.28642
  Beta  occ. eigenvalues --   -0.28500  -0.27951  -0.26448  -0.25524  -0.24681
  Beta  occ. eigenvalues --   -0.23556  -0.23340  -0.23141  -0.21375  -0.17726
  Beta  occ. eigenvalues --   -0.16866  -0.14604  -0.08853
  Beta virt. eigenvalues --    0.06372   0.07027   0.07551   0.07757   0.08062
  Beta virt. eigenvalues --    0.08754   0.09401   0.09421   0.09810   0.10110
  Beta virt. eigenvalues --    0.11113   0.11658   0.11893   0.12221   0.12525

 Mulliken charges and spin densities:
               1          2
     1  C    1.938196  -2.536349
     2  C   -1.212239   1.034534
     3  C    0.048431  -0.065619
     4  C    1.005518  -1.592277
     5  N   -0.113842   0.073650
     6  C    0.838664  -1.353876
     7  C    0.379262   0.559510
     8  C   -0.121312   0.016227
     9  N    0.001986   0.019767
    10  C   -1.013862  -0.087683
    11  N   -0.234802   0.011573
    12  C    0.046980  -0.301899
    13  N   -0.235521   0.024644
    14  C   -1.298015   0.838744
    15  C    0.148633  -0.689967
    16  H   -0.588526   0.718665
    17  H   -0.221484   0.362683
    18  H   -0.399154   0.550793
    19  H    0.067176   0.049844
    20  H   -0.357403   0.540520
    21  H    0.093705  -0.005302
    22  H   -0.548622   0.746652
    23  H   -0.401633   0.568079
    24  H   -0.313862   0.507690
    25  H    0.245229   0.081112
    26  H    0.097475   0.060792
    27  H    0.402950  -0.064759
    28  H    0.030927   0.134038
    29  H    0.119023   0.038236
    30  H    0.114986   0.052594
    31  H    0.169938   0.068308
    32  H    0.200910   0.034995
    33  H    0.098009   0.037164
    34  H   -0.248607   0.401163
    35  H   -0.067942   0.202247
    36  H   -0.283591   0.408213
    37  H    0.612421  -0.444709
 Sum of Mulliken charges =  -1.00000   1.00000

 Dipole moment (field-independent basis, Debye):
    X=              7.7438    Y=              1.2259    Z=              1.0172  Tot=              7.9059
 Quadrupole moment (field-independent basis, Debye-Ang):
   XX=           -176.4913   YY=           -145.5210   ZZ=           -129.9002
   XY=             -8.3733   XZ=             -2.3986   YZ=             -2.4736

 Summary of Natural Population Analysis:

                                       Natural Population
                Natural  -----------------------------------------------
    Atom  No    Charge         Core      Valence    Rydberg      Total
 -----------------------------------------------------------------------
      C    1   -0.28731      0.99967     2.28199    0.00565     3.28731
      C    2   -0.19438      0.99963     2.18660    0.00815     3.19438
      C    3   -0.19740      0.99962     2.18910    0.00867     3.19740
      C    4   -0.09158      0.99961     2.07958    0.01238     3.09158
      N    5   -0.31151      0.99967     2.80120    0.01064     3.81151
      C    6    0.24140      0.99947     1.74608    0.01305     2.75860
      C    7   -0.14594      0.99946     2.13641    0.01007     3.14594
      C    8    0.06335      0.99958     1.92194    0.01514     2.93665
      N    9   -0.29592      0.99969     2.78406    0.01216     3.79592
      C   10    0.23241      0.99962     1.74799    0.01999     2.76759
      N   11   -0.32189      0.99963     2.81168    0.01058     3.82189
      C   12   -0.30004      0.99960     2.29455    0.00589     3.30004
      N   13   -0.42371      0.99975     2.91489    0.00907     3.92371
      C   14   -0.19458      0.99963     2.18581    0.00914     3.19458
      C   15   -0.28279      0.99966     2.27765    0.00548     3.28279
      H   16    0.09466      0.00000     0.40327    0.00207     0.40534
      H   17    0.10070      0.00000     0.39812    0.00118     0.39930
      H   18    0.09997      0.00000     0.39801    0.00203     0.40003
      H   19    0.09496      0.00000     0.40294    0.00210     0.40504
      H   20    0.09722      0.00000     0.40169    0.00108     0.40278
      H   21    0.09594      0.00000     0.40248    0.00158     0.40406
      H   22    0.10231      0.00000     0.39567    0.00202     0.39769
      H   23    0.09399      0.00000     0.40454    0.00147     0.40601
      H   24    0.10674      0.00000     0.39122    0.00204     0.39326
      H   25    0.19745      0.00000     0.29866    0.00390     0.30255
      H   26    0.08281      0.00000     0.41565    0.00155     0.41719
      H   27    0.20144      0.00000     0.29563    0.00293     0.29856
      H   28    0.10104      0.00000     0.39779    0.00117     0.39896
      H   29    0.10079      0.00000     0.39826    0.00095     0.39921
      H   30    0.10627      0.00000     0.39273    0.00100     0.39373
      H   31    0.17781      0.00000     0.32006    0.00213     0.32219
      H   32    0.17541      0.00000     0.32294    0.00165     0.32459
      H   33    0.09814      0.00000     0.40059    0.00127     0.40186
      H   34    0.09393      0.00000     0.40474    0.00133     0.40607
      H   35    0.09601      0.00000     0.40286    0.00113     0.40399
      H   36    0.09589      0.00000     0.40299    0.00113     0.40411
      H   37    0.09640      0.00000     0.40169    0.00191     0.40360
 =======================================================================
   * Total *    0.00000     14.99428    42.81205    0.19367    58.00000

 Normal termination of Gaussian 16 at Thu Dec 10 19:05:18 2020.
