 Gaussian 16, Revision A.03,

 -----------------------------------------------------------
 # opt freq B3LYP/6-31G(d) empiricaldispersion=gd3bj scf=xqc
 -----------------------------------------------------------

 ------------------------------
 CID_64337707_JID_7540_neutraal
 ------------------------------
 Symbolic Z-matrix:
 Charge =  0 Multiplicity = 1

 SCF Done:  E(RB3LYP) =  -1081.75215253     A.U. after   15 cycles
 SCF Done:  E(RB3LYP) =  -1081.75971284     A.U. after   12 cycles
 SCF Done:  E(RB3LYP) =  -1081.76131623     A.U. after   12 cycles
 SCF Done:  E(RB3LYP) =  -1081.76183279     A.U. after   15 cycles
 SCF Done:  E(RB3LYP) =  -1081.76322396     A.U. after   13 cycles
 SCF Done:  E(RB3LYP) =  -1081.76385908     A.U. after   12 cycles
 SCF Done:  E(RB3LYP) =  -1081.76448068     A.U. after   12 cycles
 SCF Done:  E(RB3LYP) =  -1081.76480758     A.U. after   13 cycles
 SCF Done:  E(RB3LYP) =  -1081.76497949     A.U. after   12 cycles
 SCF Done:  E(RB3LYP) =  -1081.76509485     A.U. after   11 cycles
 SCF Done:  E(RB3LYP) =  -1081.76555127     A.U. after   11 cycles
 SCF Done:  E(RB3LYP) =  -1081.76556609     A.U. after    9 cycles
 SCF Done:  E(RB3LYP) =  -1081.76557171     A.U. after   10 cycles
 SCF Done:  E(RB3LYP) =  -1081.76557529     A.U. after    9 cycles
 SCF Done:  E(RB3LYP) =  -1081.76557534     A.U. after    7 cycles
 SCF Done:  E(RB3LYP) =  -1081.76557537     A.U. after    7 cycles
 Optimization completed.
    -- Stationary point found.
 Normal termination of Gaussian 16 at Sun Dec 13 16:19:35 2020.

 --------------------------------------------------------------------
 #N Geom=AllCheck Guess=TCheck SCRF=Check GenChk RB3LYP/6-31G(d) Freq
 --------------------------------------------------------------------

 Structure from the checkpoint file:  "JID_7540.chk"
 ------------------------------
 CID_64337707_JID_7540_neutraal
 ------------------------------
 Charge =  0 Multiplicity = 1

 SCF Done:  E(RB3LYP) =  -1081.76557537     A.U. after    1 cycles

  Exact polarizability: 200.348  25.642 170.022   7.375 -10.408 110.542
 Approx polarizability: 280.684  49.938 310.424  16.375 -22.125 189.873

                      1                      2                      3
                      A                      A                      A
 Frequencies --     24.2830                34.5170                42.3059
 Red. masses --      5.5372                 5.7593                 5.4339
 Frc consts  --      0.0019                 0.0040                 0.0057
 IR Inten    --      0.7984                 2.1035                 3.1186

                      4                      5                      6
                      A                      A                      A
 Frequencies --    102.6292               112.0916               120.2959
 Red. masses --      6.6932                 1.4348                 2.1704
 Frc consts  --      0.0415                 0.0106                 0.0185
 IR Inten    --      1.2964                 0.8597                 2.1761

                      7                      8                      9
                      A                      A                      A
 Frequencies --    153.0729               188.6836               250.0104
 Red. masses --      4.0424                 4.8040                 3.0535
 Frc consts  --      0.0558                 0.1008                 0.1125
 IR Inten    --      0.1583                 1.6914                 1.6508

                     10                     11                     12
                      A                      A                      A
 Frequencies --    270.2511               280.3794               334.1429
 Red. masses --      5.1591                 4.0605                 3.4358
 Frc consts  --      0.2220                 0.1881                 0.2260
 IR Inten    --      0.8610                 1.3958                 1.5993

                     13                     14                     15
                      A                      A                      A
 Frequencies --    362.6498               432.6425               446.0054
 Red. masses --      2.6682                 4.0132                 3.4102
 Frc consts  --      0.2068                 0.4426                 0.3997
 IR Inten    --      7.3082                 6.6543                 1.4496

                     16                     17                     18
                      A                      A                      A
 Frequencies --    493.4162               507.1116               559.6695
 Red. masses --      5.4101                 5.0206                 2.9174
 Frc consts  --      0.7760                 0.7607                 0.5384
 IR Inten    --     24.2122                 9.0605                58.9905

                     19                     20                     21
                      A                      A                      A
 Frequencies --    583.4990               587.5995               607.7791
 Red. masses --      5.5732                 4.2789                 4.2597
 Frc consts  --      1.1180                 0.8705                 0.9271
 IR Inten    --      3.5813                 1.4469                68.6994

                     22                     23                     24
                      A                      A                      A
 Frequencies --    637.1681               674.9591               688.9270
 Red. masses --      4.1516                 6.2453                 3.8650
 Frc consts  --      0.9930                 1.6763                 1.0808
 IR Inten    --     19.2887                 7.1673                 2.6297

                     25                     26                     27
                      A                      A                      A
 Frequencies --    718.2636               745.4704               750.5214
 Red. masses --      4.0883                 1.3176                 1.5043
 Frc consts  --      1.2427                 0.4314                 0.4993
 IR Inten    --      9.0468                12.9578                37.3551

                     28                     29                     30
                      A                      A                      A
 Frequencies --    760.8669               763.7094               775.5852
 Red. masses --      3.7772                 3.4130                 3.9339
 Frc consts  --      1.2884                 1.1728                 1.3942
 IR Inten    --     21.9476                34.6429                14.0168

                     31                     32                     33
                      A                      A                      A
 Frequencies --    819.0106               847.1404               853.4795
 Red. masses --      1.7644                 2.7298                 1.4359
 Frc consts  --      0.6973                 1.1542                 0.6163
 IR Inten    --     35.2294                47.6636                 0.9887

                     34                     35                     36
                      A                      A                      A
 Frequencies --    879.9860               898.8267               912.8489
 Red. masses --      4.1745                 3.7020                 1.4151
 Frc consts  --      1.9046                 1.7621                 0.6948
 IR Inten    --     34.3870                 4.8096                 2.1973

                     37                     38                     39
                      A                      A                      A
 Frequencies --    914.6087               959.5453               961.5812
 Red. masses --      3.6800                 4.3263                 1.2214
 Frc consts  --      1.8137                 2.3469                 0.6654
 IR Inten    --      4.9139                 2.3018                 0.0683

                     40                     41                     42
                      A                      A                      A
 Frequencies --   1025.0267              1042.1462              1084.7922
 Red. masses --      2.2370                 1.9629                 3.6034
 Frc consts  --      1.3848                 1.2560                 2.4983
 IR Inten    --     15.2738                 7.3635                37.6242

                     43                     44                     45
                      A                      A                      A
 Frequencies --   1117.7096              1155.0738              1159.8987
 Red. masses --      2.5979                 1.4159                 1.3385
 Frc consts  --      1.9122                 1.1130                 1.0610
 IR Inten    --      7.1781                21.2426                 8.5537

                     46                     47                     48
                      A                      A                      A
 Frequencies --   1169.2947              1186.5823              1227.6404
 Red. masses --      1.4982                 1.1473                 2.3154
 Frc consts  --      1.2069                 0.9517                 2.0559
 IR Inten    --      4.3273                 3.4867                15.4971

                     49                     50                     51
                      A                      A                      A
 Frequencies --   1244.5650              1273.8915              1285.8454
 Red. masses --      1.6513                 2.9376                 1.3271
 Frc consts  --      1.5070                 2.8087                 1.2928
 IR Inten    --     14.8717                33.8119                 3.5731

                     52                     53                     54
                      A                      A                      A
 Frequencies --   1324.7244              1357.4685              1375.8829
 Red. masses --      2.0165                 3.0928                 2.2409
 Frc consts  --      2.0850                 3.3579                 2.4995
 IR Inten    --     78.3419                31.8460                12.3777

                     55                     56                     57
                      A                      A                      A
 Frequencies --   1393.8383              1418.3296              1420.6593
 Red. masses --      1.6519                 3.2593                 2.5165
 Frc consts  --      1.8909                 3.8630                 2.9925
 IR Inten    --     19.6280                18.6994                40.8138

                     58                     59                     60
                      A                      A                      A
 Frequencies --   1486.2436              1487.3921              1496.2367
 Red. masses --      1.3301                 2.4322                 1.5028
 Frc consts  --      1.7310                 3.1702                 1.9822
 IR Inten    --      5.3464                33.6913                23.4208

                     61                     62                     63
                      A                      A                      A
 Frequencies --   1507.1239              1522.8276              1525.8454
 Red. masses --      2.3992                 1.1561                 2.0533
 Frc consts  --      3.2108                 1.5796                 2.8166
 IR Inten    --     68.4051                59.2377                 1.0454

                     64                     65                     66
                      A                      A                      A
 Frequencies --   1540.3957              1552.1708              1568.5944
 Red. masses --      1.2080                 2.0015                 6.3550
 Frc consts  --      1.6887                 2.8411                 9.2127
 IR Inten    --      0.3450                89.9051                 5.8260

                     67                     68                     69
                      A                      A                      A
 Frequencies --   1604.6218              1651.1235              1682.2112
 Red. masses --      6.6072                 6.6101                 7.1866
 Frc consts  --     10.0234                10.6174                11.9821
 IR Inten    --    394.7336                25.1531                32.7739

                     70                     71                     72
                      A                      A                      A
 Frequencies --   3044.0643              3101.8921              3114.5235
 Red. masses --      1.0408                 1.0642                 1.0959
 Frc consts  --      5.6825                 6.0331                 6.2634
 IR Inten    --     53.4871                30.5249                17.7710

                     73                     74                     75
                      A                      A                      A
 Frequencies --   3147.3599              3170.2544              3184.2479
 Red. masses --      1.1042                 1.1025                 1.0851
 Frc consts  --      6.4447                 6.5284                 6.4825
 IR Inten    --      6.8542                 1.6602                 0.1050

                     76                     77                     78
                      A                      A                      A
 Frequencies --   3193.4613              3205.7756              3214.4515
 Red. masses --      1.0894                 1.0934                 1.0961
 Frc consts  --      6.5456                 6.6209                 6.6728
 IR Inten    --     15.7416                32.2895                19.8706

                     79                     80                     81
                      A                      A                      A
 Frequencies --   3247.3379              3300.1730              3556.3315
 Red. masses --      1.0939                 1.0952                 1.0749
 Frc consts  --      6.7965                 7.0276                 8.0098
 IR Inten    --      1.7828                 4.8192                11.4677

 - Thermochemistry -
 -------------------
 Temperature   298.150 Kelvin.  Pressure   1.00000 Atm.
 Atom     1 has atomic number  6 and mass  12.00000

 Molecular mass:   244.07827 amu.
 Principal axes and moments of inertia in atomic units:
                           1         2         3
     Eigenvalues --  2200.600887376.171908493.05725
           X            0.99994   0.00764   0.00769
           Y           -0.00737   0.99938  -0.03437
           Z           -0.00794   0.03431   0.99938
 This molecule is an asymmetric top.
 Rotational symmetry number  1.
 Warning -- assumption of classical behavior for rotation
           may cause significant error
 Rotational temperatures (Kelvin)      0.03936     0.01174     0.01020
 Rotational constants (GHZ):           0.82011     0.24467     0.21250
 Zero-point vibrational energy     600666.3 (Joules/Mol)
                                  143.56269 (Kcal/Mol)
 Warning -- explicit consideration of  21 degrees of freedom as
           vibrations may cause significant error
 Vibrational temperatures:     34.94    49.66    60.87   147.66   161.27
          (Kelvin)            173.08   220.24   271.47   359.71   388.83
                              403.40   480.76   521.77   622.48   641.70
                              709.92   729.62   805.24   839.52   845.42
                              874.46   916.74   971.12   991.21  1033.42
                             1072.57  1079.83  1094.72  1098.81  1115.89
                             1178.37  1218.85  1227.97  1266.10  1293.21
                             1313.39  1315.92  1380.57  1383.50  1474.78
                             1499.42  1560.77  1608.13  1661.89  1668.84
                             1682.35  1707.23  1766.30  1790.65  1832.85
                             1850.04  1905.98  1953.09  1979.59  2005.42
                             2040.66  2044.01  2138.37  2140.03  2152.75
                             2168.42  2191.01  2195.35  2216.29  2233.23
                             2256.86  2308.69  2375.60  2420.33  4379.73
                             4462.93  4481.10  4528.35  4561.29  4581.42
                             4594.68  4612.40  4624.88  4672.19  4748.21
                             5116.77

 Zero-point correction=                           0.228782 (Hartree/Particle)
 Thermal correction to Energy=                    0.243152
 Thermal correction to Enthalpy=                  0.244096
 Thermal correction to Gibbs Free Energy=         0.185174
 Sum of electronic and zero-point Energies=          -1081.536794
 Sum of electronic and thermal Energies=             -1081.522424
 Sum of electronic and thermal Enthalpies=           -1081.521480
 Sum of electronic and thermal Free Energies=        -1081.580401

                     E (Thermal)             CV                S
                      KCal/Mol        Cal/Mol-Kelvin    Cal/Mol-Kelvin
 Total                  152.580             55.323            124.011
 Electronic               0.000              0.000              0.000
 Translational            0.889              2.981             42.378
 Rotational               0.889              2.981             33.288
 Vibrational            150.802             49.362             48.344
 Vibration     1          0.593              1.985              6.249
 Vibration     2          0.594              1.983              5.551
 Vibration     3          0.595              1.980              5.148
 Vibration     4          0.605              1.947              3.404
 Vibration     5          0.607              1.939              3.232
 Vibration     6          0.609              1.932              3.096
 Vibration     7          0.619              1.899              2.634
 Vibration     8          0.633              1.855              2.241
 Vibration     9          0.663              1.763              1.731
 Vibration    10          0.674              1.728              1.595
 Vibration    11          0.680              1.710              1.531
 Vibration    12          0.716              1.607              1.240
 Vibration    13          0.737              1.549              1.111
 Vibration    14          0.794              1.399              0.850
 Vibration    15          0.805              1.370              0.808
 Vibration    16          0.849              1.265              0.675
 Vibration    17          0.862              1.234              0.641
 Vibration    18          0.915              1.119              0.524
 Vibration    19          0.940              1.067              0.479
 Vibration    20          0.945              1.058              0.471
 Vibration    21          0.967              1.015              0.436

 Optimization completed.
    -- Stationary point found.
 Normal termination of Gaussian 16 at Sun Dec 13 16:30:06 2020.

 ----------------------------------------------------------------------
 # B3LYP/6-311++G(d,p) empiricaldispersion=gd3bj scf=xqc pop=npa geom=c
 heck
 ----------------------------------------------------------------------

 --------------------------------------
 CID_64337707_JID_7540_Energie_neutraal
 --------------------------------------
 Structure from the checkpoint file:  "JID_7540.chk"
 Charge =  0 Multiplicity = 1

 SCF Done:  E(RB3LYP) =  -1081.97083693     A.U. after   16 cycles
 Normal termination of Gaussian 16 at Sun Dec 13 16:35:22 2020.

 ----------------------------------------------------------------------
 # B3LYP/6-311++G(d,p) empiricaldispersion=gd3bj scf=xqc pop=npa geom=c
 heck
 ----------------------------------------------------------------------

 ------------------------------------
 CID_64337707_JID_7540_Energie_kation
 ------------------------------------
 Structure from the checkpoint file:  "JID_7540.chk"
 Charge =  1 Multiplicity = 2

 SCF Done:  E(UB3LYP) =  -1081.69990817     A.U. after   25 cycles
 Normal termination of Gaussian 16 at Sun Dec 13 16:46:21 2020.
 Gaussian 16:  ES64L-G16RevA.03 25-Dec-2016

 ----------------------------------------------------------------------
 # B3LYP/6-311++G(d,p) empiricaldispersion=gd3bj scf=xqc pop=npa geom=c
 heck
 ----------------------------------------------------------------------

 -----------------------------------
 CID_64337707_JID_7540_Energie_anion
 -----------------------------------
 Structure from the checkpoint file:  "JID_7540.chk"
 Charge = -1 Multiplicity = 2

                         Standard orientation:
 ---------------------------------------------------------------------
 Center     Atomic      Atomic             Coordinates (Angstroms)
 Number     Number       Type             X           Y           Z
 ---------------------------------------------------------------------
      1          6           0       -1.636502    2.666107   -0.934614
      2          7           0       -1.506043    1.379980   -0.285636
      3          6           0       -2.442954    0.347267   -0.281801
      4          6           0       -3.674378    0.200471   -0.910488
      5          6           0       -4.368032   -0.988746   -0.669693
      6          6           0       -3.836528   -1.985830    0.164047
      7          6           0       -2.597170   -1.829675    0.786537
      8          6           0       -1.889778   -0.647635    0.561296
      9          7           0       -0.646569   -0.241784    1.037638
     10          6           0       -0.460837    0.952952    0.515782
     11          7           0        0.617259    1.776689    0.765036
     12          6           0        1.759982    1.168824    1.462343
     13          6           0        2.577390    0.270868    0.573850
     14          6           0        2.401085   -1.076234    0.418074
     15         16           0        3.500588   -1.690388   -0.771909
     16          6           0        4.115906   -0.066277   -0.978534
     17          7           0        3.552381    0.836036   -0.230463
     18          1           0       -2.695170    2.931712   -0.992967
     19          1           0       -1.126936    3.428156   -0.338206
     20          1           0       -1.219968    2.661851   -1.949949
     21          1           0       -4.083008    0.966621   -1.563081
     22          1           0       -5.334391   -1.143623   -1.140469
     23          1           0       -4.403109   -2.898354    0.326051
     24          1           0       -2.184613   -2.599228    1.431572
     25          1           0        0.904776    2.333699   -0.032923
     26          1           0        2.387945    1.982878    1.833217
     27          1           0        1.358947    0.613554    2.310171
     28          1           0        1.663463   -1.698813    0.902060
     29          1           0        4.914362    0.138759   -1.681765
 ---------------------------------------------------------------------

 SCF Done:  E(UB3LYP) =  -1081.96338019     A.U. after   32 cycles

 The electronic state is 2-A.
 Alpha  occ. eigenvalues --  -88.76981 -14.26450 -14.23561 -14.20460 -14.18671
 Alpha  occ. eigenvalues --  -10.16860 -10.11419 -10.10859 -10.10814 -10.10741
 Alpha  occ. eigenvalues --  -10.09560 -10.09457 -10.08216 -10.07826 -10.07448
 Alpha  occ. eigenvalues --  -10.07398 -10.07323  -7.85638  -5.81900  -5.81558
 Alpha  occ. eigenvalues --   -5.81282  -0.92850  -0.85558  -0.83049  -0.79205
 Alpha  occ. eigenvalues --   -0.74333  -0.68785  -0.66510  -0.65243  -0.63220
 Alpha  occ. eigenvalues --   -0.61376  -0.57740  -0.51737  -0.50972  -0.48897
 Alpha  occ. eigenvalues --   -0.47794  -0.44819  -0.43762  -0.41515  -0.39831
 Alpha  occ. eigenvalues --   -0.39376  -0.37675  -0.35500  -0.34510  -0.33893
 Alpha  occ. eigenvalues --   -0.33628  -0.33475  -0.31075  -0.30705  -0.30084
 Alpha  occ. eigenvalues --   -0.29498  -0.28570  -0.27108  -0.26602  -0.26127
 Alpha  occ. eigenvalues --   -0.24763  -0.20090  -0.18874  -0.18016  -0.17714
 Alpha  occ. eigenvalues --   -0.17169  -0.14141  -0.12861  -0.10875   0.04356
 Alpha virt. eigenvalues --    0.06131   0.07081   0.07845   0.08014   0.08168
 Alpha virt. eigenvalues --    0.09141   0.09196   0.09665   0.10409   0.10727
 Alpha virt. eigenvalues --    0.11309   0.11490   0.11864   0.12122   0.12847

  Beta  occ. eigenvalues --  -88.76950 -14.26447 -14.23526 -14.20438 -14.18668
  Beta  occ. eigenvalues --  -10.16855 -10.11198 -10.10811 -10.10778 -10.10742
  Beta  occ. eigenvalues --  -10.09556 -10.09469 -10.08036 -10.07806 -10.07443
  Beta  occ. eigenvalues --  -10.07394 -10.07317  -7.85610  -5.81888  -5.81547
  Beta  occ. eigenvalues --   -5.81173  -0.92836  -0.85415  -0.82991  -0.79187
  Beta  occ. eigenvalues --   -0.74315  -0.68582  -0.66406  -0.65190  -0.63166
  Beta  occ. eigenvalues --   -0.61277  -0.57598  -0.51678  -0.50944  -0.48613
  Beta  occ. eigenvalues --   -0.47721  -0.44705  -0.43681  -0.41456  -0.39798
  Beta  occ. eigenvalues --   -0.39271  -0.37626  -0.35451  -0.34468  -0.33822
  Beta  occ. eigenvalues --   -0.33563  -0.33445  -0.31009  -0.30644  -0.29949
  Beta  occ. eigenvalues --   -0.29035  -0.28467  -0.27088  -0.26471  -0.26107
  Beta  occ. eigenvalues --   -0.24700  -0.20059  -0.18816  -0.17844  -0.17332
  Beta  occ. eigenvalues --   -0.17063  -0.13377  -0.12737  -0.10840
  Beta virt. eigenvalues --    0.06784   0.07502   0.07885   0.07967   0.08153
  Beta virt. eigenvalues --    0.08540   0.09288   0.09534   0.10330   0.10457
  Beta virt. eigenvalues --    0.11083   0.11495   0.11665   0.12007   0.12339

 Mulliken charges and spin densities:
               1          2
     1  C    1.725206  -2.093665
     2  N   -0.232191   0.232243
     3  C    0.637074  -0.303558
     4  C   -0.136710  -0.165717
     5  C   -0.026907  -0.297132
     6  C   -0.209975  -0.088644
     7  C   -0.495791   0.208006
     8  C    0.156548  -0.150034
     9  N   -0.082844  -0.001868
    10  C   -0.216044   0.094079
    11  N   -0.064856   0.057789
    12  C   -0.652026  -0.357927
    13  C   -0.877148   0.139933
    14  C    0.768505   0.173817
    15  S   -0.431115   0.000726
    16  C    0.125019   0.217283
    17  N    0.015366   0.029470
    18  H   -0.606397   0.765119
    19  H   -0.542528   0.719009
    20  H   -0.430866   0.640604
    21  H   -0.382233   0.536395
    22  H    0.021555   0.126314
    23  H    0.116570   0.015116
    24  H    0.108508   0.028955
    25  H    0.036812   0.217292
    26  H    0.045505   0.150382
    27  H    0.171508   0.012049
    28  H    0.293459   0.032509
    29  H    0.165999   0.061454
 Sum of Mulliken charges =  -1.00000   1.00000

 Dipole moment (field-independent basis, Debye):
    X=              2.2057    Y=             -6.3079    Z=              2.3767  Tot=              7.0925
 Quadrupole moment (field-independent basis, Debye-Ang):
   XX=           -168.6920   YY=           -156.2647   ZZ=           -132.5951
   XY=             11.1936   XZ=             -6.7966   YZ=              7.6220

 Summary of Natural Population Analysis:

                                       Natural Population
                Natural  -----------------------------------------------
    Atom  No    Charge         Core      Valence    Rydberg      Total
 -----------------------------------------------------------------------
      C    1   -0.17886      0.99964     2.17067    0.00855     3.17886
      N    2   -0.22120      0.99959     2.71179    0.00982     3.72120
      C    3    0.07165      0.99945     1.91773    0.01116     2.92835
      C    4   -0.11974      0.99953     2.11087    0.00934     3.11974
      C    5   -0.11379      0.99958     2.10339    0.01082     3.11379
      C    6   -0.11762      0.99958     2.10880    0.00925     3.11762
      C    7   -0.10852      0.99952     2.10052    0.00847     3.10852
      C    8    0.06442      0.99946     1.92341    0.01271     2.93558
      N    9   -0.29167      0.99967     2.78316    0.00884     3.79167
      C   10    0.31145      0.99959     1.67207    0.01689     2.68855
      N   11   -0.31364      0.99967     2.80344    0.01052     3.81364
      C   12   -0.09827      0.99957     2.08517    0.01353     3.09827
      C   13    0.03707      0.99948     1.94763    0.01583     2.96293
      C   14   -0.16612      0.99945     2.15737    0.00930     3.16612
      S   15    0.17940      4.99948     2.79950    0.02162     7.82060
      C   16   -0.02246      0.99966     2.00643    0.01637     3.02246
      N   17   -0.24672      0.99967     2.73454    0.01251     3.74672
      H   18    0.10670      0.00000     0.39014    0.00317     0.39330
      H   19    0.10697      0.00000     0.39014    0.00289     0.39303
      H   20    0.10011      0.00000     0.39755    0.00234     0.39989
      H   21    0.10667      0.00000     0.39205    0.00128     0.39333
      H   22    0.09767      0.00000     0.40158    0.00075     0.40233
      H   23    0.09612      0.00000     0.40315    0.00073     0.40388
      H   24    0.10066      0.00000     0.39802    0.00131     0.39934
      H   25    0.19525      0.00000     0.30180    0.00295     0.30475
      H   26    0.10291      0.00000     0.39596    0.00113     0.39709
      H   27    0.11007      0.00000     0.38865    0.00128     0.38993
      H   28    0.11919      0.00000     0.37946    0.00135     0.38081
      H   29    0.09228      0.00000     0.40663    0.00109     0.40772
 =======================================================================
   * Total *   -0.00000     20.99259    42.78161    0.22580    64.00000

 Normal termination of Gaussian 16 at Sun Dec 13 17:00:33 2020.
