 Gaussian 16, Revision A.03,

 -----------------------------------------------------------
 # opt freq B3LYP/6-31G(d) empiricaldispersion=gd3bj scf=xqc
 -----------------------------------------------------------

 ------------------------------
 CID_80271334_JID_6670_neutraal
 ------------------------------
 Symbolic Z-matrix:
 Charge =  0 Multiplicity = 1

 SCF Done:  E(RB3LYP) =  -693.409737944     A.U. after   14 cycles
 SCF Done:  E(RB3LYP) =  -693.415756835     A.U. after   12 cycles
 SCF Done:  E(RB3LYP) =  -693.416979992     A.U. after   12 cycles
 SCF Done:  E(RB3LYP) =  -693.417508037     A.U. after   11 cycles
 SCF Done:  E(RB3LYP) =  -693.417679138     A.U. after   11 cycles
 SCF Done:  E(RB3LYP) =  -693.417759002     A.U. after   10 cycles
 SCF Done:  E(RB3LYP) =  -693.417783750     A.U. after   10 cycles
 SCF Done:  E(RB3LYP) =  -693.417789857     A.U. after    9 cycles
 SCF Done:  E(RB3LYP) =  -693.417792070     A.U. after    8 cycles
 SCF Done:  E(RB3LYP) =  -693.417793255     A.U. after    8 cycles
 SCF Done:  E(RB3LYP) =  -693.417793913     A.U. after    7 cycles
 SCF Done:  E(RB3LYP) =  -693.417794711     A.U. after    7 cycles
 SCF Done:  E(RB3LYP) =  -693.417795240     A.U. after    8 cycles
 SCF Done:  E(RB3LYP) =  -693.417795321     A.U. after    7 cycles
 SCF Done:  E(RB3LYP) =  -693.417795326     A.U. after    6 cycles
 Optimization completed.
    -- Stationary point found.
 Normal termination of Gaussian 16 at Fri Dec 11 00:16:22 2020.

 --------------------------------------------------------------------
 #N Geom=AllCheck Guess=TCheck SCRF=Check GenChk RB3LYP/6-31G(d) Freq
 --------------------------------------------------------------------

 Structure from the checkpoint file:  "JID_6670.chk"
 ------------------------------
 CID_80271334_JID_6670_neutraal
 ------------------------------
 Charge =  0 Multiplicity = 1

 SCF Done:  E(RB3LYP) =  -693.417795326     A.U. after    1 cycles

  Exact polarizability: 162.171  -1.025 157.901  -5.784   0.041 118.487
 Approx polarizability: 218.935   0.209 219.963 -16.423  -3.267 181.324

                      1                      2                      3
                      A                      A                      A
 Frequencies --     31.5773                39.8650                43.2257
 Red. masses --      2.6075                 3.3041                 3.0785
 Frc consts  --      0.0015                 0.0031                 0.0034
 IR Inten    --      0.1004                 0.4530                 0.4384

                      4                      5                      6
                      A                      A                      A
 Frequencies --     87.4387                99.5791               110.4791
 Red. masses --      4.2145                 1.9150                 3.0056
 Frc consts  --      0.0190                 0.0112                 0.0216
 IR Inten    --      0.1950                 0.1048                 0.3690

                      7                      8                      9
                      A                      A                      A
 Frequencies --    125.8101               150.8049               207.3038
 Red. masses --      2.7349                 3.0070                 2.7382
 Frc consts  --      0.0255                 0.0403                 0.0693
 IR Inten    --      0.9151                 0.6125                 0.0607

                     10                     11                     12
                      A                      A                      A
 Frequencies --    218.1748               233.6581               259.0170
 Red. masses --      2.3326                 1.1616                 1.8359
 Frc consts  --      0.0654                 0.0374                 0.0726
 IR Inten    --      0.4223                 0.0470                 1.1621

                     13                     14                     15
                      A                      A                      A
 Frequencies --    265.8597               275.0674               282.9263
 Red. masses --      1.3019                 1.7301                 1.9474
 Frc consts  --      0.0542                 0.0771                 0.0918
 IR Inten    --      0.3734                 0.1896                 1.7015

                     16                     17                     18
                      A                      A                      A
 Frequencies --    332.4707               355.3945               382.8040
 Red. masses --      2.9302                 2.4416                 3.1834
 Frc consts  --      0.1908                 0.1817                 0.2749
 IR Inten    --      0.2420                 0.2359                 3.3157

                     19                     20                     21
                      A                      A                      A
 Frequencies --    409.2860               436.6721               462.3085
 Red. masses --      2.3675                 2.9236                 2.6349
 Frc consts  --      0.2337                 0.3285                 0.3318
 IR Inten    --      0.9823                 1.9088                 3.5986

                     22                     23                     24
                      A                      A                      A
 Frequencies --    483.5610               527.3636               646.4528
 Red. masses --      3.6080                 2.8973                 2.7780
 Frc consts  --      0.4971                 0.4747                 0.6840
 IR Inten    --      1.8010                 2.6904                 0.1314

                     25                     26                     27
                      A                      A                      A
 Frequencies --    673.7616               700.3657               719.5285
 Red. masses --      3.1881                 1.9707                 4.8051
 Frc consts  --      0.8527                 0.5695                 1.4657
 IR Inten    --     14.4574                 0.7613                14.4895

                     28                     29                     30
                      A                      A                      A
 Frequencies --    764.5397               802.0153               811.9420
 Red. masses --      4.4589                 1.5316                 1.5170
 Frc consts  --      1.5356                 0.5804                 0.5892
 IR Inten    --      3.1891                20.2023                49.6299

                     31                     32                     33
                      A                      A                      A
 Frequencies --    814.3877               832.5929               860.1545
 Red. masses --      1.6539                 1.5758                 2.4765
 Frc consts  --      0.6463                 0.6436                 1.0795
 IR Inten    --      3.5618                 0.4487                 2.6366

                     34                     35                     36
                      A                      A                      A
 Frequencies --    880.8094               899.3016               941.1421
 Red. masses --      2.5620                 2.7836                 1.9603
 Frc consts  --      1.1711                 1.3264                 1.0230
 IR Inten    --      1.9323                 1.1591                 1.7910

                     37                     38                     39
                      A                      A                      A
 Frequencies --    943.3008               952.5452               961.0756
 Red. masses --      1.2025                 2.4297                 2.7311
 Frc consts  --      0.6304                 1.2989                 1.4863
 IR Inten    --      1.1486                 9.5505                14.6663

                     40                     41                     42
                      A                      A                      A
 Frequencies --    966.5422               971.7762               998.3229
 Red. masses --      3.3968                 1.4308                 1.5517
 Frc consts  --      1.8697                 0.7961                 0.9112
 IR Inten    --      2.3844                 1.1220                 2.1835

                     43                     44                     45
                      A                      A                      A
 Frequencies --   1015.9821              1035.0297              1062.3356
 Red. masses --      1.9397                 1.7348                 2.0894
 Frc consts  --      1.1797                 1.0950                 1.3893
 IR Inten    --      5.6675                 1.4980                 1.9617

                     46                     47                     48
                      A                      A                      A
 Frequencies --   1063.5885              1095.9069              1102.0507
 Red. masses --      1.8738                 3.4209                 2.5118
 Frc consts  --      1.2489                 2.4207                 1.7974
 IR Inten    --      0.4284                21.0958                 9.8288

                     49                     50                     51
                      A                      A                      A
 Frequencies --   1131.2137              1145.0469              1165.5651
 Red. masses --      2.6269                 3.1375                 1.9007
 Frc consts  --      1.9805                 2.4237                 1.5214
 IR Inten    --     33.7893                29.2012                 2.3928

                     52                     53                     54
                      A                      A                      A
 Frequencies --   1192.7423              1197.8297              1205.5323
 Red. masses --      2.0687                 2.1248                 1.9204
 Frc consts  --      1.7340                 1.7962                 1.6444
 IR Inten    --      9.8138                10.1107                15.6772

                     55                     56                     57
                      A                      A                      A
 Frequencies --   1217.5306              1240.3585              1257.5994
 Red. masses --      1.9187                 1.5725                 1.4646
 Frc consts  --      1.6758                 1.4254                 1.3648
 IR Inten    --     20.7945                20.1069                 0.4832

                     58                     59                     60
                      A                      A                      A
 Frequencies --   1274.8531              1277.6952              1295.3375
 Red. masses --      1.2313                 1.7458                 1.4720
 Frc consts  --      1.1791                 1.6792                 1.4552
 IR Inten    --      1.1250                 3.2723                 1.4964

                     61                     62                     63
                      A                      A                      A
 Frequencies --   1308.9061              1329.9246              1347.4939
 Red. masses --      1.6428                 1.3310                 1.3626
 Frc consts  --      1.6583                 1.3870                 1.4577
 IR Inten    --      0.2933                 0.2089                 0.6821

                     64                     65                     66
                      A                      A                      A
 Frequencies --   1355.3753              1358.0057              1373.4456
 Red. masses --      1.3893                 1.4465                 1.5373
 Frc consts  --      1.5038                 1.5718                 1.7086
 IR Inten    --      1.5883                 8.2989                 4.8808

                     67                     68                     69
                      A                      A                      A
 Frequencies --   1388.7323              1396.3845              1422.5725
 Red. masses --      1.7839                 1.4042                 1.5384
 Frc consts  --      2.0270                 1.6132                 1.8343
 IR Inten    --      1.5280                29.7635                10.5606

                     70                     71                     72
                      A                      A                      A
 Frequencies --   1430.7819              1436.4853              1443.9593
 Red. masses --      1.2372                 1.6575                 1.2490
 Frc consts  --      1.4923                 2.0152                 1.5344
 IR Inten    --      4.0992                 6.5894                16.3769

                     73                     74                     75
                      A                      A                      A
 Frequencies --   1504.5310              1516.6843              1518.4939
 Red. masses --      1.1252                 1.0742                 1.0479
 Frc consts  --      1.5007                 1.4558                 1.4236
 IR Inten    --     13.4509                 0.3614                 0.8273

                     76                     77                     78
                      A                      A                      A
 Frequencies --   1519.1115              1526.1677              1526.5332
 Red. masses --      1.0656                 1.0872                 1.0779
 Frc consts  --      1.4488                 1.4920                 1.4799
 IR Inten    --      2.3983                 5.6500                 6.0142

                     79                     80                     81
                      A                      A                      A
 Frequencies --   1533.5442              1534.2563              1540.2014
 Red. masses --      1.0687                 1.1232                 1.0775
 Frc consts  --      1.4808                 1.5578                 1.5060
 IR Inten    --      0.1943                 5.4364                 4.1058

                     82                     83                     84
                      A                      A                      A
 Frequencies --   1543.2164              1546.3969              1556.1010
 Red. masses --      1.0697                 1.0824                 1.1032
 Frc consts  --      1.5010                 1.5251                 1.5739
 IR Inten    --      6.1302                 5.6502                 3.1666

                     85                     86                     87
                      A                      A                      A
 Frequencies --   1564.3734              1656.1923              2922.9009
 Red. masses --      5.4022                10.3113                 1.0818
 Frc consts  --      7.7894                16.6642                 5.4451
 IR Inten    --     32.4093                 6.7755                81.1013

                     88                     89                     90
                      A                      A                      A
 Frequencies --   2988.2743              3044.8098              3051.8831
 Red. masses --      1.0725                 1.0360                 1.0639
 Frc consts  --      5.6428                 5.6590                 5.8385
 IR Inten    --     57.6188                25.9532                30.2770

                     91                     92                     93
                      A                      A                      A
 Frequencies --   3053.2981              3053.4911              3060.9242
 Red. masses --      1.0369                 1.0397                 1.0632
 Frc consts  --      5.6952                 5.7115                 5.8693
 IR Inten    --      8.2886                14.5277                22.1196

                     94                     95                     96
                      A                      A                      A
 Frequencies --   3062.9634              3074.7434              3090.7368
 Red. masses --      1.0631                 1.0641                 1.0886
 Frc consts  --      5.8765                 5.9269                 6.1270
 IR Inten    --     28.7448                46.4083                15.8029

                     97                     98                     99
                      A                      A                      A
 Frequencies --   3093.3751              3108.5406              3109.7582
 Red. masses --      1.1007                 1.1007                 1.1009
 Frc consts  --      6.2057                 6.2664                 6.2728
 IR Inten    --     14.6789                14.4757                31.5555

                    100                    101                    102
                      A                      A                      A
 Frequencies --   3118.6034              3120.3926              3121.3647
 Red. masses --      1.1035                 1.1027                 1.1024
 Frc consts  --      6.3232                 6.3260                 6.3282
 IR Inten    --     64.1713                16.0591                23.6923

                    103                    104                    105
                      A                      A                      A
 Frequencies --   3125.7342              3129.0676              3133.6066
 Red. masses --      1.1011                 1.1022                 1.0988
 Frc consts  --      6.3387                 6.3585                 6.3571
 IR Inten    --     34.1559                61.4918                22.9485

                    106                    107                    108
                      A                      A                      A
 Frequencies --   3140.8723              3293.5741              3478.6360
 Red. masses --      1.1028                 1.0986                 1.0741
 Frc consts  --      6.4096                 7.0212                 7.6582
 IR Inten    --     12.8036                 1.2174                 0.2160

 - Thermochemistry -
 -------------------
 Temperature   298.150 Kelvin.  Pressure   1.00000 Atm.
 Atom     1 has atomic number  6 and mass  12.00000

 Molecular mass:   222.17321 amu.
 Principal axes and moments of inertia in atomic units:
                           1         2         3
     Eigenvalues --  2802.095644543.273226353.81783
           X            0.99996   0.00942   0.00064
           Y           -0.00942   0.99994   0.00508
           Z           -0.00060  -0.00509   0.99999
 This molecule is an asymmetric top.
 Rotational symmetry number  1.
 Warning -- assumption of classical behavior for rotation
           may cause significant error
 Rotational temperatures (Kelvin)      0.03091     0.01906     0.01363
 Rotational constants (GHZ):           0.64407     0.39723     0.28404
 Zero-point vibrational energy     894165.7 (Joules/Mol)
                                  213.71072 (Kcal/Mol)
 Warning -- explicit consideration of  23 degrees of freedom as
           vibrations may cause significant error
 Vibrational temperatures:     45.43    57.36    62.19   125.80   143.27
          (Kelvin)            158.95   181.01   216.97   298.26   313.90
                              336.18   372.67   382.51   395.76   407.07
                              478.35   511.33   550.77   588.87   628.27
                              665.16   695.74   758.76   930.10   969.39
                             1007.67  1035.24  1100.00  1153.92  1168.20
                             1171.72  1197.92  1237.57  1267.29  1293.89
                             1354.09  1357.20  1370.50  1382.77  1390.64
                             1398.17  1436.36  1461.77  1489.18  1528.46
                             1530.27  1576.77  1585.61  1627.56  1647.47
                             1676.99  1716.09  1723.41  1734.49  1751.76
                             1784.60  1809.41  1834.23  1838.32  1863.70
                             1883.22  1913.46  1938.74  1950.08  1953.87
                             1976.08  1998.08  2009.09  2046.76  2058.58
                             2066.78  2077.54  2164.68  2182.17  2184.77
                             2185.66  2195.81  2196.34  2206.43  2207.45
                             2216.01  2220.34  2224.92  2238.88  2250.78
                             2382.89  4205.40  4299.46  4380.80  4390.98
                             4393.01  4393.29  4403.99  4406.92  4423.87
                             4446.88  4450.68  4472.50  4474.25  4486.97
                             4489.55  4490.95  4497.23  4502.03  4508.56
                             4519.01  4738.72  5004.98

 Zero-point correction=                           0.340570 (Hartree/Particle)
 Thermal correction to Energy=                    0.357137
 Thermal correction to Enthalpy=                  0.358081
 Thermal correction to Gibbs Free Energy=         0.295650
 Sum of electronic and zero-point Energies=           -693.077226
 Sum of electronic and thermal Energies=              -693.060659
 Sum of electronic and thermal Enthalpies=            -693.059714
 Sum of electronic and thermal Free Energies=         -693.122146

                     E (Thermal)             CV                S
                      KCal/Mol        Cal/Mol-Kelvin    Cal/Mol-Kelvin
 Total                  224.107             62.959            131.398
 Electronic               0.000              0.000              0.000
 Translational            0.889              2.981             42.098
 Rotational               0.889              2.981             32.759
 Vibrational            222.329             56.998             56.542
 Vibration     1          0.594              1.983              5.728
 Vibration     2          0.594              1.981              5.266
 Vibration     3          0.595              1.980              5.105
 Vibration     4          0.601              1.958              3.717
 Vibration     5          0.604              1.949              3.463
 Vibration     6          0.606              1.941              3.260
 Vibration     7          0.611              1.927              3.009
 Vibration     8          0.618              1.902              2.662
 Vibration     9          0.641              1.829              2.067
 Vibration    10          0.646              1.813              1.974
 Vibration    11          0.654              1.789              1.851
 Vibration    12          0.668              1.748              1.668
 Vibration    13          0.672              1.736              1.623
 Vibration    14          0.677              1.719              1.564
 Vibration    15          0.682              1.705              1.516
 Vibration    16          0.714              1.611              1.248
 Vibration    17          0.731              1.564              1.142
 Vibration    18          0.752              1.507              1.028
 Vibration    19          0.774              1.450              0.929
 Vibration    20          0.797              1.390              0.837
 Vibration    21          0.820              1.334              0.759
 Vibration    22          0.840              1.287              0.701
 Vibration    23          0.882              1.189              0.593

 Optimization completed.
    -- Stationary point found.
 Normal termination of Gaussian 16 at Fri Dec 11 00:30:33 2020.

 ----------------------------------------------------------------------
 # B3LYP/6-311++G(d,p) empiricaldispersion=gd3bj scf=xqc pop=npa geom=c
 heck
 ----------------------------------------------------------------------

 --------------------------------------
 CID_80271334_JID_6670_Energie_neutraal
 --------------------------------------
 Structure from the checkpoint file:  "JID_6670.chk"
 Charge =  0 Multiplicity = 1

 SCF Done:  E(RB3LYP) =  -693.607481152     A.U. after   15 cycles
 Normal termination of Gaussian 16 at Fri Dec 11 00:37:02 2020.

 ----------------------------------------------------------------------
 # B3LYP/6-311++G(d,p) empiricaldispersion=gd3bj scf=xqc pop=npa geom=c
 heck
 ----------------------------------------------------------------------

 ------------------------------------
 CID_80271334_JID_6670_Energie_kation
 ------------------------------------
 Structure from the checkpoint file:  "JID_6670.chk"
 Charge =  1 Multiplicity = 2

 SCF Done:  E(UB3LYP) =  -693.311444631     A.U. after   21 cycles
 Normal termination of Gaussian 16 at Fri Dec 11 00:50:17 2020.
 Gaussian 16:  ES64L-G16RevA.03 25-Dec-2016

 ----------------------------------------------------------------------
 # B3LYP/6-311++G(d,p) empiricaldispersion=gd3bj scf=xqc pop=npa geom=c
 heck
 ----------------------------------------------------------------------

 -----------------------------------
 CID_80271334_JID_6670_Energie_anion
 -----------------------------------
 Structure from the checkpoint file:  "JID_6670.chk"
 Charge = -1 Multiplicity = 2

                         Standard orientation:
 ---------------------------------------------------------------------
 Center     Atomic      Atomic             Coordinates (Angstroms)
 Number     Number       Type             X           Y           Z
 ---------------------------------------------------------------------
      1          6           0        4.023456   -0.696619    1.302285
      2          6           0        3.385447   -0.305685   -0.031075
      3          6           0        3.321304   -1.509251   -0.975534
      4          7           0        2.037488    0.215144    0.232412
      5          6           0        1.428534    0.930197   -0.897860
      6          6           0        0.143290    1.578906   -0.482530
      7          6           0       -1.008265    1.013229   -0.013728
      8          8           0       -1.865505    2.051504    0.301211
      9          6           0       -1.178064    3.181331   -0.005341
     10          7           0        0.011785    2.971891   -0.467592
     11          6           0       -1.475635   -0.376148    0.285921
     12          6           0       -2.995736   -0.553685    0.044858
     13          6           0       -3.197604   -2.076932   -0.114169
     14          6           0       -1.822862   -2.641575   -0.577050
     15          6           0       -0.883477   -1.421720   -0.689550
     16          6           0       -1.102394   -0.727992    1.744350
     17          1           0        4.106533    0.168546    1.971723
     18          1           0        5.029800   -1.100169    1.150051
     19          1           0        3.414813   -1.458131    1.802932
     20          1           0        4.019060    0.468577   -0.506724
     21          1           0        2.710809   -2.303355   -0.531028
     22          1           0        2.887310   -1.247988   -1.945886
     23          1           0        4.326693   -1.903818   -1.159162
     24          1           0        2.089275    0.868357    1.013193
     25          1           0        2.083671    1.716097   -1.309662
     26          1           0        1.248267    0.209183   -1.701219
     27          1           0       -1.684943    4.121058    0.157856
     28          1           0       -3.598545   -0.120536    0.848886
     29          1           0       -3.272179   -0.035431   -0.880797
     30          1           0       -3.996122   -2.296811   -0.829506
     31          1           0       -3.498097   -2.529011    0.836779
     32          1           0       -1.894359   -3.176577   -1.529055
     33          1           0       -1.436283   -3.358297    0.155044
     34          1           0       -0.918592   -1.014755   -1.707540
     35          1           0        0.159091   -1.651815   -0.457106
     36          1           0       -0.014976   -0.704588    1.859837
     37          1           0       -1.548801   -0.009145    2.440123
     38          1           0       -1.461250   -1.727002    2.014366
 ---------------------------------------------------------------------

 SCF Done:  E(UB3LYP) =  -693.592389799     A.U. after   33 cycles
 SCF Done:  E(UB3LYP) =  -693.592389799     a.u. after    1 cycles

 The electronic state is 2-A.
 Alpha  occ. eigenvalues --  -19.10767 -14.22265 -14.20455 -10.16483 -10.13616
 Alpha  occ. eigenvalues --  -10.10703 -10.10545 -10.10519 -10.09891 -10.07060
 Alpha  occ. eigenvalues --  -10.06981 -10.06790 -10.06611 -10.06435 -10.06257
 Alpha  occ. eigenvalues --  -10.06109  -1.04040  -0.83541  -0.81402  -0.75959
 Alpha  occ. eigenvalues --   -0.69688  -0.67102  -0.63751  -0.61698  -0.59838
 Alpha  occ. eigenvalues --   -0.58435  -0.57201  -0.52043  -0.50495  -0.48067
 Alpha  occ. eigenvalues --   -0.46922  -0.45453  -0.42562  -0.39810  -0.39037
 Alpha  occ. eigenvalues --   -0.38686  -0.37498  -0.36411  -0.35889  -0.34249
 Alpha  occ. eigenvalues --   -0.34094  -0.31933  -0.30441  -0.30191  -0.29986
 Alpha  occ. eigenvalues --   -0.29646  -0.28866  -0.28575  -0.26563  -0.25508
 Alpha  occ. eigenvalues --   -0.24983  -0.24586  -0.24266  -0.24192  -0.23476
 Alpha  occ. eigenvalues --   -0.23452  -0.22585  -0.21976  -0.20247  -0.14745
 Alpha  occ. eigenvalues --   -0.13769   0.04298
 Alpha virt. eigenvalues --    0.06062   0.06514   0.06911   0.07719   0.08153
 Alpha virt. eigenvalues --    0.08427   0.08553   0.08916   0.09968   0.10509
 Alpha virt. eigenvalues --    0.10535   0.10745   0.11465   0.11721   0.12555

  Beta  occ. eigenvalues --  -19.10761 -14.22263 -14.20439 -10.16474 -10.13609
  Beta  occ. eigenvalues --  -10.10703 -10.10535 -10.10510 -10.09892 -10.07043
  Beta  occ. eigenvalues --  -10.06963 -10.06771 -10.06597 -10.06401 -10.06237
  Beta  occ. eigenvalues --  -10.06079  -1.04030  -0.83532  -0.81384  -0.75942
  Beta  occ. eigenvalues --   -0.69667  -0.67073  -0.63723  -0.61662  -0.59789
  Beta  occ. eigenvalues --   -0.58391  -0.57159  -0.52022  -0.50470  -0.48003
  Beta  occ. eigenvalues --   -0.46865  -0.45428  -0.42528  -0.39780  -0.39009
  Beta  occ. eigenvalues --   -0.38658  -0.37469  -0.36382  -0.35848  -0.34226
  Beta  occ. eigenvalues --   -0.34072  -0.31907  -0.30415  -0.30162  -0.29960
  Beta  occ. eigenvalues --   -0.29610  -0.28844  -0.28538  -0.26535  -0.25481
  Beta  occ. eigenvalues --   -0.24942  -0.24551  -0.24231  -0.24160  -0.23451
  Beta  occ. eigenvalues --   -0.23428  -0.22572  -0.21951  -0.20236  -0.14718
  Beta  occ. eigenvalues --   -0.13733
  Beta virt. eigenvalues --    0.06239   0.06884   0.07046   0.07367   0.08060
  Beta virt. eigenvalues --    0.08512   0.08821   0.09019   0.09194   0.10234
  Beta virt. eigenvalues --    0.10832   0.10930   0.10982   0.11753   0.11893

 Mulliken charges and spin densities:
               1          2
     1  C    0.681415  -1.296641
     2  C   -1.093513   1.057750
     3  C    0.750761  -1.214228
     4  N    0.167170  -0.106801
     5  C   -0.932480   0.303183
     6  C    0.406712  -0.513013
     7  C    0.135230  -0.341181
     8  O   -0.001075   0.019074
     9  C    0.185420   0.159600
    10  N   -0.015877   0.016672
    11  C    0.215886   0.632703
    12  C   -0.170527  -0.304466
    13  C   -0.003523  -0.442429
    14  C    0.679844  -1.310839
    15  C   -0.900933   0.574368
    16  C    0.006857  -0.812209
    17  H   -0.315836   0.450583
    18  H   -0.210584   0.354119
    19  H   -0.097394   0.244618
    20  H   -0.006099   0.122099
    21  H   -0.173285   0.333465
    22  H   -0.113788   0.245664
    23  H   -0.426193   0.582147
    24  H    0.216905   0.004340
    25  H   -0.017182   0.191971
    26  H    0.075029   0.056612
    27  H   -0.361435   0.559061
    28  H   -0.059182   0.235006
    29  H   -0.066619   0.249735
    30  H   -0.141891   0.291289
    31  H    0.034334   0.111178
    32  H   -0.132808   0.287021
    33  H   -0.172569   0.340851
    34  H   -0.323345   0.489841
    35  H    1.105152  -0.976816
    36  H    0.214943  -0.043722
    37  H   -0.139913   0.298170
    38  H    0.000394   0.151222
 Sum of Mulliken charges =  -1.00000   1.00000

 Dipole moment (field-independent basis, Debye):
    X=             -2.6399    Y=              2.4218    Z=              0.4384  Tot=              3.6092
 Quadrupole moment (field-independent basis, Debye-Ang):
   XX=           -181.7386   YY=           -152.8931   ZZ=           -139.3820
   XY=              2.9613   XZ=             -4.3646   YZ=             -2.5814

 Summary of Natural Population Analysis:

                                       Natural Population
                Natural  -----------------------------------------------
    Atom  No    Charge         Core      Valence    Rydberg      Total
 -----------------------------------------------------------------------
      C    1   -0.28638      0.99965     2.28090    0.00584     3.28638
      C    2   -0.01063      0.99962     1.99999    0.01102     3.01063
      C    3   -0.28886      0.99964     2.28311    0.00611     3.28886
      N    4   -0.33803      0.99973     2.82816    0.01014     3.83803
      C    5   -0.09885      0.99958     2.08990    0.00936     3.09885
      C    6    0.03449      0.99944     1.95269    0.01337     2.96551
      C    7    0.16113      0.99934     1.82353    0.01600     2.83887
      O    8   -0.23579      0.99986     3.22854    0.00738     4.23579
      C    9    0.17506      0.99964     1.80682    0.01848     2.82494
      N   10   -0.24899      0.99971     2.73947    0.00981     3.74899
      C   11   -0.06409      0.99954     2.05217    0.01238     3.06409
      C   12   -0.18433      0.99961     2.17491    0.00982     3.18433
      C   13   -0.19448      0.99964     2.18735    0.00749     3.19448
      C   14   -0.19312      0.99964     2.18566    0.00782     3.19312
      C   15   -0.18853      0.99960     2.17959    0.00934     3.18853
      C   16   -0.28289      0.99962     2.27645    0.00682     3.28289
      H   17    0.09778      0.00000     0.40102    0.00121     0.40222
      H   18    0.10198      0.00000     0.39684    0.00118     0.39802
      H   19    0.10109      0.00000     0.39761    0.00130     0.39891
      H   20    0.07497      0.00000     0.42266    0.00236     0.42503
      H   21    0.10041      0.00000     0.39823    0.00137     0.39959
      H   22    0.09871      0.00000     0.40008    0.00121     0.40129
      H   23    0.10078      0.00000     0.39805    0.00117     0.39922
      H   24    0.17233      0.00000     0.32453    0.00314     0.32767
      H   25    0.09052      0.00000     0.40751    0.00197     0.40948
      H   26    0.10035      0.00000     0.39792    0.00172     0.39965
      H   27    0.08867      0.00000     0.41013    0.00121     0.41133
      H   28    0.10310      0.00000     0.39573    0.00117     0.39690
      H   29    0.10073      0.00000     0.39793    0.00134     0.39927
      H   30    0.10015      0.00000     0.39877    0.00107     0.39985
      H   31    0.09574      0.00000     0.40312    0.00114     0.40426
      H   32    0.10129      0.00000     0.39762    0.00110     0.39871
      H   33    0.09665      0.00000     0.40224    0.00111     0.40335
      H   34    0.09861      0.00000     0.39982    0.00157     0.40139
      H   35    0.11119      0.00000     0.38676    0.00205     0.38881
      H   36    0.11036      0.00000     0.38810    0.00153     0.38964
      H   37    0.09968      0.00000     0.39939    0.00093     0.40032
      H   38    0.09920      0.00000     0.39979    0.00101     0.40080
 =======================================================================
   * Total *   -0.00000     15.99387    44.81309    0.19304    61.00000

 Normal termination of Gaussian 16 at Fri Dec 11 01:10:44 2020.
