 Gaussian 16, Revision A.03,

 -----------------------------------------------------------
 # opt freq B3LYP/6-31G(d) empiricaldispersion=gd3bj scf=xqc
 -----------------------------------------------------------

 ------------------------------
 CID_73298573_JID_5510_neutraal
 ------------------------------
 Symbolic Z-matrix:
 Charge =  0 Multiplicity = 1

 SCF Done:  E(RB3LYP) =  -632.980321627     A.U. after   13 cycles
 SCF Done:  E(RB3LYP) =  -632.986121011     A.U. after   11 cycles
 SCF Done:  E(RB3LYP) =  -632.988084398     A.U. after   12 cycles
 SCF Done:  E(RB3LYP) =  -632.990137702     A.U. after   14 cycles
 SCF Done:  E(RB3LYP) =  -632.991531941     A.U. after   11 cycles
 SCF Done:  E(RB3LYP) =  -632.992614962     A.U. after   12 cycles
 SCF Done:  E(RB3LYP) =  -632.992619492     A.U. after   12 cycles
 SCF Done:  E(RB3LYP) =  -632.992396998     A.U. after   12 cycles
 SCF Done:  E(RB3LYP) =  -632.992898134     A.U. after   12 cycles
 SCF Done:  E(RB3LYP) =  -632.992948208     A.U. after   10 cycles
 SCF Done:  E(RB3LYP) =  -632.992967440     A.U. after   10 cycles
 SCF Done:  E(RB3LYP) =  -632.992968277     A.U. after    8 cycles
 SCF Done:  E(RB3LYP) =  -632.992968455     A.U. after    7 cycles
 SCF Done:  E(RB3LYP) =  -632.992968504     A.U. after    7 cycles
 SCF Done:  E(RB3LYP) =  -632.992968488     A.U. after    6 cycles
 Optimization completed.
    -- Stationary point found.
 Normal termination of Gaussian 16 at Thu Dec 10 16:28:19 2020.

 --------------------------------------------------------------------
 #N Geom=AllCheck Guess=TCheck SCRF=Check GenChk RB3LYP/6-31G(d) Freq
 --------------------------------------------------------------------

 Structure from the checkpoint file:  "JID_5510.chk"
 ------------------------------
 CID_73298573_JID_5510_neutraal
 ------------------------------
 Charge =  0 Multiplicity = 1

 SCF Done:  E(RB3LYP) =  -632.992968488     A.U. after    1 cycles

  Exact polarizability: 173.135  10.828 111.712   0.151   2.993 134.932
 Approx polarizability: 238.965  24.178 155.119  -1.097   5.934 228.663

                      1                      2                      3
                      A                      A                      A
 Frequencies --     36.4432                47.9947                70.1722
 Red. masses --      3.8088                 3.6376                 3.0530
 Frc consts  --      0.0030                 0.0049                 0.0089
 IR Inten    --      0.0031                 0.5324                 0.0199

                      4                      5                      6
                      A                      A                      A
 Frequencies --     86.0347               131.4871               181.8670
 Red. masses --      3.3925                 3.3904                 3.4257
 Frc consts  --      0.0148                 0.0345                 0.0668
 IR Inten    --      0.1647                 0.7991                 2.7269

                      7                      8                      9
                      A                      A                      A
 Frequencies --    228.3841               231.9069               245.3515
 Red. masses --      1.0894                 3.4782                 2.4470
 Frc consts  --      0.0335                 0.1102                 0.0868
 IR Inten    --      0.2850                 1.3598                 7.9598

                     10                     11                     12
                      A                      A                      A
 Frequencies --    251.9754               283.7955               300.0385
 Red. masses --      1.3603                 1.7976                 2.0159
 Frc consts  --      0.0509                 0.0853                 0.1069
 IR Inten    --      5.1742                18.3318                 4.4776

                     13                     14                     15
                      A                      A                      A
 Frequencies --    339.5739               352.1889               395.9082
 Red. masses --      2.1425                 2.9072                 2.4454
 Frc consts  --      0.1456                 0.2125                 0.2258
 IR Inten    --     23.0218                 4.8826                 3.9775

                     16                     17                     18
                      A                      A                      A
 Frequencies --    418.2425               429.9678               477.3309
 Red. masses --      3.0064                 3.2706                 2.9570
 Frc consts  --      0.3098                 0.3562                 0.3970
 IR Inten    --      0.0796                10.0244                 5.3883

                     19                     20                     21
                      A                      A                      A
 Frequencies --    537.1196               575.2964               613.8181
 Red. masses --      3.1648                 3.4662                 2.7088
 Frc consts  --      0.5379                 0.6759                 0.6013
 IR Inten    --      3.3144                 3.9297                 5.1670

                     22                     23                     24
                      A                      A                      A
 Frequencies --    637.5792               643.1368               713.1952
 Red. masses --      5.9794                 4.4899                 3.5641
 Frc consts  --      1.4321                 1.0942                 1.0681
 IR Inten    --      0.1391                20.0561                 5.3370

                     25                     26                     27
                      A                      A                      A
 Frequencies --    717.4126               765.4809               821.0924
 Red. masses --      1.8463                 1.9837                 2.9566
 Frc consts  --      0.5599                 0.6849                 1.1744
 IR Inten    --     23.8212                27.3706                 4.1077

                     28                     29                     30
                      A                      A                      A
 Frequencies --    839.1210               858.9838               894.0051
 Red. masses --      2.2480                 1.2488                 3.2787
 Frc consts  --      0.9326                 0.5429                 1.5439
 IR Inten    --     52.6822                 0.5043                19.6805

                     31                     32                     33
                      A                      A                      A
 Frequencies --    903.8398               913.5847               917.1119
 Red. masses --      1.7508                 2.0620                 1.5773
 Frc consts  --      0.8427                 1.0140                 0.7816
 IR Inten    --    211.0270                33.7869                17.5146

                     34                     35                     36
                      A                      A                      A
 Frequencies --    941.2616               963.1522               965.4438
 Red. masses --      1.2425                 1.8856                 1.4045
 Frc consts  --      0.6486                 1.0306                 0.7713
 IR Inten    --      2.3009                20.2687                 4.4479

                     37                     38                     39
                      A                      A                      A
 Frequencies --    971.9232               978.9253               993.9160
 Red. masses --      2.4120                 1.5050                 1.2555
 Frc consts  --      1.3424                 0.8497                 0.7307
 IR Inten    --     19.7294                 0.3737                 0.2084

                     40                     41                     42
                      A                      A                      A
 Frequencies --   1021.4850              1049.2802              1062.5100
 Red. masses --      6.1499                 3.3095                 2.3428
 Frc consts  --      3.7808                 2.1468                 1.5583
 IR Inten    --      0.2463                 6.8469                10.8914

                     43                     44                     45
                      A                      A                      A
 Frequencies --   1066.1233              1106.3662              1114.5618
 Red. masses --      2.2621                 1.5959                 1.7372
 Frc consts  --      1.5149                 1.1509                 1.2715
 IR Inten    --     29.3732                13.2555                27.7095

                     46                     47                     48
                      A                      A                      A
 Frequencies --   1120.7349              1146.2861              1152.8260
 Red. masses --      1.8674                 2.1754                 1.8502
 Frc consts  --      1.3820                 1.6841                 1.4487
 IR Inten    --     13.7809                 6.4607                11.3782

                     49                     50                     51
                      A                      A                      A
 Frequencies --   1180.8787              1193.8082              1216.9626
 Red. masses --      2.1641                 1.0960                 1.1384
 Frc consts  --      1.7780                 0.9203                 0.9934
 IR Inten    --     10.8446                 0.1007                 0.0638

                     52                     53                     54
                      A                      A                      A
 Frequencies --   1221.2285              1224.5635              1250.9363
 Red. masses --      1.5665                 1.6279                 2.1750
 Frc consts  --      1.3765                 1.4383                 2.0053
 IR Inten    --      5.5811                 2.5397                 1.8175

                     55                     56                     57
                      A                      A                      A
 Frequencies --   1279.2335              1301.8810              1334.7305
 Red. masses --      1.4074                 1.4066                 1.5137
 Frc consts  --      1.3570                 1.4046                 1.5889
 IR Inten    --      0.6953                12.2215                 2.6665

                     58                     59                     60
                      A                      A                      A
 Frequencies --   1349.4200              1360.0249              1368.4170
 Red. masses --      1.3995                 1.4566                 2.2355
 Frc consts  --      1.5015                 1.5874                 2.4664
 IR Inten    --      1.4274                 4.3124                 0.2470

                     61                     62                     63
                      A                      A                      A
 Frequencies --   1373.0447              1393.7097              1415.9288
 Red. masses --      1.5713                 1.3688                 1.4321
 Frc consts  --      1.7453                 1.5665                 1.6917
 IR Inten    --      2.8881                 1.4859                 3.6797

                     64                     65                     66
                      A                      A                      A
 Frequencies --   1427.0878              1434.3733              1444.7175
 Red. masses --      1.2845                 1.2772                 1.3187
 Frc consts  --      1.5413                 1.5482                 1.6216
 IR Inten    --      6.7101                 4.0689                35.0285

                     67                     68                     69
                      A                      A                      A
 Frequencies --   1453.9968              1504.8997              1507.3245
 Red. masses --      1.2817                 2.0958                 1.1906
 Frc consts  --      1.5964                 2.7966                 1.5937
 IR Inten    --     11.8654                 5.9311                 8.9258

                     70                     71                     72
                      A                      A                      A
 Frequencies --   1514.3817              1524.5211              1535.0009
 Red. masses --      1.0570                 1.0639                 1.0484
 Frc consts  --      1.4282                 1.4569                 1.4554
 IR Inten    --      1.7730                 1.1135                 6.5253

                     73                     74                     75
                      A                      A                      A
 Frequencies --   1543.4641              1548.3576              1644.5521
 Red. masses --      1.0662                 2.2390                 5.4100
 Frc consts  --      1.4966                 3.1626                 8.6208
 IR Inten    --      6.2951                15.1779                 1.7268

                     76                     77                     78
                      A                      A                      A
 Frequencies --   1667.4174              1677.0519              2939.1642
 Red. masses --      5.5182                 1.1067                 1.0820
 Frc consts  --      9.0393                 1.8340                 5.5072
 IR Inten    --      9.9481                32.5126                67.5444

                     79                     80                     81
                      A                      A                      A
 Frequencies --   3007.5904              3042.5060              3054.5886
 Red. masses --      1.0829                 1.0362                 1.0435
 Frc consts  --      5.7713                 5.6517                 5.7368
 IR Inten    --     26.5515                31.3563                14.1722

                     82                     83                     84
                      A                      A                      A
 Frequencies --   3064.0398              3073.1140              3105.9237
 Red. masses --      1.0790                 1.0853                 1.1011
 Frc consts  --      5.9686                 6.0389                 6.2584
 IR Inten    --     25.5292                28.2431                40.3720

                     85                     86                     87
                      A                      A                      A
 Frequencies --   3115.5999              3123.8892              3143.8316
 Red. masses --      1.0999                 1.1021                 1.1006
 Frc consts  --      6.2907                 6.3367                 6.4090
 IR Inten    --     50.3690                27.2436                20.7199

                     88                     89                     90
                      A                      A                      A
 Frequencies --   3173.9378              3176.7784              3189.3746
 Red. masses --      1.0859                 1.0871                 1.0895
 Frc consts  --      6.4452                 6.4640                 6.5295
 IR Inten    --     14.2449                 4.9533                 7.1027

                     91                     92                     93
                      A                      A                      A
 Frequencies --   3197.8710              3210.6312              3296.3269
 Red. masses --      1.0938                 1.0979                 1.0749
 Frc consts  --      6.5901                 6.6678                 6.8813
 IR Inten    --     39.3729                22.8601                34.1874

                     94                     95                     96
                      A                      A                      A
 Frequencies --   3465.9180              3525.5269              3560.1677
 Red. masses --      1.0492                 1.0759                 1.0925
 Frc consts  --      7.4261                 7.8789                 8.1584
 IR Inten    --      0.2681                 0.7879                 0.2569

 - Thermochemistry -
 -------------------
 Temperature   298.150 Kelvin.  Pressure   1.00000 Atm.
 Atom     1 has atomic number  6 and mass  12.00000

 Molecular mass:   205.15790 amu.
 Principal axes and moments of inertia in atomic units:
                           1         2         3
     Eigenvalues --  1975.767844523.543895234.15233
           X            0.99978  -0.01999   0.00645
           Y            0.01992   0.99975   0.01029
           Z           -0.00665  -0.01016   0.99993
 This molecule is an asymmetric top.
 Rotational symmetry number  1.
 Warning -- assumption of classical behavior for rotation
           may cause significant error
 Rotational temperatures (Kelvin)      0.04384     0.01915     0.01655
 Rotational constants (GHZ):           0.91344     0.39897     0.34480
 Zero-point vibrational energy     794756.6 (Joules/Mol)
                                  189.95139 (Kcal/Mol)
 Warning -- explicit consideration of  21 degrees of freedom as
           vibrations may cause significant error
 Vibrational temperatures:     52.43    69.05   100.96   123.78   189.18
          (Kelvin)            261.67   328.59   333.66   353.01   362.54
                              408.32   431.69   488.57   506.72   569.62
                              601.76   618.63   686.77   772.80   827.72
                              883.15   917.33   925.33  1026.13  1032.20
                             1101.36  1181.37  1207.31  1235.89  1286.27
                             1300.42  1314.44  1319.52  1354.27  1385.76
                             1389.06  1398.38  1408.46  1430.02  1469.69
                             1509.68  1528.71  1533.91  1591.81  1603.61
                             1612.49  1649.25  1658.66  1699.02  1717.62
                             1750.94  1757.08  1761.87  1799.82  1840.53
                             1873.12  1920.38  1941.51  1956.77  1968.85
                             1975.51  2005.24  2037.21  2053.26  2063.74
                             2078.63  2091.98  2165.22  2168.70  2178.86
                             2193.45  2208.52  2220.70  2227.74  2366.14
                             2399.04  2412.90  4228.80  4327.25  4377.49
                             4394.87  4408.47  4421.53  4468.73  4482.65
                             4494.58  4523.27  4566.59  4570.68  4588.80
                             4601.02  4619.38  4742.68  4986.68  5072.45
                             5122.29

 Zero-point correction=                           0.302707 (Hartree/Particle)
 Thermal correction to Energy=                    0.317033
 Thermal correction to Enthalpy=                  0.317978
 Thermal correction to Gibbs Free Energy=         0.261202
 Sum of electronic and zero-point Energies=           -632.690262
 Sum of electronic and thermal Energies=              -632.675935
 Sum of electronic and thermal Enthalpies=            -632.674991
 Sum of electronic and thermal Free Energies=         -632.731767

                     E (Thermal)             CV                S
                      KCal/Mol        Cal/Mol-Kelvin    Cal/Mol-Kelvin
 Total                  198.941             56.445            119.494
 Electronic               0.000              0.000              0.000
 Translational            0.889              2.981             41.860
 Rotational               0.889              2.981             32.214
 Vibrational            197.164             50.484             45.420
 Vibration     1          0.594              1.982              5.444
 Vibration     2          0.595              1.978              4.898
 Vibration     3          0.598              1.968              4.149
 Vibration     4          0.601              1.959              3.748
 Vibration     5          0.612              1.922              2.924
 Vibration     6          0.630              1.864              2.309
 Vibration     7          0.651              1.798              1.892
 Vibration     8          0.653              1.792              1.864
 Vibration     9          0.660              1.770              1.764
 Vibration    10          0.664              1.759              1.717
 Vibration    11          0.682              1.704              1.511
 Vibration    12          0.693              1.674              1.417
 Vibration    13          0.719              1.596              1.214
 Vibration    14          0.729              1.571              1.156
 Vibration    15          0.763              1.479              0.978
 Vibration    16          0.781              1.431              0.898
 Vibration    17          0.791              1.405              0.859
 Vibration    18          0.834              1.300              0.717
 Vibration    19          0.892              1.168              0.572
 Vibration    20          0.932              1.085              0.494
 Vibration    21          0.973              1.003              0.426

 Optimization completed.
    -- Stationary point found.
 Normal termination of Gaussian 16 at Thu Dec 10 16:40:26 2020.

 ----------------------------------------------------------------------
 # B3LYP/6-311++G(d,p) empiricaldispersion=gd3bj scf=xqc pop=npa geom=c
 heck
 ----------------------------------------------------------------------

 --------------------------------------
 CID_73298573_JID_5510_Energie_neutraal
 --------------------------------------
 Structure from the checkpoint file:  "JID_5510.chk"
 Charge =  0 Multiplicity = 1

 SCF Done:  E(RB3LYP) =  -633.176771681     A.U. after   14 cycles
 Normal termination of Gaussian 16 at Thu Dec 10 16:46:34 2020.

 ----------------------------------------------------------------------
 # B3LYP/6-311++G(d,p) empiricaldispersion=gd3bj scf=xqc pop=npa geom=c
 heck
 ----------------------------------------------------------------------

 ------------------------------------
 CID_73298573_JID_5510_Energie_kation
 ------------------------------------
 Structure from the checkpoint file:  "JID_5510.chk"
 Charge =  1 Multiplicity = 2

 SCF Done:  E(UB3LYP) =  -632.888697909     A.U. after   23 cycles
 Normal termination of Gaussian 16 at Thu Dec 10 17:01:25 2020.
 Gaussian 16:  ES64L-G16RevA.03 25-Dec-2016

 ----------------------------------------------------------------------
 # B3LYP/6-311++G(d,p) empiricaldispersion=gd3bj scf=xqc pop=npa geom=c
 heck
 ----------------------------------------------------------------------

 -----------------------------------
 CID_73298573_JID_5510_Energie_anion
 -----------------------------------
 Structure from the checkpoint file:  "JID_5510.chk"
 Charge = -1 Multiplicity = 2

                         Standard orientation:
 ---------------------------------------------------------------------
 Center     Atomic      Atomic             Coordinates (Angstroms)
 Number     Number       Type             X           Y           Z
 ---------------------------------------------------------------------
      1          6           0        2.853372   -2.401297   -0.339841
      2          6           0        2.053474   -1.380558    0.478562
      3          6           0        2.993726   -0.553893    1.363925
      4          6           0        1.183908   -0.522840   -0.460059
      5          6           0        0.139256    0.370870    0.281251
      6          6           0        0.438585    1.793093   -0.280191
      7          7           0        1.861877    1.659078   -0.584049
      8          7           0        2.003577    0.406442   -1.286059
      9          7           0        0.231545    2.934994    0.584261
     10          6           0       -1.299642   -0.049607    0.141912
     11          6           0       -1.883561   -0.245791   -1.119142
     12          6           0       -3.222812   -0.608865   -1.241276
     13          6           0       -4.010111   -0.782553   -0.100576
     14          6           0       -3.444687   -0.589530    1.159118
     15          6           0       -2.102052   -0.225828    1.275272
     16          1           0        3.516177   -1.880618   -1.039414
     17          1           0        2.191853   -3.056043   -0.920534
     18          1           0        3.468359   -3.034467    0.309616
     19          1           0        1.351272   -1.927982    1.126400
     20          1           0        3.693544    0.015497    0.746248
     21          1           0        2.455368    0.161482    1.993586
     22          1           0        3.567850   -1.215736    2.022751
     23          1           0        0.671576   -1.205365   -1.146095
     24          1           0        0.389313    0.397898    1.347492
     25          1           0       -0.176291    1.953406   -1.186351
     26          1           0        2.215652    2.415788   -1.164688
     27          1           0        1.508054    0.489959   -2.184517
     28          1           0       -0.758071    3.023314    0.807774
     29          1           0        0.731949    2.780335    1.459064
     30          1           0       -1.282639   -0.112137   -2.015522
     31          1           0       -3.653692   -0.756789   -2.227769
     32          1           0       -5.054251   -1.066740   -0.195032
     33          1           0       -4.046596   -0.723883    2.053740
     34          1           0       -1.665140   -0.080722    2.260455
 ---------------------------------------------------------------------

 SCF Done:  E(UB3LYP) =  -633.164284777     A.U. after   33 cycles
 SCF Done:  E(UB3LYP) =  -633.164284777     a.u. after    1 cycles

 The electronic state is 2-A.
 Alpha  occ. eigenvalues --  -14.22994 -14.22763 -14.20654 -10.13022 -10.10333
 Alpha  occ. eigenvalues --  -10.08676 -10.08064 -10.07845 -10.07843 -10.07816
 Alpha  occ. eigenvalues --  -10.07701 -10.07688 -10.07595 -10.06195 -10.05793
 Alpha  occ. eigenvalues --   -0.89590  -0.79843  -0.76410  -0.72281  -0.68341
 Alpha  occ. eigenvalues --   -0.66735  -0.65070  -0.62134  -0.58752  -0.53859
 Alpha  occ. eigenvalues --   -0.52418  -0.50982  -0.48227  -0.45491  -0.44542
 Alpha  occ. eigenvalues --   -0.41445  -0.40869  -0.39310  -0.36591  -0.35319
 Alpha  occ. eigenvalues --   -0.35053  -0.33706  -0.33367  -0.32582  -0.32127
 Alpha  occ. eigenvalues --   -0.31187  -0.30284  -0.28675  -0.27931  -0.26878
 Alpha  occ. eigenvalues --   -0.26629  -0.25177  -0.24712  -0.24042  -0.23413
 Alpha  occ. eigenvalues --   -0.22533  -0.18927  -0.16765  -0.15994  -0.14385
 Alpha  occ. eigenvalues --   -0.12405   0.04210
 Alpha virt. eigenvalues --    0.06162   0.06533   0.07188   0.07708   0.08118
 Alpha virt. eigenvalues --    0.08278   0.08566   0.09068   0.09697   0.10104
 Alpha virt. eigenvalues --    0.10595   0.10973   0.11841   0.12099   0.12944

  Beta  occ. eigenvalues --  -14.22969 -14.22749 -14.20637 -10.13010 -10.10325
  Beta  occ. eigenvalues --  -10.08678 -10.08059 -10.07840 -10.07828 -10.07799
  Beta  occ. eigenvalues --  -10.07689 -10.07673 -10.07569 -10.06183 -10.05781
  Beta  occ. eigenvalues --   -0.89566  -0.79811  -0.76383  -0.72258  -0.68313
  Beta  occ. eigenvalues --   -0.66692  -0.65028  -0.62101  -0.58729  -0.53822
  Beta  occ. eigenvalues --   -0.52372  -0.50932  -0.48186  -0.45458  -0.44498
  Beta  occ. eigenvalues --   -0.41397  -0.40808  -0.39280  -0.36549  -0.35276
  Beta  occ. eigenvalues --   -0.35023  -0.33685  -0.33337  -0.32542  -0.32092
  Beta  occ. eigenvalues --   -0.31157  -0.30255  -0.28662  -0.27907  -0.26845
  Beta  occ. eigenvalues --   -0.26603  -0.25141  -0.24680  -0.24019  -0.23394
  Beta  occ. eigenvalues --   -0.22508  -0.18896  -0.16749  -0.15961  -0.14362
  Beta  occ. eigenvalues --   -0.12369
  Beta virt. eigenvalues --    0.06295   0.07085   0.07223   0.07583   0.07789
  Beta virt. eigenvalues --    0.08311   0.08805   0.09034   0.09289   0.09879
  Beta virt. eigenvalues --    0.10350   0.11072   0.11320   0.12001   0.12349

 Mulliken charges and spin densities:
               1          2
     1  C   -0.054779  -0.646332
     2  C   -0.797903   0.979137
     3  C   -0.351741  -0.384315
     4  C    2.322440  -2.470574
     5  C   -0.367854   0.141040
     6  C    1.468009  -2.339086
     7  N   -0.512593   0.260850
     8  N   -0.164536   0.134065
     9  N   -0.444237   0.142365
    10  C    0.347334   0.264170
    11  C   -0.356575   0.076813
    12  C   -0.543072   0.136503
    13  C    1.338725  -1.538501
    14  C    0.182514  -0.516068
    15  C   -1.856643   2.020565
    16  H    0.101074   0.073642
    17  H   -0.120315   0.241735
    18  H    0.065559   0.069185
    19  H    0.055826   0.114666
    20  H    0.149338   0.007456
    21  H    0.000681   0.126521
    22  H   -0.115117   0.254668
    23  H    0.631189  -0.430475
    24  H    0.513819  -0.315668
    25  H    0.092117   0.138273
    26  H    0.179109   0.096396
    27  H   -0.158072   0.422326
    28  H    0.112378   0.122676
    29  H    0.068135   0.184926
    30  H   -0.674482   0.849762
    31  H   -0.696408   0.880072
    32  H   -0.260532   0.412755
    33  H   -0.501955   0.678770
    34  H   -0.651433   0.811685
 Sum of Mulliken charges =  -1.00000   1.00000

 Dipole moment (field-independent basis, Debye):
    X=              3.9820    Y=              0.1010    Z=              1.6812  Tot=              4.3235
 Quadrupole moment (field-independent basis, Debye-Ang):
   XX=           -164.3763   YY=           -132.9463   ZZ=           -140.9645
   XY=             -4.0838   XZ=              0.0069   YZ=              1.1323

 Summary of Natural Population Analysis:

                                       Natural Population
                Natural  -----------------------------------------------
    Atom  No    Charge         Core      Valence    Rydberg      Total
 -----------------------------------------------------------------------
      C    1   -0.28397      0.99965     2.27921    0.00512     3.28397
      C    2   -0.11403      0.99959     2.10405    0.01039     3.11403
      C    3   -0.28581      0.99964     2.28080    0.00537     3.28581
      C    4   -0.00365      0.99956     1.98938    0.01471     3.00365
      C    5   -0.13411      0.99953     2.11950    0.01508     3.13411
      C    6    0.08393      0.99959     1.90152    0.01495     2.91607
      N    7   -0.25599      0.99972     2.74242    0.01385     3.75599
      N    8   -0.24855      0.99975     2.73414    0.01465     3.74855
      N    9   -0.41821      0.99975     2.90920    0.00926     3.91821
      C   10   -0.01726      0.99949     2.00487    0.01290     3.01726
      C   11   -0.10116      0.99951     2.09125    0.01040     3.10116
      C   12   -0.09574      0.99956     2.08549    0.01069     3.09574
      C   13   -0.10438      0.99956     2.09489    0.00993     3.10438
      C   14   -0.09760      0.99956     2.08755    0.01050     3.09760
      C   15   -0.09903      0.99951     2.08885    0.01067     3.09903
      H   16    0.10329      0.00000     0.39546    0.00125     0.39671
      H   17    0.09754      0.00000     0.40149    0.00097     0.40246
      H   18    0.09519      0.00000     0.40396    0.00085     0.40481
      H   19    0.09453      0.00000     0.40376    0.00170     0.40547
      H   20    0.10562      0.00000     0.39313    0.00126     0.39438
      H   21    0.09874      0.00000     0.40013    0.00113     0.40126
      H   22    0.09397      0.00000     0.40515    0.00089     0.40603
      H   23    0.10073      0.00000     0.39737    0.00190     0.39927
      H   24    0.10318      0.00000     0.39418    0.00264     0.39682
      H   25    0.07925      0.00000     0.41845    0.00230     0.42075
      H   26    0.17811      0.00000     0.31973    0.00216     0.32189
      H   27    0.16212      0.00000     0.33412    0.00376     0.33788
      H   28    0.17979      0.00000     0.31853    0.00168     0.32021
      H   29    0.17512      0.00000     0.32274    0.00214     0.32488
      H   30    0.10225      0.00000     0.39461    0.00314     0.39775
      H   31    0.10269      0.00000     0.39571    0.00161     0.39731
      H   32    0.10141      0.00000     0.39729    0.00130     0.39859
      H   33    0.10170      0.00000     0.39686    0.00144     0.39830
      H   34    0.10033      0.00000     0.39749    0.00217     0.39967
 =======================================================================
   * Total *    0.00000     14.99396    40.80326    0.20278    56.00000

 Normal termination of Gaussian 16 at Thu Dec 10 17:20:59 2020.
