 Gaussian 16, Revision A.03,

 -----------------------------------------------------------
 # opt freq B3LYP/6-31G(d) empiricaldispersion=gd3bj scf=xqc
 -----------------------------------------------------------

 ------------------------------
 CID_88724173_JID_1902_neutraal
 ------------------------------
 Symbolic Z-matrix:
 Charge =  0 Multiplicity = 1

 SCF Done:  E(RB3LYP) =  -839.612483209     A.U. after   17 cycles
 SCF Done:  E(RB3LYP) =  -839.638000301     A.U. after   14 cycles
 SCF Done:  E(RB3LYP) =  -839.640869027     A.U. after   14 cycles
 SCF Done:  E(RB3LYP) =  -839.640975770     A.U. after   16 cycles
 SCF Done:  E(RB3LYP) =  -839.640969034     A.U. after   16 cycles
 SCF Done:  E(RB3LYP) =  -839.641585541     A.U. after   13 cycles
 SCF Done:  E(RB3LYP) =  -839.642880104     A.U. after   14 cycles
 SCF Done:  E(RB3LYP) =  -839.642942385     A.U. after   12 cycles
 SCF Done:  E(RB3LYP) =  -839.643030198     A.U. after   13 cycles
 SCF Done:  E(RB3LYP) =  -839.643066130     A.U. after   12 cycles
 SCF Done:  E(RB3LYP) =  -839.643072065     A.U. after    9 cycles
 SCF Done:  E(RB3LYP) =  -839.643072707     A.U. after   10 cycles
 SCF Done:  E(RB3LYP) =  -839.643073010     A.U. after    9 cycles
 SCF Done:  E(RB3LYP) =  -839.643073079     A.U. after    8 cycles
 Optimization completed.
    -- Stationary point found.
 Normal termination of Gaussian 16 at Tue Dec  8 21:31:42 2020.

 --------------------------------------------------------------------
 #N Geom=AllCheck Guess=TCheck SCRF=Check GenChk RB3LYP/6-31G(d) Freq
 --------------------------------------------------------------------

 Structure from the checkpoint file:  "JID_1902.chk"
 ------------------------------
 CID_88724173_JID_1902_neutraal
 ------------------------------
 Charge =  0 Multiplicity = 1

 SCF Done:  E(RB3LYP) =  -839.643073079     A.U. after    1 cycles

  Exact polarizability: 133.561   5.055  87.164  -4.073  12.709  94.215
 Approx polarizability: 174.388   5.032 141.289 -11.743  41.916 171.579

                      1                      2                      3
                      A                      A                      A
 Frequencies --     20.9422                39.8160                76.7759
 Red. masses --      6.2465                 3.9739                 4.5015
 Frc consts  --      0.0016                 0.0037                 0.0156
 IR Inten    --      3.4240                 3.2240                 0.0196

                      4                      5                      6
                      A                      A                      A
 Frequencies --     87.6815               112.0742               139.8296
 Red. masses --      2.3142                 3.0801                 4.6753
 Frc consts  --      0.0105                 0.0228                 0.0539
 IR Inten    --      0.7036                 3.2530                 2.1495

                      7                      8                      9
                      A                      A                      A
 Frequencies --    148.8549               203.7065               247.3800
 Red. masses --      4.2154                 3.6242                 1.6189
 Frc consts  --      0.0550                 0.0886                 0.0584
 IR Inten    --      3.9163                 3.5086                 1.0032

                     10                     11                     12
                      A                      A                      A
 Frequencies --    259.2143               311.3763               375.3971
 Red. masses --      2.4133                 3.6969                 3.8173
 Frc consts  --      0.0955                 0.2112                 0.3169
 IR Inten    --      4.3025                 1.5452                 2.5088

                     13                     14                     15
                      A                      A                      A
 Frequencies --    386.4181               392.5458               423.2609
 Red. masses --      4.4236                 2.5777                 2.3585
 Frc consts  --      0.3892                 0.2340                 0.2489
 IR Inten    --      0.7606                 0.5446                 2.0989

                     16                     17                     18
                      A                      A                      A
 Frequencies --    470.9092               523.1116               619.4994
 Red. masses --      3.9917                 4.6479                 5.5097
 Frc consts  --      0.5215                 0.7494                 1.2458
 IR Inten    --      5.9744                18.9830                21.9988

                     19                     20                     21
                      A                      A                      A
 Frequencies --    644.1061               669.7806               760.8311
 Red. masses --      3.6431                 3.8129                 3.0630
 Frc consts  --      0.8905                 1.0078                 1.0447
 IR Inten    --      0.6751                18.8497                15.5373

                     22                     23                     24
                      A                      A                      A
 Frequencies --    811.0620               843.6119               912.6224
 Red. masses --      1.4869                 2.3354                 2.2739
 Frc consts  --      0.5763                 0.9792                 1.1158
 IR Inten    --      2.4826                 2.9953                 5.4093

                     25                     26                     27
                      A                      A                      A
 Frequencies --    963.4224               977.6538               989.6301
 Red. masses --      1.7809                 1.9442                 1.3637
 Frc consts  --      0.9739                 1.0949                 0.7869
 IR Inten    --    116.7180                 5.6391                27.7041

                     28                     29                     30
                      A                      A                      A
 Frequencies --   1003.3708              1025.4874              1066.2616
 Red. masses --      2.1861                 1.0895                 2.2778
 Frc consts  --      1.2967                 0.6750                 1.5258
 IR Inten    --      2.6452                18.2707                 1.9445

                     31                     32                     33
                      A                      A                      A
 Frequencies --   1131.5419              1148.4348              1188.4543
 Red. masses --      1.5458                 2.3739                 2.6852
 Frc consts  --      1.1661                 1.8447                 2.2346
 IR Inten    --      5.3136                 4.5185               120.3016

                     34                     35                     36
                      A                      A                      A
 Frequencies --   1264.4272              1280.5938              1296.3709
 Red. masses --      1.1394                 1.2964                 1.2354
 Frc consts  --      1.0733                 1.2526                 1.2232
 IR Inten    --      1.3036                 8.4144                 7.1132

                     37                     38                     39
                      A                      A                      A
 Frequencies --   1319.4757              1356.3931              1381.9452
 Red. masses --      1.2912                 1.2527                 1.3559
 Frc consts  --      1.3245                 1.3579                 1.5256
 IR Inten    --      2.2572                 2.5358                 9.2670

                     40                     41                     42
                      A                      A                      A
 Frequencies --   1406.1921              1442.3919              1461.9641
 Red. masses --      1.3714                 1.2289                 1.2235
 Frc consts  --      1.5978                 1.5063                 1.5408
 IR Inten    --      1.5486                 1.0216                22.0515

                     43                     44                     45
                      A                      A                      A
 Frequencies --   1493.2744              1524.2855              1534.1576
 Red. masses --      1.0863                 1.0450                 1.0595
 Frc consts  --      1.4272                 1.4306                 1.4693
 IR Inten    --     16.3858                 3.8681                 9.6038

                     46                     47                     48
                      A                      A                      A
 Frequencies --   1541.4791              1702.8118              1777.0330
 Red. masses --      1.0644                 4.2843                11.4630
 Frc consts  --      1.4902                 7.3192                21.3274
 IR Inten    --      4.7764                 8.9084               178.4044

                     49                     50                     51
                      A                      A                      A
 Frequencies --   2377.0518              3044.5949              3051.4059
 Red. masses --     12.6119                 1.0387                 1.0801
 Frc consts  --     41.9865                 5.6731                 5.9253
 IR Inten    --      3.1486                26.0423                 4.7189

                     52                     53                     54
                      A                      A                      A
 Frequencies --   3064.9970              3075.6416              3104.5288
 Red. masses --      1.0658                 1.0720                 1.0997
 Frc consts  --      5.8989                 5.9745                 6.2447
 IR Inten    --     17.6762                 8.6504                 7.0599

                     55                     56                     57
                      A                      A                      A
 Frequencies --   3107.8365              3125.0422              3165.3570
 Red. masses --      1.0986                 1.1007                 1.0946
 Frc consts  --      6.2518                 6.3332                 6.4619
 IR Inten    --     23.5341                29.7686                 6.1074

                     58                     59                     60
                      A                      A                      A
 Frequencies --   3177.3389              3197.2300              3261.7708
 Red. masses --      1.0585                 1.0937                 1.1164
 Frc consts  --      6.2960                 6.5874                 6.9980
 IR Inten    --      2.3206                 3.6590                 8.0988

 - Thermochemistry -
 -------------------
 Temperature   298.150 Kelvin.  Pressure   1.00000 Atm.
 Atom     1 has atomic number  6 and mass  12.00000

 Molecular mass:   169.05614 amu.
 Principal axes and moments of inertia in atomic units:
                           1         2         3
     Eigenvalues --  1278.248802774.108283156.21692
           X            0.99943   0.03237  -0.00929
           Y           -0.03269   0.99877  -0.03721
           Z            0.00807   0.03749   0.99926
 This molecule is an asymmetric top.
 Rotational symmetry number  1.
 Warning -- assumption of classical behavior for rotation
           may cause significant error
 Rotational temperatures (Kelvin)      0.06776     0.03122     0.02744
 Rotational constants (GHZ):           1.41189     0.65057     0.57181
 Zero-point vibrational energy     463616.7 (Joules/Mol)
                                  110.80704 (Kcal/Mol)
 Warning -- explicit consideration of  18 degrees of freedom as
           vibrations may cause significant error
 Vibrational temperatures:     30.13    57.29   110.46   126.15   161.25
          (Kelvin)            201.18   214.17   293.09   355.92   372.95
                              448.00   540.11   555.97   564.79   608.98
                              677.53   752.64   891.32   926.72   963.66
                             1094.67  1166.94  1213.77  1313.06  1386.15
                             1406.63  1423.86  1443.63  1475.45  1534.11
                             1628.04  1652.34  1709.92  1819.23  1842.49
                             1865.19  1898.43  1951.55  1988.31  2023.20
                             2075.28  2103.44  2148.49  2193.11  2207.31
                             2217.84  2449.97  2556.75  3420.05  4380.49
                             4390.29  4409.85  4425.16  4466.72  4471.48
                             4496.24  4554.24  4571.48  4600.10  4692.96

 Zero-point correction=                           0.176582 (Hartree/Particle)
 Thermal correction to Energy=                    0.189445
 Thermal correction to Enthalpy=                  0.190389
 Thermal correction to Gibbs Free Energy=         0.135609
 Sum of electronic and zero-point Energies=           -839.466491
 Sum of electronic and thermal Energies=              -839.453628
 Sum of electronic and thermal Enthalpies=            -839.452684
 Sum of electronic and thermal Free Energies=         -839.507464

                     E (Thermal)             CV                S
                      KCal/Mol        Cal/Mol-Kelvin    Cal/Mol-Kelvin
 Total                  118.879             44.708            115.295
 Electronic               0.000              0.000              0.000
 Translational            0.889              2.981             41.283
 Rotational               0.889              2.981             30.793
 Vibrational            117.101             38.746             43.218
 Vibration     1          0.593              1.986              6.543
 Vibration     2          0.594              1.981              5.268
 Vibration     3          0.599              1.965              3.972
 Vibration     4          0.601              1.958              3.711
 Vibration     5          0.607              1.939              3.233
 Vibration     6          0.615              1.913              2.806
 Vibration     7          0.618              1.904              2.687
 Vibration     8          0.639              1.835              2.099
 Vibration     9          0.661              1.767              1.749
 Vibration    10          0.668              1.747              1.667
 Vibration    11          0.700              1.652              1.355
 Vibration    12          0.746              1.523              1.058
 Vibration    13          0.755              1.499              1.014
 Vibration    14          0.760              1.486              0.990
 Vibration    15          0.785              1.420              0.881
 Vibration    16          0.828              1.315              0.735
 Vibration    17          0.878              1.199              0.603
 Vibration    18          0.979              0.991              0.417

                           ! Non-Optimized Parameters !
 Normal termination of Gaussian 16 at Tue Dec  8 21:36:25 2020.

 ----------------------------------------------------------------------
 # B3LYP/6-311++G(d,p) empiricaldispersion=gd3bj scf=xqc pop=npa geom=c
 heck
 ----------------------------------------------------------------------

 --------------------------------------
 CID_88724173_JID_1902_Energie_neutraal
 --------------------------------------
 Structure from the checkpoint file:  "JID_1902.chk"
 Charge =  0 Multiplicity = 1

 SCF Done:  E(RB3LYP) =  -839.797889912     A.U. after   16 cycles
 Normal termination of Gaussian 16 at Tue Dec  8 21:38:42 2020.

 ----------------------------------------------------------------------
 # B3LYP/6-311++G(d,p) empiricaldispersion=gd3bj scf=xqc pop=npa geom=c
 heck
 ----------------------------------------------------------------------

 ------------------------------------
 CID_88724173_JID_1902_Energie_kation
 ------------------------------------
 Structure from the checkpoint file:  "JID_1902.chk"
 Charge =  1 Multiplicity = 2

 SCF Done:  E(UB3LYP) =  -839.455456257     A.U. after   33 cycles
 SCF Done:  E(UB3LYP) =  -839.456138674     a.u. after   10 cycles
 Normal termination of Gaussian 16 at Tue Dec  8 22:28:43 2020.
 Gaussian 16:  ES64L-G16RevA.03 25-Dec-2016

 ----------------------------------------------------------------------
 # B3LYP/6-311++G(d,p) empiricaldispersion=gd3bj scf=xqc pop=npa geom=c
 heck
 ----------------------------------------------------------------------

 -----------------------------------
 CID_88724173_JID_1902_Energie_anion
 -----------------------------------
 Structure from the checkpoint file:  "JID_1902.chk"
 Charge = -1 Multiplicity = 2

                         Standard orientation:
 ---------------------------------------------------------------------
 Center     Atomic      Atomic             Coordinates (Angstroms)
 Number     Number       Type             X           Y           Z
 ---------------------------------------------------------------------
      1          6           0       -3.259969   -1.009247    0.684167
      2          6           0       -1.728720   -0.975954    0.744400
      3          6           0       -1.096339   -0.702833   -0.627962
      4          6           0       -1.492678    0.646063   -1.267224
      5          6           0       -1.168649    1.836980   -0.479339
      6          7           0       -0.935100    2.804151    0.116915
      7         16           0        0.728237   -1.000971   -0.722586
      8          6           0        1.441631   -0.034993    0.643161
      9          8           0        0.791178    0.456161    1.539315
     10          6           0        2.922761    0.068222    0.609647
     11          6           0        3.700161   -0.143777   -0.455877
     12          1           0       -3.682980   -0.024562    0.456842
     13          1           0       -3.668205   -1.319041    1.651564
     14          1           0       -3.621300   -1.717746   -0.072107
     15          1           0       -1.390776   -0.224240    1.458369
     16          1           0       -1.352821   -1.942021    1.099214
     17          1           0       -1.454575   -1.469819   -1.326224
     18          1           0       -1.012371    0.740212   -2.246819
     19          1           0       -2.575464    0.645504   -1.442753
     20          1           0        3.340639    0.392079    1.559854
     21          1           0        4.777354   -0.021733   -0.392756
     22          1           0        3.295801   -0.428207   -1.422583
 ---------------------------------------------------------------------

 SCF Done:  E(UB3LYP) =  -839.808730648     A.U. after   33 cycles
 SCF Done:  E(UB3LYP) =  -839.808730648     a.u. after    1 cycles

 The electronic state is 2-A.
 Alpha  occ. eigenvalues --  -88.70729 -18.93317 -14.19251 -10.10600 -10.10441
 Alpha  occ. eigenvalues --  -10.09308 -10.09125 -10.06484 -10.05801 -10.01416
 Alpha  occ. eigenvalues --  -10.00405  -7.79412  -5.75798  -5.75348  -5.74866
 Alpha  occ. eigenvalues --   -0.87921  -0.78962  -0.72240  -0.64935  -0.63545
 Alpha  occ. eigenvalues --   -0.60529  -0.54133  -0.48720  -0.46255  -0.39295
 Alpha  occ. eigenvalues --   -0.38474  -0.36189  -0.35074  -0.31413  -0.30914
 Alpha  occ. eigenvalues --   -0.30758  -0.29047  -0.28429  -0.26078  -0.25112
 Alpha  occ. eigenvalues --   -0.24443  -0.24273  -0.23397  -0.21774  -0.21112
 Alpha  occ. eigenvalues --   -0.20853  -0.19114  -0.13205  -0.11083  -0.09382
 Alpha  occ. eigenvalues --    0.04669
 Alpha virt. eigenvalues --    0.06426   0.08461   0.09486   0.10109   0.10549
 Alpha virt. eigenvalues --    0.11844   0.12426   0.12831   0.12946   0.13721
 Alpha virt. eigenvalues --    0.14234   0.14293   0.15484   0.15557   0.16681

  Beta  occ. eigenvalues --  -88.70735 -18.92802 -14.19248 -10.10572 -10.10437
  Beta  occ. eigenvalues --  -10.09308 -10.08762 -10.06470 -10.05800 -10.01371
  Beta  occ. eigenvalues --   -9.99956  -7.79417  -5.75807  -5.75363  -5.74865
  Beta  occ. eigenvalues --   -0.86988  -0.78953  -0.72207  -0.64904  -0.63010
  Beta  occ. eigenvalues --   -0.60252  -0.53960  -0.48540  -0.45270  -0.39196
  Beta  occ. eigenvalues --   -0.38322  -0.36147  -0.34829  -0.31320  -0.30841
  Beta  occ. eigenvalues --   -0.30274  -0.28979  -0.28214  -0.25300  -0.25076
  Beta  occ. eigenvalues --   -0.24241  -0.23475  -0.22507  -0.21580  -0.21068
  Beta  occ. eigenvalues --   -0.20658  -0.18954  -0.10970  -0.10533  -0.08940
  Beta virt. eigenvalues --    0.06715   0.08568   0.09582   0.10100   0.10546
  Beta virt. eigenvalues --    0.11333   0.12051   0.12486   0.12779   0.12988
  Beta virt. eigenvalues --    0.13680   0.14240   0.14263   0.15413   0.15492

 Mulliken charges and spin densities:
               1          2
     1  C   -0.163730  -0.468319
     2  C   -0.857353   0.303045
     3  C    0.562819   0.232409
     4  C    0.001151  -0.474003
     5  C    0.219951  -0.198953
     6  N   -0.334212   0.010481
     7  S   -0.149132  -0.047740
     8  C   -0.307772   0.238773
     9  O   -0.291067   0.166169
    10  C    0.111554  -0.025378
    11  C   -0.586053   0.464598
    12  H    0.088748   0.064029
    13  H    0.081360   0.044151
    14  H   -0.057185   0.182474
    15  H    0.216485  -0.002175
    16  H    0.131184  -0.009527
    17  H    0.173455   0.078544
    18  H   -0.023405   0.192009
    19  H   -0.132612   0.284073
    20  H    0.136609  -0.003219
    21  H    0.092998  -0.017655
    22  H    0.086205  -0.013785
 Sum of Mulliken charges =  -1.00000   1.00000

 Dipole moment (field-independent basis, Debye):
    X=             -4.1087    Y=             -3.1573    Z=             -1.4228  Tot=              5.3735
 Quadrupole moment (field-independent basis, Debye-Ang):
   XX=           -110.9722   YY=           -100.7054   ZZ=            -89.7043
   XY=              3.9188   XZ=             -0.3762   YZ=             -3.5231

 Summary of Natural Population Analysis:

                                       Natural Population
                Natural  -----------------------------------------------
    Atom  No    Charge         Core      Valence    Rydberg      Total
 -----------------------------------------------------------------------
      C    1   -0.28820      0.99967     2.28328    0.00525     3.28820
      C    2   -0.20781      0.99959     2.19821    0.01000     3.20781
      C    3   -0.15883      0.99955     2.14294    0.01634     3.15883
      C    4   -0.25225      0.99951     2.24332    0.00942     3.25225
      C    5    0.15944      0.99965     1.82255    0.01835     2.84056
      N    6   -0.17658      0.99979     2.66611    0.01068     3.67658
      S    7    0.05391      4.99955     2.92884    0.01770     7.94609
      C    8    0.23803      0.99964     1.73620    0.02613     2.76197
      O    9   -0.24367      0.99987     3.23562    0.00818     4.24367
      C   10   -0.14669      0.99952     2.13689    0.01028     3.14669
      C   11   -0.08582      0.99959     2.07881    0.00741     3.08582
      H   12    0.09595      0.00000     0.40307    0.00097     0.40405
      H   13    0.09830      0.00000     0.40106    0.00064     0.40170
      H   14    0.09158      0.00000     0.40741    0.00102     0.40842
      H   15    0.12359      0.00000     0.37522    0.00119     0.37641
      H   16    0.10048      0.00000     0.39850    0.00101     0.39952
      H   17    0.10152      0.00000     0.39736    0.00112     0.39848
      H   18    0.12356      0.00000     0.37485    0.00158     0.37644
      H   19    0.11601      0.00000     0.38220    0.00179     0.38399
      H   20    0.09319      0.00000     0.40517    0.00164     0.40681
      H   21    0.07868      0.00000     0.42021    0.00111     0.42132
      H   22    0.08560      0.00000     0.41341    0.00099     0.41440
 =======================================================================
   * Total *   -0.00000     14.99593    29.85122    0.15285    45.00000

 Normal termination of Gaussian 16 at Tue Dec  8 22:35:21 2020.
