 Gaussian 16, Revision A.03,

 -----------------------------------------------------------
 # opt freq B3LYP/6-31G(d) empiricaldispersion=gd3bj scf=xqc
 -----------------------------------------------------------

 ------------------------------
 CID_43294799_JID_1298_neutraal
 ------------------------------
 Symbolic Z-matrix:
 Charge =  0 Multiplicity = 1

 SCF Done:  E(RB3LYP) =  -465.737022394     A.U. after   13 cycles
 SCF Done:  E(RB3LYP) =  -465.740735798     A.U. after   10 cycles
 SCF Done:  E(RB3LYP) =  -465.741032487     A.U. after   10 cycles
 SCF Done:  E(RB3LYP) =  -465.741734582     A.U. after   10 cycles
 SCF Done:  E(RB3LYP) =  -465.742228579     A.U. after   11 cycles
 SCF Done:  E(RB3LYP) =  -465.742926033     A.U. after   11 cycles
 SCF Done:  E(RB3LYP) =  -465.743877531     A.U. after   11 cycles
 SCF Done:  E(RB3LYP) =  -465.744967098     A.U. after   11 cycles
 SCF Done:  E(RB3LYP) =  -465.745193274     A.U. after   11 cycles
 SCF Done:  E(RB3LYP) =  -465.745564816     A.U. after   10 cycles
 SCF Done:  E(RB3LYP) =  -465.745701759     A.U. after    9 cycles
 SCF Done:  E(RB3LYP) =  -465.745711527     A.U. after    9 cycles
 SCF Done:  E(RB3LYP) =  -465.745712779     A.U. after    8 cycles
 SCF Done:  E(RB3LYP) =  -465.745713446     A.U. after    8 cycles
 SCF Done:  E(RB3LYP) =  -465.745713553     A.U. after    7 cycles
 SCF Done:  E(RB3LYP) =  -465.745713569     A.U. after    6 cycles
 Optimization completed.
    -- Stationary point found.

 1\1\GINC-NODE106\FOpt\RB3LYP\6-31G(d)\C9H22N2\VSC10255\08-Dec-2020\0\\
 # opt freq B3LYP/6-31G(d) empiricaldispersion=gd3bj scf=xqc\\CID_43294
 799_JID_1298_neutraal\\0,1\C,1.6583620224,-0.0363752857,0.3160426717\C
 ,1.5248969699,-0.3602043558,1.8070466242\C,1.0015013882,0.8046544606,2
 .6596549738\C,-0.3800092942,1.3355540681,2.2538190006\C,-1.4853473439,
 0.2683242936,2.2510368454\N,-1.5606295455,-0.4688186668,3.5055637501\C
 ,-2.1223409452,0.2887739584,4.6063496618\C,-1.9918046035,-1.8576183162
 ,3.4495335986\C,-3.5026727539,-2.1705367919,3.3597754511\C,-4.17478111

 Normal termination of Gaussian 16 at Tue Dec  8 19:43:52 2020.

 --------------------------------------------------------------------
 #N Geom=AllCheck Guess=TCheck SCRF=Check GenChk RB3LYP/6-31G(d) Freq
 --------------------------------------------------------------------

 Structure from the checkpoint file:  "JID_1298.chk"
 ------------------------------
 CID_43294799_JID_1298_neutraal
 ------------------------------
 Charge =  0 Multiplicity = 1

 SCF Done:  E(RB3LYP) =  -465.745713570     A.U. after    1 cycles

  Exact polarizability: 125.269  -0.801 106.475  -1.449   1.001  98.425
 Approx polarizability: 151.158  -0.566 149.769  -3.292   2.580 142.648

                      1                      2                      3
                      A                      A                      A
 Frequencies --     27.1666                39.7322                48.3129
 Red. masses --      3.0970                 3.2993                 3.0214
 Frc consts  --      0.0013                 0.0031                 0.0042
 IR Inten    --      0.5548                 0.2743                 0.1125

                      4                      5                      6
                      A                      A                      A
 Frequencies --     85.9644               110.4963               163.4766
 Red. masses --      2.2862                 2.7230                 2.1655
 Frc consts  --      0.0100                 0.0196                 0.0341
 IR Inten    --      0.2309                 0.2191                 0.5887

                      7                      8                      9
                      A                      A                      A
 Frequencies --    182.0988               204.3126               235.1236
 Red. masses --      2.9086                 1.4028                 1.0929
 Frc consts  --      0.0568                 0.0345                 0.0356
 IR Inten    --      0.8001                 0.2138                 0.9029

                     10                     11                     12
                      A                      A                      A
 Frequencies --    259.1500               270.1322               279.7006
 Red. masses --      1.2911                 1.3252                 1.5293
 Frc consts  --      0.0511                 0.0570                 0.0705
 IR Inten    --     23.0146                 0.5219                17.5335

                     13                     14                     15
                      A                      A                      A
 Frequencies --    291.5720               335.4218               360.3628
 Red. masses --      1.7417                 2.1505                 2.2832
 Frc consts  --      0.0872                 0.1426                 0.1747
 IR Inten    --     11.8591                 1.6064                 2.4387

                     16                     17                     18
                      A                      A                      A
 Frequencies --    404.4630               410.5721               430.5844
 Red. masses --      2.0047                 2.2144                 2.1476
 Frc consts  --      0.1932                 0.2199                 0.2346
 IR Inten    --      7.4540                 4.3946                 4.4090

                     19                     20                     21
                      A                      A                      A
 Frequencies --    454.3058               504.3715               614.1077
 Red. masses --      1.6905                 2.4868                 2.9563
 Frc consts  --      0.2056                 0.3727                 0.6569
 IR Inten    --      2.7968                 0.8017                 5.8466

                     22                     23                     24
                      A                      A                      A
 Frequencies --    723.6698               784.5122               811.1003
 Red. masses --      1.3249                 1.6743                 2.7012
 Frc consts  --      0.4088                 0.6071                 1.0470
 IR Inten    --     12.8078                 0.6646                 0.7208

                     25                     26                     27
                      A                      A                      A
 Frequencies --    832.1121               869.6116               904.9287
 Red. masses --      2.8100                 1.6093                 1.7182
 Frc consts  --      1.1464                 0.7170                 0.8290
 IR Inten    --      5.1451                 3.7140                79.2066

                     28                     29                     30
                      A                      A                      A
 Frequencies --    907.3627               916.1706               959.5215
 Red. masses --      1.7808                 1.4306                 1.5447
 Frc consts  --      0.8638                 0.7075                 0.8379
 IR Inten    --     83.0466                 4.4589                 3.4384

                     31                     32                     33
                      A                      A                      A
 Frequencies --    966.6794              1012.6346              1026.8895
 Red. masses --      1.6342                 1.6833                 1.5662
 Frc consts  --      0.8998                 1.0170                 0.9731
 IR Inten    --      8.2204                 0.7082                 4.5914

                     34                     35                     36
                      A                      A                      A
 Frequencies --   1051.5170              1074.1489              1099.0919
 Red. masses --      1.6096                 1.8192                 1.9244
 Frc consts  --      1.0486                 1.2367                 1.3696
 IR Inten    --      2.7434                31.3479                20.7660

                     37                     38                     39
                      A                      A                      A
 Frequencies --   1119.7055              1132.0954              1141.2540
 Red. masses --      2.2024                 1.8588                 1.8130
 Frc consts  --      1.6269                 1.4036                 1.3913
 IR Inten    --     30.1247                 3.8841                 0.9271

                     40                     41                     42
                      A                      A                      A
 Frequencies --   1165.6236              1170.8050              1191.1058
 Red. masses --      1.6397                 1.4708                 2.0583
 Frc consts  --      1.3126                 1.1879                 1.7205
 IR Inten    --      4.7720                 3.3831                18.3893

                     43                     44                     45
                      A                      A                      A
 Frequencies --   1218.4460              1260.7179              1279.1825
 Red. masses --      1.4142                 1.3987                 1.7411
 Frc consts  --      1.2370                 1.3098                 1.6785
 IR Inten    --      6.8778                 4.7106                 8.5667

                     46                     47                     48
                      A                      A                      A
 Frequencies --   1300.2097              1339.4110              1349.9822
 Red. masses --      1.3636                 1.2389                 1.4393
 Frc consts  --      1.3582                 1.3095                 1.5455
 IR Inten    --      3.6649                 3.5201                 8.7693

                     49                     50                     51
                      A                      A                      A
 Frequencies --   1365.4960              1385.1726              1390.0905
 Red. masses --      1.4902                 1.3344                 1.3263
 Frc consts  --      1.6371                 1.5085                 1.5101
 IR Inten    --      2.5402                14.4878                11.5530

                     52                     53                     54
                      A                      A                      A
 Frequencies --   1401.1483              1407.6863              1419.4615
 Red. masses --      1.4648                 1.3315                 1.4073
 Frc consts  --      1.6944                 1.5546                 1.6707
 IR Inten    --     15.9806                10.9248                 4.8182

                     55                     56                     57
                      A                      A                      A
 Frequencies --   1422.4170              1434.0620              1441.1502
 Red. masses --      1.3566                 1.3132                 1.2905
 Frc consts  --      1.6171                 1.5912                 1.5792
 IR Inten    --      3.2256                 7.4356                 7.7245

                     58                     59                     60
                      A                      A                      A
 Frequencies --   1443.5100              1484.0995              1502.1450
 Red. masses --      1.2840                 1.1545                 1.0919
 Frc consts  --      1.5763                 1.4982                 1.4516
 IR Inten    --      2.8495                 2.4232                 3.4542

                     61                     62                     63
                      A                      A                      A
 Frequencies --   1505.0147              1513.7757              1521.1152
 Red. masses --      1.0773                 1.0656                 1.0755
 Frc consts  --      1.4377                 1.4387                 1.4662
 IR Inten    --      1.1975                 4.2847                 9.4043

                     64                     65                     66
                      A                      A                      A
 Frequencies --   1524.5539              1526.2318              1529.9155
 Red. masses --      1.0636                 1.0676                 1.0559
 Frc consts  --      1.4566                 1.4652                 1.4562
 IR Inten    --      1.1737                 7.7824                17.3795

                     67                     68                     69
                      A                      A                      A
 Frequencies --   1534.2988              1537.1039              1544.0700
 Red. masses --      1.0671                 1.0641                 1.0779
 Frc consts  --      1.4801                 1.4813                 1.5141
 IR Inten    --      2.6982                 3.8193                 2.5102

                     70                     71                     72
                      A                      A                      A
 Frequencies --   1545.5621              1696.7157              2936.4862
 Red. masses --      1.0625                 1.0896                 1.0675
 Frc consts  --      1.4954                 1.8482                 5.4235
 IR Inten    --      7.7294                23.7050                29.3174

                     73                     74                     75
                      A                      A                      A
 Frequencies --   2942.9236              3022.9311              3028.8797
 Red. masses --      1.0684                 1.0629                 1.0673
 Frc consts  --      5.4519                 5.7229                 5.7688
 IR Inten    --    150.8634                22.6254                22.2334

                     76                     77                     78
                      A                      A                      A
 Frequencies --   3034.4200              3039.3227              3041.6341
 Red. masses --      1.0426                 1.0580                 1.0439
 Frc consts  --      5.6561                 5.7582                 5.6903
 IR Inten    --     18.5386                31.6673                28.9493

                     79                     80                     81
                      A                      A                      A
 Frequencies --   3042.3130              3047.2265              3064.7117
 Red. masses --      1.0777                 1.0594                 1.0974
 Frc consts  --      5.8772                 5.7957                 6.0729
 IR Inten    --     29.7642                28.9570                 5.5194

                     82                     83                     84
                      A                      A                      A
 Frequencies --   3070.3159              3074.7606              3076.8852
 Red. masses --      1.0977                 1.1014                 1.0706
 Frc consts  --      6.0970                 6.1350                 5.9716
 IR Inten    --     29.9047                19.3193                46.2006

                     85                     86                     87
                      A                      A                      A
 Frequencies --   3087.6872              3093.4324              3096.7476
 Red. masses --      1.0912                 1.0969                 1.1008
 Frc consts  --      6.1297                 6.1844                 6.2199
 IR Inten    --     27.5214                55.7347                90.7656

                     88                     89                     90
                      A                      A                      A
 Frequencies --   3107.2792              3111.4242              3119.6559
 Red. masses --      1.1016                 1.1018                 1.1033
 Frc consts  --      6.2666                 6.2843                 6.3262
 IR Inten    --     59.7294                50.7634                31.1124

                     91                     92                     93
                      A                      A                      A
 Frequencies --   3124.4353              3441.0558              3527.2854
 Red. masses --      1.0986                 1.0500                 1.0910
 Frc consts  --      6.3188                 7.3252                 7.9979
 IR Inten    --     41.6840                 4.5237                 2.0726

 - Thermochemistry -
 -------------------
 Temperature   298.150 Kelvin.  Pressure   1.00000 Atm.
 Atom     1 has atomic number  6 and mass  12.00000

 Molecular mass:   158.17830 amu.
 Principal axes and moments of inertia in atomic units:
                           1         2         3
     Eigenvalues --  1084.606383579.305043917.16000
           X            0.99996   0.00708   0.00565
           Y           -0.00697   0.99981  -0.01841
           Z           -0.00578   0.01837   0.99981
 This molecule is an asymmetric top.
 Rotational symmetry number  1.
 Warning -- assumption of classical behavior for rotation
           may cause significant error
 Rotational temperatures (Kelvin)      0.07986     0.02420     0.02211
 Rotational constants (GHZ):           1.66396     0.50422     0.46073
 Zero-point vibrational energy     816610.0 (Joules/Mol)
                                  195.17447 (Kcal/Mol)
 Warning -- explicit consideration of  21 degrees of freedom as
           vibrations may cause significant error
 Vibrational temperatures:     39.09    57.17    69.51   123.68   158.98
          (Kelvin)            235.21   262.00   293.96   338.29   372.86
                              388.66   402.43   419.51   482.60   518.48
                              581.93   590.72   619.51   653.64   725.68
                              883.56  1041.20  1128.74  1166.99  1197.22
                             1251.18  1301.99  1305.49  1318.17  1380.54
                             1390.84  1456.96  1477.46  1512.90  1545.46
                             1581.35  1611.01  1628.83  1642.01  1677.07
                             1684.53  1713.74  1753.07  1813.89  1840.46
                             1870.71  1927.11  1942.32  1964.64  1992.95
                             2000.03  2015.94  2025.35  2042.29  2046.54
                             2063.30  2073.49  2076.89  2135.29  2161.25
                             2165.38  2177.99  2188.55  2193.49  2195.91
                             2201.21  2207.51  2211.55  2221.57  2223.72
                             2441.20  4224.95  4234.21  4349.32  4357.88
                             4365.85  4372.91  4376.23  4377.21  4384.28
                             4409.44  4417.50  4423.89  4426.95  4442.49
                             4450.76  4455.53  4470.68  4476.65  4488.49
                             4495.37  4950.91  5074.98

 Zero-point correction=                           0.311030 (Hartree/Particle)
 Thermal correction to Energy=                    0.325349
 Thermal correction to Enthalpy=                  0.326293
 Thermal correction to Gibbs Free Energy=         0.269207
 Sum of electronic and zero-point Energies=           -465.434683
 Sum of electronic and thermal Energies=              -465.420365
 Sum of electronic and thermal Enthalpies=            -465.419420
 Sum of electronic and thermal Free Energies=         -465.476507

                     E (Thermal)             CV                S
                      KCal/Mol        Cal/Mol-Kelvin    Cal/Mol-Kelvin
 Total                  204.160             52.520            120.148
 Electronic               0.000              0.000              0.000
 Translational            0.889              2.981             41.085
 Rotational               0.889              2.981             31.098
 Vibrational            202.382             46.558             47.965
 Vibration     1          0.593              1.984              6.026
 Vibration     2          0.594              1.981              5.272
 Vibration     3          0.595              1.978              4.885
 Vibration     4          0.601              1.959              3.750
 Vibration     5          0.606              1.941              3.260
 Vibration     6          0.623              1.887              2.509
 Vibration     7          0.630              1.864              2.307
 Vibration     8          0.640              1.834              2.094
 Vibration     9          0.655              1.787              1.839
 Vibration    10          0.668              1.747              1.667
 Vibration    11          0.674              1.728              1.595
 Vibration    12          0.680              1.711              1.536
 Vibration    13          0.687              1.689              1.465
 Vibration    14          0.717              1.605              1.234
 Vibration    15          0.735              1.554              1.121
 Vibration    16          0.770              1.460              0.946
 Vibration    17          0.775              1.447              0.925
 Vibration    18          0.792              1.404              0.857
 Vibration    19          0.813              1.351              0.783
 Vibration    20          0.860              1.240              0.647
 Vibration    21          0.974              1.002              0.426

 Optimization completed.
    -- Stationary point found.

 1\1\GINC-NODE106\Freq\RB3LYP\6-31G(d)\C9H22N2\VSC10255\08-Dec-2020\0\\
 #N Geom=AllCheck Guess=TCheck SCRF=Check GenChk RB3LYP/6-31G(d) Freq\\
 CID_43294799_JID_1298_neutraal\\0,1\C,1.6583620224,-0.0363752857,0.316
 0426717\C,1.5248969699,-0.3602043558,1.8070466242\C,1.0015013882,0.804
 6544606,2.6596549738\C,-0.3800092942,1.3355540681,2.2538190006\C,-1.48
 53473439,0.2683242936,2.2510368454\N,-1.5606295455,-0.4688186668,3.505
 5637501\C,-2.1223409452,0.2887739584,4.6063496618\C,-1.9918046035,-1.8
 576183162,3.4495335986\C,-3.5026727539,-2.1705367919,3.3597754511\C,-4

 Normal termination of Gaussian 16 at Tue Dec  8 19:52:14 2020.

 ----------------------------------------------------------------------
 # B3LYP/6-311++G(d,p) empiricaldispersion=gd3bj scf=xqc pop=npa geom=c
 heck
 ----------------------------------------------------------------------

 --------------------------------------
 CID_43294799_JID_1298_Energie_neutraal
 --------------------------------------
 Structure from the checkpoint file:  "JID_1298.chk"
 Charge =  0 Multiplicity = 1

 SCF Done:  E(RB3LYP) =  -465.886201235     A.U. after   13 cycles
 Normal termination of Gaussian 16 at Tue Dec  8 19:56:12 2020.

 ----------------------------------------------------------------------
 # B3LYP/6-311++G(d,p) empiricaldispersion=gd3bj scf=xqc pop=npa geom=c
 heck
 ----------------------------------------------------------------------

 ------------------------------------
 CID_43294799_JID_1298_Energie_kation
 ------------------------------------
 Structure from the checkpoint file:  "JID_1298.chk"
 Charge =  1 Multiplicity = 2

 SCF Done:  E(UB3LYP) =  -465.607564557     A.U. after   20 cycles
 Normal termination of Gaussian 16 at Tue Dec  8 20:04:32 2020.
 Gaussian 16:  ES64L-G16RevA.03 25-Dec-2016

 -----------------------------------
 CID_43294799_JID_1298_Energie_anion
 -----------------------------------
 Structure from the checkpoint file:  "JID_1298.chk"
 Charge = -1 Multiplicity = 2

                         Standard orientation:
 ---------------------------------------------------------------------
 Center     Atomic      Atomic             Coordinates (Angstroms)
 Number     Number       Type             X           Y           Z
 ---------------------------------------------------------------------
      1          6           0       -3.491838   -1.662532    0.322643
      2          6           0       -2.787960   -0.868397   -0.781746
      3          6           0       -2.664249    0.634952   -0.494658
      4          6           0       -1.896627    0.989385    0.786069
      5          6           0       -0.471407    0.417969    0.840781
      6          7           0        0.313380    0.745834   -0.342222
      7          6           0        0.737246    2.130452   -0.408314
      8          6           0        1.320188   -0.212458   -0.773305
      9          6           0        2.692794   -0.228389   -0.063098
     10          6           0        2.605965   -0.544525    1.435338
     11          7           0        3.546642   -1.160227   -0.817642
     12          1           0       -2.926720   -1.643067    1.261635
     13          1           0       -3.617990   -2.713087    0.037303
     14          1           0       -4.487620   -1.251078    0.530224
     15          1           0       -1.789462   -1.287591   -0.959823
     16          1           0       -3.338278   -0.997149   -1.723051
     17          1           0       -2.161675    1.109861   -1.344560
     18          1           0       -3.670592    1.072709   -0.432551
     19          1           0       -1.863472    2.081731    0.888717
     20          1           0       -2.434875    0.626886    1.671560
     21          1           0        0.004486    0.762658    1.777926
     22          1           0       -0.525319   -0.673874    0.907940
     23          1           0        1.418272    2.430355    0.411551
     24          1           0        1.252619    2.310246   -1.358000
     25          1           0       -0.132971    2.794021   -0.371495
     26          1           0        0.876829   -1.215691   -0.697675
     27          1           0        1.524519   -0.039998   -1.837412
     28          1           0        3.145997    0.764902   -0.181458
     29          1           0        2.088156   -1.498286    1.603272
     30          1           0        3.610608   -0.627787    1.868387
     31          1           0        2.068880    0.230633    1.990883
     32          1           0        4.482872   -1.164868   -0.413809
     33          1           0        3.190912   -2.109512   -0.692786
 ---------------------------------------------------------------------

 SCF Done:  E(UB3LYP) =  -465.871370963     A.U. after   26 cycles

 The electronic state is 2-A.
 Alpha  occ. eigenvalues --  -14.19808 -14.18765 -10.09071 -10.08715 -10.08567
 Alpha  occ. eigenvalues --  -10.08464 -10.06325 -10.06160 -10.05998 -10.05855
 Alpha  occ. eigenvalues --  -10.05106  -0.82170  -0.78056  -0.70011  -0.64833
 Alpha  occ. eigenvalues --   -0.63261  -0.59785  -0.58767  -0.54277  -0.50098
 Alpha  occ. eigenvalues --   -0.47011  -0.44587  -0.40256  -0.38175  -0.36966
 Alpha  occ. eigenvalues --   -0.36303  -0.34857  -0.33797  -0.32141  -0.31592
 Alpha  occ. eigenvalues --   -0.30497  -0.30254  -0.29096  -0.28655  -0.27129
 Alpha  occ. eigenvalues --   -0.26642  -0.25627  -0.25043  -0.24529  -0.23279
 Alpha  occ. eigenvalues --   -0.22241  -0.21975  -0.21514  -0.14307  -0.10486
 Alpha  occ. eigenvalues --    0.04463
 Alpha virt. eigenvalues --    0.06334   0.07027   0.07878   0.08456   0.08842
 Alpha virt. eigenvalues --    0.09339   0.10060   0.10402   0.10789   0.11572
 Alpha virt. eigenvalues --    0.11709   0.12313   0.12736   0.13341   0.13623

  Beta  occ. eigenvalues --  -14.19802 -14.18727 -10.09060 -10.08699 -10.08541
  Beta  occ. eigenvalues --  -10.08453 -10.06314 -10.06147 -10.05990 -10.05824
  Beta  occ. eigenvalues --  -10.05066  -0.82149  -0.77992  -0.69985  -0.64795
  Beta  occ. eigenvalues --   -0.63206  -0.59735  -0.58723  -0.54224  -0.50032
  Beta  occ. eigenvalues --   -0.46949  -0.44539  -0.40220  -0.38142  -0.36928
  Beta  occ. eigenvalues --   -0.36268  -0.34823  -0.33764  -0.32096  -0.31548
  Beta  occ. eigenvalues --   -0.30463  -0.30219  -0.29063  -0.28621  -0.27089
  Beta  occ. eigenvalues --   -0.26610  -0.25595  -0.25009  -0.24498  -0.23234
  Beta  occ. eigenvalues --   -0.22219  -0.21948  -0.21484  -0.14259  -0.10451
  Beta virt. eigenvalues --    0.06505   0.07325   0.07678   0.08207   0.08993
  Beta virt. eigenvalues --    0.09401   0.09709   0.10376   0.10683   0.11328
  Beta virt. eigenvalues --    0.11911   0.12029   0.12618   0.12941   0.13687

 Mulliken charges and spin densities:
               1          2
     1  C    0.751169  -1.387508
     2  C   -0.479107   0.424368
     3  C   -0.118372  -0.150428
     4  C    0.710462  -1.065469
     5  C   -0.795790   0.416407
     6  N    0.045317   0.123313
     7  C    0.495876  -0.906361
     8  C    0.227292  -0.504137
     9  C   -0.337942  -0.019616
    10  C    0.668237  -1.109099
    11  N   -0.326832   0.060021
    12  H   -0.248115   0.386468
    13  H   -0.244273   0.376496
    14  H   -0.090101   0.222036
    15  H   -0.000133   0.118901
    16  H   -0.159090   0.310079
    17  H    0.082570   0.061471
    18  H   -0.079458   0.220957
    19  H   -0.027402   0.182846
    20  H   -0.023320   0.167501
    21  H   -0.114409   0.204789
    22  H    0.219149  -0.064023
    23  H   -0.094918   0.230285
    24  H   -0.111882   0.256248
    25  H    0.014775   0.097754
    26  H   -0.055541   0.202139
    27  H    0.126435   0.069631
    28  H   -0.082452   0.251915
    29  H   -0.180876   0.327437
    30  H   -0.736467   0.889259
    31  H    0.072432   0.065571
    32  H   -0.116213   0.342262
    33  H    0.008979   0.198490
 Sum of Mulliken charges =  -1.00000   1.00000

 Dipole moment (field-independent basis, Debye):
    X=             -2.7718    Y=              2.4474    Z=             -1.3144  Tot=              3.9244
 Quadrupole moment (field-independent basis, Debye-Ang):
   XX=           -156.2539   YY=           -115.1065   ZZ=           -109.0357
   XY=              0.1702   XZ=             -2.6093   YZ=              0.5564

 Summary of Natural Population Analysis:

                                       Natural Population
                Natural  -----------------------------------------------
    Atom  No    Charge         Core      Valence    Rydberg      Total
 -----------------------------------------------------------------------
      C    1   -0.28567      0.99967     2.28166    0.00434     3.28567
      C    2   -0.19342      0.99964     2.18528    0.00850     3.19342
      C    3   -0.19027      0.99962     2.18166    0.00899     3.19027
      C    4   -0.19481      0.99962     2.18644    0.00875     3.19481
      C    5   -0.08275      0.99960     2.07190    0.01125     3.08275
      N    6   -0.28783      0.99972     2.77544    0.01267     3.78783
      C    7   -0.17736      0.99964     2.16910    0.00862     3.17736
      C    8   -0.07822      0.99958     2.06582    0.01282     3.07822
      C    9   -0.02596      0.99962     2.01500    0.01134     3.02596
      C   10   -0.29544      0.99965     2.28943    0.00636     3.29544
      N   11   -0.42201      0.99977     2.91154    0.01070     3.92201
      H   12    0.09644      0.00000     0.40234    0.00123     0.40356
      H   13    0.09863      0.00000     0.40021    0.00115     0.40137
      H   14    0.09372      0.00000     0.40500    0.00128     0.40628
      H   15    0.09626      0.00000     0.40212    0.00162     0.40374
      H   16    0.09342      0.00000     0.40554    0.00104     0.40658
      H   17    0.10094      0.00000     0.39764    0.00143     0.39906
      H   18    0.09210      0.00000     0.40694    0.00096     0.40790
      H   19    0.09512      0.00000     0.40372    0.00116     0.40488
      H   20    0.09699      0.00000     0.40187    0.00114     0.40301
      H   21    0.08312      0.00000     0.41528    0.00160     0.41688
      H   22    0.09631      0.00000     0.40196    0.00173     0.40369
      H   23    0.08141      0.00000     0.41723    0.00136     0.41859
      H   24    0.09569      0.00000     0.40340    0.00090     0.40431
      H   25    0.09393      0.00000     0.40502    0.00104     0.40607
      H   26    0.09197      0.00000     0.40652    0.00151     0.40803
      H   27    0.09764      0.00000     0.40097    0.00138     0.40236
      H   28    0.08721      0.00000     0.41079    0.00200     0.41279
      H   29    0.09658      0.00000     0.40173    0.00170     0.40342
      H   30    0.09974      0.00000     0.39831    0.00195     0.40026
      H   31    0.10009      0.00000     0.39807    0.00184     0.39991
      H   32    0.17581      0.00000     0.32194    0.00224     0.32419
      H   33    0.17061      0.00000     0.32729    0.00210     0.32939
 =======================================================================
   * Total *    0.00000     10.99614    33.86715    0.13671    45.00000

 Normal termination of Gaussian 16 at Tue Dec  8 20:15:24 2020.
