 Gaussian 16, Revision A.03,

 -----------------------------------------------------------
 # opt freq B3LYP/6-31G(d) empiricaldispersion=gd3bj scf=xqc
 -----------------------------------------------------------

 ------------------------------
 CID_73012889_JID_7500_neutraal
 ------------------------------
 Symbolic Z-matrix:
 Charge =  0 Multiplicity = 1

 SCF Done:  E(RB3LYP) =  -831.842307825     A.U. after   15 cycles
 SCF Done:  E(RB3LYP) =  -831.849551876     A.U. after   13 cycles
 SCF Done:  E(RB3LYP) =  -831.851235013     A.U. after   12 cycles
 SCF Done:  E(RB3LYP) =  -831.850877430     A.U. after   13 cycles
 SCF Done:  E(RB3LYP) =  -831.852245997     A.U. after   12 cycles
 SCF Done:  E(RB3LYP) =  -831.852432894     A.U. after   12 cycles
 SCF Done:  E(RB3LYP) =  -831.852601297     A.U. after   13 cycles
 SCF Done:  E(RB3LYP) =  -831.852744194     A.U. after   11 cycles
 SCF Done:  E(RB3LYP) =  -831.852902287     A.U. after   12 cycles
 SCF Done:  E(RB3LYP) =  -831.852937473     A.U. after   11 cycles
 SCF Done:  E(RB3LYP) =  -831.852965678     A.U. after   11 cycles
 SCF Done:  E(RB3LYP) =  -831.852982548     A.U. after   11 cycles
 SCF Done:  E(RB3LYP) =  -831.852985852     A.U. after   10 cycles
 SCF Done:  E(RB3LYP) =  -831.852986356     A.U. after   10 cycles
 SCF Done:  E(RB3LYP) =  -831.852986535     A.U. after    8 cycles
 Optimization completed.
    -- Stationary point found.
 Normal termination of Gaussian 16 at Sun Dec 13 12:29:03 2020.

 --------------------------------------------------------------------
 #N Geom=AllCheck Guess=TCheck SCRF=Check GenChk RB3LYP/6-31G(d) Freq
 --------------------------------------------------------------------

 Structure from the checkpoint file:  "JID_7500.chk"
 ------------------------------
 CID_73012889_JID_7500_neutraal
 ------------------------------
 Charge =  0 Multiplicity = 1

 SCF Done:  E(RB3LYP) =  -831.852986535     A.U. after    1 cycles

  Exact polarizability: 260.172 -20.620 133.776 -11.226  -4.496  69.885
 Approx polarizability: 392.593 -48.926 240.363 -30.597 -14.451 114.140

                      1                      2                      3
                      A                      A                      A
 Frequencies --     27.3578                39.9358                64.8096
 Red. masses --      4.8666                 4.3260                 4.2592
 Frc consts  --      0.0021                 0.0041                 0.0105
 IR Inten    --      2.0829                 1.7851                 2.1223

                      4                      5                      6
                      A                      A                      A
 Frequencies --     91.6511               102.5126               134.5653
 Red. masses --      4.4337                 7.8953                 3.6925
 Frc consts  --      0.0219                 0.0489                 0.0394
 IR Inten    --      0.7137                 0.3812                 1.0023

                      7                      8                      9
                      A                      A                      A
 Frequencies --    176.3549               221.4143               245.1025
 Red. masses --      5.8312                 1.5829                 3.5055
 Frc consts  --      0.1069                 0.0457                 0.1241
 IR Inten    --      0.4289                 1.8467                 2.3393

                     10                     11                     12
                      A                      A                      A
 Frequencies --    262.5798               279.6758               288.4399
 Red. masses --      6.6819                 5.7910                 3.6161
 Frc consts  --      0.2714                 0.2669                 0.1773
 IR Inten    --      7.9158                 0.8853                 2.2357

                     13                     14                     15
                      A                      A                      A
 Frequencies --    341.6262               365.7432               393.9387
 Red. masses --      3.1312                 1.2835                 4.9669
 Frc consts  --      0.2153                 0.1012                 0.4541
 IR Inten    --     33.2688               360.6281                 9.7124

                     16                     17                     18
                      A                      A                      A
 Frequencies --    435.0747               442.2956               466.9576
 Red. masses --      3.8860                 2.7641                 5.2380
 Frc consts  --      0.4334                 0.3186                 0.6729
 IR Inten    --     11.8624                10.2025                 5.8840

                     19                     20                     21
                      A                      A                      A
 Frequencies --    469.2467               488.4984               504.9117
 Red. masses --      2.9615                 2.3341                 2.7590
 Frc consts  --      0.3842                 0.3282                 0.4144
 IR Inten    --     11.9201                56.7321                22.9393

                     22                     23                     24
                      A                      A                      A
 Frequencies --    542.9960               598.6165               623.0988
 Red. masses --      5.9984                 5.4997                 9.3908
 Frc consts  --      1.0420                 1.1611                 2.1482
 IR Inten    --      9.2128                28.1614                12.1331

                     25                     26                     27
                      A                      A                      A
 Frequencies --    691.7299               702.9272               725.0839
 Red. masses --      4.1073                 2.7303                 1.7834
 Frc consts  --      1.1579                 0.7948                 0.5524
 IR Inten    --      2.9711                39.3982                64.5027

                     28                     29                     30
                      A                      A                      A
 Frequencies --    757.0031               775.7357               782.4386
 Red. masses --      6.3129                 2.5778                 6.7828
 Frc consts  --      2.1314                 0.9140                 2.4466
 IR Inten    --      0.9240                 9.5880                15.2069

                     31                     32                     33
                      A                      A                      A
 Frequencies --    808.0693               820.5060               825.2633
 Red. masses --      4.5041                 1.6972                 2.5070
 Frc consts  --      1.7328                 0.6732                 1.0060
 IR Inten    --     16.7390                36.3860                10.1479

                     34                     35                     36
                      A                      A                      A
 Frequencies --    853.1327               872.2981               906.8594
 Red. masses --      5.7250                 3.2577                 3.1263
 Frc consts  --      2.4550                 1.4605                 1.5148
 IR Inten    --      2.1149                14.9687                 1.4853

                     37                     38                     39
                      A                      A                      A
 Frequencies --    980.7745               984.0264              1041.1246
 Red. masses --      1.2996                 2.7384                 3.5501
 Frc consts  --      0.7365                 1.5623                 2.2672
 IR Inten    --      1.7391                 0.4312                 7.9709

                     40                     41                     42
                      A                      A                      A
 Frequencies --   1086.1865              1129.1987              1133.8470
 Red. masses --      2.8242                 1.9624                 2.0463
 Frc consts  --      1.9631                 1.4743                 1.5500
 IR Inten    --     71.0141                77.6841               148.2709

                     43                     44                     45
                      A                      A                      A
 Frequencies --   1152.1957              1206.0282              1227.7746
 Red. masses --      1.4220                 2.0527                 3.5588
 Frc consts  --      1.1123                 1.7591                 3.1608
 IR Inten    --     30.9064                42.4362               310.8130

                     46                     47                     48
                      A                      A                      A
 Frequencies --   1287.3840              1325.8522              1337.7530
 Red. masses --      2.4520                 4.1790                 2.3125
 Frc consts  --      2.3943                 4.3283                 2.4383
 IR Inten    --      1.4797               222.6090                 4.0512

                     49                     50                     51
                      A                      A                      A
 Frequencies --   1344.9529              1372.8482              1395.4306
 Red. masses --      1.3112                 3.4051                 3.1403
 Frc consts  --      1.3975                 3.7812                 3.6028
 IR Inten    --     88.8700                13.0260                38.8113

                     52                     53                     54
                      A                      A                      A
 Frequencies --   1419.4621              1429.2309              1443.9039
 Red. masses --      1.3363                 4.8225                 1.3396
 Frc consts  --      1.5863                 5.8040                 1.6456
 IR Inten    --     17.9950                91.4562                11.3992

                     55                     56                     57
                      A                      A                      A
 Frequencies --   1498.8465              1516.0664              1519.4518
 Red. masses --      5.6418                 1.0500                 1.0815
 Frc consts  --      7.4676                 1.4219                 1.4711
 IR Inten    --     21.7057                10.6943                 2.8971

                     58                     59                     60
                      A                      A                      A
 Frequencies --   1538.7907              1556.8760              1602.2463
 Red. masses --      1.0580                 3.5654                 6.5104
 Frc consts  --      1.4760                 5.0918                 9.8472
 IR Inten    --      3.9163               180.3759               215.9074

                     61                     62                     63
                      A                      A                      A
 Frequencies --   1623.9729              1663.3596              1682.0869
 Red. masses --      6.7030                 2.2400                 2.3152
 Frc consts  --     10.4154                 3.6515                 3.8595
 IR Inten    --    139.1177                59.1176               647.8714

                     64                     65                     66
                      A                      A                      A
 Frequencies --   1793.1825              1817.7340              3061.3615
 Red. masses --     10.0319                11.8506                 1.0364
 Frc consts  --     19.0057                23.0703                 5.7225
 IR Inten    --    491.8476               216.6861                20.3208

                     67                     68                     69
                      A                      A                      A
 Frequencies --   3096.8703              3127.8700              3141.7868
 Red. masses --      1.0594                 1.1005                 1.1046
 Frc consts  --      5.9863                 6.3438                 6.4242
 IR Inten    --     25.3455                32.6052                 5.0462

                     70                     71                     72
                      A                      A                      A
 Frequencies --   3162.0176              3206.4212              3227.4093
 Red. masses --      1.1078                 1.0892                 1.0955
 Frc consts  --      6.5258                 6.5978                 6.7229
 IR Inten    --     28.1237                 7.3427                 5.3599

                     73                     74                     75
                      A                      A                      A
 Frequencies --   3582.1745              3594.0433              3711.9067
 Red. masses --      1.0770                 1.0463                 1.1027
 Frc consts  --      8.1429                 7.9626                 8.9517
 IR Inten    --     47.7828               113.0682                34.4508

 - Thermochemistry -
 -------------------
 Temperature   298.150 Kelvin.  Pressure   1.00000 Atm.
 Atom     1 has atomic number  6 and mass  12.00000

 Molecular mass:   234.07529 amu.
 Principal axes and moments of inertia in atomic units:
                           1         2         3
     Eigenvalues --  1378.708797799.970368726.09881
           X            0.99996   0.00353   0.00766
           Y           -0.00363   0.99992   0.01243
           Z           -0.00761  -0.01246   0.99989
 This molecule is an asymmetric top.
 Rotational symmetry number  1.
 Warning -- assumption of classical behavior for rotation
           may cause significant error
 Rotational temperatures (Kelvin)      0.06282     0.01110     0.00993
 Rotational constants (GHZ):           1.30901     0.23138     0.20682
 Zero-point vibrational energy     539222.1 (Joules/Mol)
                                  128.87718 (Kcal/Mol)
 Warning -- explicit consideration of  23 degrees of freedom as
           vibrations may cause significant error
 Vibrational temperatures:     39.36    57.46    93.25   131.87   147.49
          (Kelvin)            193.61   253.74   318.57   352.65   377.79
                              402.39   415.00   491.52   526.22   566.79
                              625.98   636.36   671.85   675.14   702.84
                              726.46   781.25   861.28   896.50   995.25
                             1011.36  1043.23  1089.16  1116.11  1125.75
                             1162.63  1180.53  1187.37  1227.47  1255.04
                             1304.77  1411.12  1415.79  1497.95  1562.78
                             1624.67  1631.35  1657.75  1735.21  1766.49
                             1852.26  1907.61  1924.73  1935.09  1975.22
                             2007.71  2042.29  2056.34  2077.46  2156.51
                             2181.28  2186.15  2213.98  2240.00  2305.28
                             2336.53  2393.20  2420.15  2579.99  2615.31
                             4404.62  4455.71  4500.31  4520.33  4549.44
                             4613.32  4643.52  5153.95  5171.03  5340.61

 Zero-point correction=                           0.205379 (Hartree/Particle)
 Thermal correction to Energy=                    0.220240
 Thermal correction to Enthalpy=                  0.221184
 Thermal correction to Gibbs Free Energy=         0.162236
 Sum of electronic and zero-point Energies=           -831.647608
 Sum of electronic and thermal Energies=              -831.632747
 Sum of electronic and thermal Enthalpies=            -831.631802
 Sum of electronic and thermal Free Energies=         -831.690751

                     E (Thermal)             CV                S
                      KCal/Mol        Cal/Mol-Kelvin    Cal/Mol-Kelvin
 Total                  138.203             56.232            124.068
 Electronic               0.000              0.000              0.000
 Translational            0.889              2.981             42.253
 Rotational               0.889              2.981             32.906
 Vibrational            136.425             50.271             48.908
 Vibration     1          0.593              1.984              6.012
 Vibration     2          0.594              1.981              5.262
 Vibration     3          0.597              1.971              4.305
 Vibration     4          0.602              1.955              3.625
 Vibration     5          0.605              1.947              3.406
 Vibration     6          0.613              1.919              2.880
 Vibration     7          0.628              1.871              2.367
 Vibration     8          0.648              1.808              1.947
 Vibration     9          0.660              1.771              1.766
 Vibration    10          0.670              1.741              1.645
 Vibration    11          0.680              1.711              1.536
 Vibration    12          0.685              1.695              1.483
 Vibration    13          0.721              1.592              1.205
 Vibration    14          0.739              1.543              1.098
 Vibration    15          0.761              1.483              0.985
 Vibration    16          0.796              1.394              0.842
 Vibration    17          0.802              1.378              0.819
 Vibration    18          0.824              1.323              0.746
 Vibration    19          0.826              1.318              0.740
 Vibration    20          0.844              1.276              0.688
 Vibration    21          0.860              1.239              0.646
 Vibration    22          0.898              1.155              0.559
 Vibration    23          0.957              1.035              0.452

 Optimization completed.
    -- Stationary point found.
 Normal termination of Gaussian 16 at Sun Dec 13 12:37:03 2020.

 ----------------------------------------------------------------------
 # B3LYP/6-311++G(d,p) empiricaldispersion=gd3bj scf=xqc pop=npa geom=c
 heck
 ----------------------------------------------------------------------

 --------------------------------------
 CID_73012889_JID_7500_Energie_neutraal
 --------------------------------------
 Structure from the checkpoint file:  "JID_7500.chk"
 Charge =  0 Multiplicity = 1

 SCF Done:  E(RB3LYP) =  -832.092133534     A.U. after   16 cycles
 Normal termination of Gaussian 16 at Sun Dec 13 12:40:48 2020.

 ----------------------------------------------------------------------
 # B3LYP/6-311++G(d,p) empiricaldispersion=gd3bj scf=xqc pop=npa geom=c
 heck
 ----------------------------------------------------------------------

 ------------------------------------
 CID_73012889_JID_7500_Energie_kation
 ------------------------------------
 Structure from the checkpoint file:  "JID_7500.chk"
 Charge =  1 Multiplicity = 2

 SCF Done:  E(UB3LYP) =  -831.796913352     A.U. after   23 cycles
 Normal termination of Gaussian 16 at Sun Dec 13 12:48:33 2020.
 Gaussian 16:  ES64L-G16RevA.03 25-Dec-2016

 ----------------------------------------------------------------------
 # B3LYP/6-311++G(d,p) empiricaldispersion=gd3bj scf=xqc pop=npa geom=c
 heck
 ----------------------------------------------------------------------

 -----------------------------------
 CID_73012889_JID_7500_Energie_anion
 -----------------------------------
 Structure from the checkpoint file:  "JID_7500.chk"
 Charge = -1 Multiplicity = 2

                         Standard orientation:
 ---------------------------------------------------------------------
 Center     Atomic      Atomic             Coordinates (Angstroms)
 Number     Number       Type             X           Y           Z
 ---------------------------------------------------------------------
      1          6           0       -4.938498   -1.108812   -1.052196
      2          6           0       -4.520657    0.162482   -0.331078
      3          8           0       -3.090594    0.367292   -0.419437
      4          6           0       -2.340860   -0.284206    0.483253
      5          8           0       -2.761322   -1.053200    1.319161
      6          6           0       -0.881383    0.039013    0.302944
      7          7           0       -0.058595   -0.966381    0.292385
      8          6           0        1.282203   -0.738041    0.125740
      9          6           0        1.806687    0.567892   -0.027194
     10          7           0        0.909396    1.603682    0.010510
     11          6           0       -0.467659    1.462001    0.201024
     12          8           0       -1.200360    2.433582    0.295115
     13          7           0        3.097612    0.859108   -0.192080
     14          6           0        3.954388   -0.171865   -0.221159
     15          6           0        3.548593   -1.527210   -0.077713
     16          6           0        2.210173   -1.797070    0.095852
     17          7           0        5.267443    0.143249   -0.437040
     18          1           0       -4.605999   -1.089005   -2.095066
     19          1           0       -6.030355   -1.202375   -1.039366
     20          1           0       -4.510315   -1.985493   -0.559307
     21          1           0       -4.946325    1.053100   -0.797970
     22          1           0       -4.804290    0.132509    0.723667
     23          1           0        1.266566    2.550368   -0.068654
     24          1           0        4.286436   -2.322013   -0.112833
     25          1           0        1.839772   -2.810372    0.212347
     26          1           0        5.514315    1.118261   -0.340080
     27          1           0        5.979477   -0.529077   -0.194720
 ---------------------------------------------------------------------

 SCF Done:  E(UB3LYP) =  -832.125051298     A.U. after   22 cycles

 The electronic state is 2-A.
 Alpha  occ. eigenvalues --  -19.02947 -18.96304 -18.94048 -14.21636 -14.21359
 Alpha  occ. eigenvalues --  -14.17653 -14.14521 -10.14991 -10.12577 -10.11737
 Alpha  occ. eigenvalues --  -10.11505 -10.11435 -10.06487 -10.06153 -10.04537
 Alpha  occ. eigenvalues --  -10.04353 -10.04347  -0.96926  -0.90070  -0.87904
 Alpha  occ. eigenvalues --   -0.85842  -0.82253  -0.77544  -0.75852  -0.66958
 Alpha  occ. eigenvalues --   -0.66116  -0.61368  -0.56321  -0.52570  -0.52148
 Alpha  occ. eigenvalues --   -0.51126  -0.45892  -0.43936  -0.42016  -0.41427
 Alpha  occ. eigenvalues --   -0.37873  -0.36676  -0.36164  -0.34667  -0.33720
 Alpha  occ. eigenvalues --   -0.33170  -0.32095  -0.31846  -0.29442  -0.28593
 Alpha  occ. eigenvalues --   -0.28247  -0.27812  -0.26903  -0.26640  -0.24780
 Alpha  occ. eigenvalues --   -0.22919  -0.22145  -0.20980  -0.17977  -0.17180
 Alpha  occ. eigenvalues --   -0.16342  -0.14207  -0.13517  -0.13182  -0.09495
 Alpha  occ. eigenvalues --   -0.08027   0.02595
 Alpha virt. eigenvalues --    0.06847   0.07760   0.09272   0.10376   0.10451
 Alpha virt. eigenvalues --    0.10799   0.11094   0.12105   0.12472   0.12765
 Alpha virt. eigenvalues --    0.13645   0.14325   0.14855   0.15174   0.16112

  Beta  occ. eigenvalues --  -19.02909 -18.96188 -18.93876 -14.21508 -14.21285
  Beta  occ. eigenvalues --  -14.17686 -14.13891 -10.14948 -10.12524 -10.11689
  Beta  occ. eigenvalues --  -10.11427 -10.11244 -10.06484 -10.06272 -10.04600
  Beta  occ. eigenvalues --  -10.04052 -10.04051  -0.96807  -0.89784  -0.87717
  Beta  occ. eigenvalues --   -0.85630  -0.81942  -0.76704  -0.75621  -0.66726
  Beta  occ. eigenvalues --   -0.65958  -0.61064  -0.55979  -0.52447  -0.51606
  Beta  occ. eigenvalues --   -0.50795  -0.45699  -0.43824  -0.41891  -0.41232
  Beta  occ. eigenvalues --   -0.37654  -0.36513  -0.36022  -0.34536  -0.33442
  Beta  occ. eigenvalues --   -0.33000  -0.31747  -0.31527  -0.29377  -0.28374
  Beta  occ. eigenvalues --   -0.27767  -0.27272  -0.26782  -0.26303  -0.24574
  Beta  occ. eigenvalues --   -0.22237  -0.21628  -0.19535  -0.17666  -0.16902
  Beta  occ. eigenvalues --   -0.15073  -0.13897  -0.13235  -0.12410  -0.08977
  Beta  occ. eigenvalues --   -0.06880
  Beta virt. eigenvalues --    0.06839   0.07670   0.09007   0.09269   0.10349
  Beta virt. eigenvalues --    0.10705   0.11059   0.11396   0.12102   0.12474
  Beta virt. eigenvalues --    0.13570   0.14005   0.14426   0.15191   0.15516

 Mulliken charges and spin densities:
               1          2
     1  C   -0.344734  -0.022473
     2  C   -0.190525   0.007920
     3  O    0.046990   0.012700
     4  C   -0.189545   0.014419
     5  O   -0.290791   0.031466
     6  C    0.003647   0.240015
     7  N   -0.022890   0.291225
     8  C    0.545659  -0.135661
     9  C   -0.562075   0.082845
    10  N   -0.348261   0.041173
    11  C   -0.001089   0.030858
    12  O   -0.402964   0.063413
    13  N   -0.186591  -0.018905
    14  C   -0.010994   0.144029
    15  C    0.171549  -0.055862
    16  C   -0.603996   0.233115
    17  N   -0.332454   0.031344
    18  H    0.126903   0.004180
    19  H    0.105386   0.002444
    20  H    0.170308   0.008836
    21  H    0.142826   0.005330
    22  H    0.155633   0.002908
    23  H    0.287566  -0.004017
    24  H    0.117932   0.003159
    25  H    0.150475  -0.017232
    26  H    0.234777   0.001366
    27  H    0.227258   0.001407
 Sum of Mulliken charges =  -1.00000   1.00000

 Dipole moment (field-independent basis, Debye):
    X=              2.4673    Y=             -0.6981    Z=             -1.8369  Tot=              3.1543
 Quadrupole moment (field-independent basis, Debye-Ang):
   XX=           -114.5513   YY=           -117.4767   ZZ=           -110.2658
   XY=              0.2547   XZ=              9.6944   YZ=              2.6338

 Summary of Natural Population Analysis:

                                       Natural Population
                Natural  -----------------------------------------------
    Atom  No    Charge         Core      Valence    Rydberg      Total
 -----------------------------------------------------------------------
      C    1   -0.29965      0.99967     2.29594    0.00405     3.29965
      C    2   -0.01667      0.99960     2.00663    0.01045     3.01667
      O    3   -0.27239      0.99986     3.26338    0.00915     4.27239
      C    4    0.40757      0.99967     1.56719    0.02557     2.59243
      O    5   -0.30447      0.99987     3.29820    0.00640     4.30447
      C    6    0.07009      0.99950     1.91553    0.01489     2.92991
      N    7   -0.11534      0.99964     2.60207    0.01362     3.61534
      C    8   -0.00453      0.99946     1.99287    0.01220     3.00453
      C    9    0.21278      0.99950     1.77379    0.01393     2.78722
      N   10   -0.27587      0.99964     2.76794    0.00829     3.77587
      C   11    0.32032      0.99964     1.65675    0.02329     2.67968
      O   12   -0.31227      0.99988     3.30610    0.00630     4.31227
      N   13   -0.30220      0.99964     2.78826    0.01429     3.80220
      C   14    0.24405      0.99959     1.74271    0.01365     2.75595
      C   15   -0.18318      0.99954     2.17577    0.00787     3.18318
      C   16   -0.00550      0.99955     1.99670    0.00925     3.00550
      N   17   -0.39053      0.99970     2.88203    0.00879     3.89053
      H   18    0.09746      0.00000     0.40155    0.00098     0.40254
      H   19    0.09232      0.00000     0.40680    0.00088     0.40768
      H   20    0.10887      0.00000     0.39000    0.00113     0.39113
      H   21    0.08452      0.00000     0.41438    0.00110     0.41548
      H   22    0.09191      0.00000     0.40662    0.00148     0.40809
      H   23    0.19159      0.00000     0.30436    0.00406     0.30841
      H   24    0.09237      0.00000     0.40644    0.00119     0.40763
      H   25    0.09679      0.00000     0.40136    0.00184     0.40321
      H   26    0.18909      0.00000     0.30943    0.00147     0.31091
      H   27    0.18287      0.00000     0.31598    0.00115     0.31713
 =======================================================================
   * Total *    0.00000     16.99394    43.78878    0.21729    61.00000

 Normal termination of Gaussian 16 at Sun Dec 13 12:55:57 2020.
