 Gaussian 16, Revision A.03,

 -----------------------------------------------------------
 # opt freq B3LYP/6-31G(d) empiricaldispersion=gd3bj scf=xqc
 -----------------------------------------------------------

 ------------------------------
 CID_80095920_JID_3102_neutraal
 ------------------------------
 Symbolic Z-matrix:
 Charge =  0 Multiplicity = 1

 SCF Done:  E(RB3LYP) =  -578.045021265     A.U. after   13 cycles
 SCF Done:  E(RB3LYP) =  -578.048848677     A.U. after   11 cycles
 SCF Done:  E(RB3LYP) =  -578.049656838     A.U. after   11 cycles
 SCF Done:  E(RB3LYP) =  -578.049960731     A.U. after   11 cycles
 SCF Done:  E(RB3LYP) =  -578.050162682     A.U. after   11 cycles
 SCF Done:  E(RB3LYP) =  -578.050217499     A.U. after   11 cycles
 SCF Done:  E(RB3LYP) =  -578.050232009     A.U. after   10 cycles
 SCF Done:  E(RB3LYP) =  -578.050235648     A.U. after    9 cycles
 SCF Done:  E(RB3LYP) =  -578.050236117     A.U. after    8 cycles
 Optimization completed.
    -- Stationary point found.
 Normal termination of Gaussian 16 at Wed Dec  9 22:22:52 2020.

 --------------------------------------------------------------------
 #N Geom=AllCheck Guess=TCheck SCRF=Check GenChk RB3LYP/6-31G(d) Freq
 --------------------------------------------------------------------

 Structure from the checkpoint file:  "JID_3102.chk"
 ------------------------------
 CID_80095920_JID_3102_neutraal
 ------------------------------
 Charge =  0 Multiplicity = 1

 SCF Done:  E(RB3LYP) =  -578.050236117     A.U. after    1 cycles

  Exact polarizability: 146.322  -6.058 111.711  13.619  15.724  86.105
 Approx polarizability: 204.686 -17.494 182.764  25.286  32.612 137.531

                      1                      2                      3
                      A                      A                      A
 Frequencies --     25.1524                60.1406                80.1620
 Red. masses --      4.8467                 4.0896                 4.1923
 Frc consts  --      0.0018                 0.0087                 0.0159
 IR Inten    --      0.3655                 0.0155                 0.1480

                      4                      5                      6
                      A                      A                      A
 Frequencies --    121.9284               213.9905               233.5450
 Red. masses --      2.9138                 4.4449                 4.1512
 Frc consts  --      0.0255                 0.1199                 0.1334
 IR Inten    --      0.7198                 0.2114                 1.3656

                      7                      8                      9
                      A                      A                      A
 Frequencies --    239.9324               275.4494               292.2105
 Red. masses --      4.4603                 2.8035                 2.7014
 Frc consts  --      0.1513                 0.1253                 0.1359
 IR Inten    --      0.0884                 1.4615                 0.1537

                     10                     11                     12
                      A                      A                      A
 Frequencies --    337.2479               366.4766               380.3005
 Red. masses --      1.3860                 1.2128                 1.9953
 Frc consts  --      0.0929                 0.0960                 0.1700
 IR Inten    --     41.8841                89.3285                 6.8700

                     13                     14                     15
                      A                      A                      A
 Frequencies --    395.9430               454.3666               463.5417
 Red. masses --      1.6126                 2.6893                 3.1513
 Frc consts  --      0.1490                 0.3271                 0.3989
 IR Inten    --     48.2153                10.3323                 5.8466

                     16                     17                     18
                      A                      A                      A
 Frequencies --    499.1711               539.2736               578.2874
 Red. masses --      4.1298                 7.1632                 4.2662
 Frc consts  --      0.6063                 1.2274                 0.8406
 IR Inten    --      8.6179                 3.0501                 1.1468

                     19                     20                     21
                      A                      A                      A
 Frequencies --    633.5853               706.2667               759.7596
 Red. masses --      4.9129                 2.6307                 4.0210
 Frc consts  --      1.1620                 0.7731                 1.3675
 IR Inten    --      0.1033                 7.5171                 5.8973

                     22                     23                     24
                      A                      A                      A
 Frequencies --    769.6677               793.8943               805.3712
 Red. masses --      2.3758                 1.0858                 1.6231
 Frc consts  --      0.8292                 0.4032                 0.6203
 IR Inten    --     19.5074                 1.3283                16.5996

                     25                     26                     27
                      A                      A                      A
 Frequencies --    853.3917               890.4289               902.7884
 Red. masses --      1.5721                 1.4262                 1.6854
 Frc consts  --      0.6746                 0.6662                 0.8093
 IR Inten    --     26.1973                 1.6452                 1.2396

                     28                     29                     30
                      A                      A                      A
 Frequencies --    929.1115               949.1919               963.9454
 Red. masses --      2.0111                 1.6477                 1.9857
 Frc consts  --      1.0229                 0.8746                 1.0871
 IR Inten    --     12.9053                 4.9824                 5.1189

                     31                     32                     33
                      A                      A                      A
 Frequencies --    974.8579               980.3886               993.1386
 Red. masses --      1.2759                 3.3121                 1.8023
 Frc consts  --      0.7144                 1.8757                 1.0474
 IR Inten    --      0.4654                 2.5965                11.3817

                     34                     35                     36
                      A                      A                      A
 Frequencies --   1019.3125              1041.8383              1060.7015
 Red. masses --      6.1907                 1.8886                 1.6134
 Frc consts  --      3.7897                 1.2078                 1.0695
 IR Inten    --      4.0078                10.0164                11.0466

                     37                     38                     39
                      A                      A                      A
 Frequencies --   1081.8559              1085.7398              1112.8470
 Red. masses --      1.5427                 3.4253                 1.6086
 Frc consts  --      1.0638                 2.3791                 1.1737
 IR Inten    --     20.1554                55.3171                 7.1912

                     40                     41                     42
                      A                      A                      A
 Frequencies --   1192.7322              1196.1758              1198.9991
 Red. masses --      1.2911                 1.2219                 1.2315
 Frc consts  --      1.0822                 1.0301                 1.0431
 IR Inten    --     27.3297                12.7592                16.9816

                     43                     44                     45
                      A                      A                      A
 Frequencies --   1203.9482              1212.9694              1221.5397
 Red. masses --      1.7806                 1.2682                 1.2674
 Frc consts  --      1.5207                 1.0994                 1.1142
 IR Inten    --     33.0394                35.4063                97.5809

                     46                     47                     48
                      A                      A                      A
 Frequencies --   1326.4930              1338.5509              1342.0491
 Red. masses --      2.6520                 1.7544                 2.3287
 Frc consts  --      2.7494                 1.8521                 2.4711
 IR Inten    --     42.2158                 9.6323                24.6901

                     49                     50                     51
                      A                      A                      A
 Frequencies --   1363.8620              1383.0894              1394.2645
 Red. masses --      1.8424                 2.2551                 1.8751
 Frc consts  --      2.0192                 2.5416                 2.1476
 IR Inten    --      2.1594                 7.9674                 6.0036

                     52                     53                     54
                      A                      A                      A
 Frequencies --   1398.6140              1454.5639              1497.1468
 Red. masses --      1.3427                 1.2765                 1.1173
 Frc consts  --      1.5474                 1.5913                 1.4756
 IR Inten    --     12.7093                34.6667                 7.4415

                     55                     56                     57
                      A                      A                      A
 Frequencies --   1504.3162              1514.7174              1525.7991
 Red. masses --      2.3245                 1.1680                 1.1618
 Frc consts  --      3.0992                 1.5789                 1.5936
 IR Inten    --     75.9955                11.2311                 2.2101

                     58                     59                     60
                      A                      A                      A
 Frequencies --   1541.5103              1555.7615              1661.9887
 Red. masses --      1.2619                 2.4450                 5.7924
 Frc consts  --      1.7667                 3.4868                 9.4268
 IR Inten    --      3.1035                10.1147                74.1503

                     61                     62                     63
                      A                      A                      A
 Frequencies --   1665.4683              2974.1034              3035.6165
 Red. masses --      5.8948                 1.0722                 1.0607
 Frc consts  --      9.6336                 5.5879                 5.7587
 IR Inten    --     53.4694                66.6286                34.6852

                     64                     65                     66
                      A                      A                      A
 Frequencies --   3077.0811              3093.8227              3140.8449
 Red. masses --      1.1028                 1.0915                 1.0529
 Frc consts  --      6.1521                 6.1553                 6.1199
 IR Inten    --     20.3709                40.3836                25.2779

                     67                     68                     69
                      A                      A                      A
 Frequencies --   3149.4466              3158.7933              3192.3667
 Red. masses --      1.0568                 1.0896                 1.0867
 Frc consts  --      6.1759                 6.4053                 6.5252
 IR Inten    --     10.5051                16.8668                 7.7856

                     70                     71                     72
                      A                      A                      A
 Frequencies --   3209.6836              3215.4019              3223.8126
 Red. masses --      1.0929                 1.1185                 1.0945
 Frc consts  --      6.6336                 6.8130                 6.7018
 IR Inten    --     14.9684                 3.6178                 7.4264

                     73                     74                     75
                      A                      A                      A
 Frequencies --   3231.6124              3737.5117              3750.3391
 Red. masses --      1.1159                 1.0653                 1.0659
 Frc consts  --      6.8664                 8.7679                 8.8331
 IR Inten    --     19.1634                89.9094                39.3605

 - Thermochemistry -
 -------------------
 Temperature   298.150 Kelvin.  Pressure   1.00000 Atm.
 Atom     1 has atomic number  6 and mass  12.00000

 Molecular mass:   178.09938 amu.
 Principal axes and moments of inertia in atomic units:
                           1         2         3
     Eigenvalues --  1162.055073634.946543980.35785
           X            0.99998   0.00031   0.00706
           Y           -0.00071   0.99832   0.05788
           Z           -0.00703  -0.05789   0.99830
 This molecule is an asymmetric top.
 Rotational symmetry number  1.
 Warning -- assumption of classical behavior for rotation
           may cause significant error
 Rotational temperatures (Kelvin)      0.07454     0.02383     0.02176
 Rotational constants (GHZ):           1.55306     0.49650     0.45341
 Zero-point vibrational energy     602620.0 (Joules/Mol)
                                  144.02964 (Kcal/Mol)
 Warning -- explicit consideration of  18 degrees of freedom as
           vibrations may cause significant error
 Vibrational temperatures:     36.19    86.53   115.34   175.43   307.88
          (Kelvin)            336.02   345.21   396.31   420.43   485.22
                              527.28   547.17   569.67   653.73   666.93
                              718.20   775.89   832.03   911.59  1016.16
                             1093.12  1107.38  1142.24  1158.75  1227.84
                             1281.13  1298.91  1336.78  1365.68  1386.90
                             1402.60  1410.56  1428.90  1466.56  1498.97
                             1526.11  1556.55  1562.14  1601.14  1716.08
                             1721.03  1725.09  1732.21  1745.19  1757.52
                             1908.53  1925.88  1930.91  1962.29  1989.96
                             2006.04  2012.29  2092.79  2154.06  2164.38
                             2179.34  2195.28  2217.89  2238.39  2391.23
                             2396.24  4279.07  4367.58  4427.23  4451.32
                             4518.98  4531.35  4544.80  4593.10  4618.02
                             4626.25  4638.35  4649.57  5377.45  5395.90

 Zero-point correction=                           0.229526 (Hartree/Particle)
 Thermal correction to Energy=                    0.241811
 Thermal correction to Enthalpy=                  0.242755
 Thermal correction to Gibbs Free Energy=         0.190444
 Sum of electronic and zero-point Energies=           -577.820710
 Sum of electronic and thermal Energies=              -577.808425
 Sum of electronic and thermal Enthalpies=            -577.807481
 Sum of electronic and thermal Free Energies=         -577.859792

                     E (Thermal)             CV                S
                      KCal/Mol        Cal/Mol-Kelvin    Cal/Mol-Kelvin
 Total                  151.738             48.006            110.098
 Electronic               0.000              0.000              0.000
 Translational            0.889              2.981             41.438
 Rotational               0.889              2.981             31.198
 Vibrational            149.961             42.045             37.462
 Vibration     1          0.593              1.985              6.179
 Vibration     2          0.597              1.973              4.453
 Vibration     3          0.600              1.963              3.887
 Vibration     4          0.609              1.931              3.070
 Vibration     5          0.644              1.820              2.009
 Vibration     6          0.654              1.790              1.852
 Vibration     7          0.657              1.779              1.803
 Vibration     8          0.677              1.719              1.562
 Vibration     9          0.688              1.688              1.461
 Vibration    10          0.718              1.601              1.225
 Vibration    11          0.739              1.541              1.095
 Vibration    12          0.750              1.512              1.038
 Vibration    13          0.763              1.479              0.978
 Vibration    14          0.813              1.351              0.783
 Vibration    15          0.821              1.331              0.756
 Vibration    16          0.855              1.252              0.660
 Vibration    17          0.894              1.163              0.567
 Vibration    18          0.935              1.078              0.489

                           ! Non-Optimized Parameters !
 Normal termination of Gaussian 16 at Wed Dec  9 22:29:33 2020.

 ----------------------------------------------------------------------
 # B3LYP/6-311++G(d,p) empiricaldispersion=gd3bj scf=xqc pop=npa geom=c
 heck
 ----------------------------------------------------------------------

 --------------------------------------
 CID_80095920_JID_3102_Energie_neutraal
 --------------------------------------
 Structure from the checkpoint file:  "JID_3102.chk"
 Charge =  0 Multiplicity = 1

 SCF Done:  E(RB3LYP) =  -578.226617016     A.U. after   14 cycles
 Normal termination of Gaussian 16 at Wed Dec  9 22:32:17 2020.

 ----------------------------------------------------------------------
 # B3LYP/6-311++G(d,p) empiricaldispersion=gd3bj scf=xqc pop=npa geom=c
 heck
 ----------------------------------------------------------------------

 ------------------------------------
 CID_80095920_JID_3102_Energie_kation
 ------------------------------------
 Structure from the checkpoint file:  "JID_3102.chk"
 Charge =  1 Multiplicity = 2

 SCF Done:  E(UB3LYP) =  -577.920159311     A.U. after   25 cycles
 Normal termination of Gaussian 16 at Wed Dec  9 22:39:12 2020.
 Gaussian 16:  ES64L-G16RevA.03 25-Dec-2016

 ----------------------------------------------------------------------
 # B3LYP/6-311++G(d,p) empiricaldispersion=gd3bj scf=xqc pop=npa geom=c
 heck
 ----------------------------------------------------------------------

 -----------------------------------
 CID_80095920_JID_3102_Energie_anion
 -----------------------------------
 Structure from the checkpoint file:  "JID_3102.chk"
 Charge = -1 Multiplicity = 2

                         Standard orientation:
 ---------------------------------------------------------------------
 Center     Atomic      Atomic             Coordinates (Angstroms)
 Number     Number       Type             X           Y           Z
 ---------------------------------------------------------------------
      1          6           0       -2.863802    0.889362    0.526052
      2          6           0       -3.552407    0.112510   -0.570000
      3          6           0       -2.102616   -0.161288   -0.239776
      4          6           0       -1.056241    0.289046   -1.259357
      5          6           0        0.323880    0.477581   -0.666398
      6          6           0        1.293459   -0.524688   -0.803410
      7          6           0        2.553141   -0.388098   -0.209437
      8          6           0        2.857237    0.756242    0.533094
      9          6           0        1.894557    1.753612    0.666168
     10          6           0        0.637525    1.622880    0.074712
     11          8           0        3.524118   -1.342054   -0.324128
     12          6           0       -1.785795   -1.449406    0.506156
     13          8           0       -0.888400   -1.289548    1.595124
     14          1           0       -3.115522    0.669606    1.559300
     15          1           0       -2.629824    1.934106    0.339510
     16          1           0       -4.292915   -0.632153   -0.289766
     17          1           0       -3.773781    0.626769   -1.501853
     18          1           0       -1.006606   -0.453288   -2.067116
     19          1           0       -1.389774    1.228590   -1.716372
     20          1           0        1.063697   -1.418603   -1.381834
     21          1           0        3.838223    0.845106    0.987353
     22          1           0        2.128973    2.644998    1.241139
     23          1           0       -0.105427    2.405233    0.193346
     24          1           0        3.180431   -2.079374   -0.852058
     25          1           0       -2.703031   -1.853580    0.946131
     26          1           0       -1.412666   -2.201660   -0.210586
     27          1           0       -0.061149   -0.929450    1.238008
 ---------------------------------------------------------------------

 SCF Done:  E(UB3LYP) =  -578.215048756     A.U. after   33 cycles
 SCF Done:  E(UB3LYP) =  -578.215048756     a.u. after    1 cycles

 The electronic state is 2-A.
 Alpha  occ. eigenvalues --  -19.04861 -19.01327 -10.13690 -10.11409 -10.08733
 Alpha  occ. eigenvalues --  -10.08446 -10.08079 -10.07600 -10.07426 -10.07291
 Alpha  occ. eigenvalues --  -10.07101 -10.07015 -10.06771  -0.95988  -0.91628
 Alpha  occ. eigenvalues --   -0.77482  -0.75583  -0.67650  -0.64173  -0.60838
 Alpha  occ. eigenvalues --   -0.58357  -0.52525  -0.50776  -0.49413  -0.45946
 Alpha  occ. eigenvalues --   -0.44108  -0.40474  -0.40121  -0.38897  -0.37374
 Alpha  occ. eigenvalues --   -0.36130  -0.33619  -0.32411  -0.31530  -0.31111
 Alpha  occ. eigenvalues --   -0.30189  -0.29138  -0.28612  -0.27073  -0.25741
 Alpha  occ. eigenvalues --   -0.25325  -0.24235  -0.22091  -0.20269  -0.18559
 Alpha  occ. eigenvalues --   -0.16987  -0.15435  -0.12753   0.04552
 Alpha virt. eigenvalues --    0.06590   0.07305   0.07662   0.08523   0.08938
 Alpha virt. eigenvalues --    0.09274   0.09529   0.10508   0.10932   0.11344
 Alpha virt. eigenvalues --    0.11727   0.12929   0.13291   0.13975   0.14378

  Beta  occ. eigenvalues --  -19.04803 -19.01323 -10.13692 -10.11391 -10.08734
  Beta  occ. eigenvalues --  -10.08414 -10.08076 -10.07581 -10.07406 -10.07275
  Beta  occ. eigenvalues --  -10.07071 -10.06968 -10.06760  -0.95879  -0.91621
  Beta  occ. eigenvalues --   -0.77456  -0.75537  -0.67586  -0.64114  -0.60793
  Beta  occ. eigenvalues --   -0.58311  -0.52444  -0.50720  -0.49348  -0.45896
  Beta  occ. eigenvalues --   -0.44027  -0.40439  -0.40056  -0.38866  -0.37318
  Beta  occ. eigenvalues --   -0.36082  -0.33567  -0.32379  -0.31471  -0.31063
  Beta  occ. eigenvalues --   -0.30137  -0.29108  -0.28572  -0.27043  -0.25696
  Beta  occ. eigenvalues --   -0.25269  -0.24179  -0.22058  -0.20237  -0.18529
  Beta  occ. eigenvalues --   -0.16972  -0.15317  -0.12666
  Beta virt. eigenvalues --    0.06888   0.07494   0.07917   0.08395   0.08891
  Beta virt. eigenvalues --    0.09251   0.09450   0.09967   0.10837   0.11439
  Beta virt. eigenvalues --    0.11663   0.12003   0.13183   0.13662   0.14457

 Mulliken charges and spin densities:
               1          2
     1  C   -0.050311  -0.394281
     2  C    0.620608  -1.035616
     3  C   -1.008891   1.776059
     4  C    4.011461  -4.734619
     5  C   -1.057276   2.014301
     6  C   -1.836682   1.863336
     7  C    1.240161  -1.877094
     8  C    1.757287  -1.709016
     9  C   -0.379587  -0.014762
    10  C   -1.570752   1.060890
    11  O   -0.270357   0.046707
    12  C   -0.030961  -0.677398
    13  O   -0.283132   0.024535
    14  H    0.108062   0.063435
    15  H   -0.047323   0.175581
    16  H    0.007153   0.122941
    17  H   -0.162796   0.306914
    18  H   -0.248749   0.441573
    19  H   -0.349805   0.529116
    20  H   -1.053002   1.229963
    21  H    0.136803   0.028410
    22  H   -0.039149   0.201952
    23  H   -0.272766   0.401876
    24  H   -0.470896   0.761340
    25  H    0.051400   0.094703
    26  H   -0.145123   0.318716
    27  H    0.344620  -0.019562
 Sum of Mulliken charges =  -1.00000   1.00000

 Dipole moment (field-independent basis, Debye):
    X=             -1.9126    Y=              3.7140    Z=              4.0970  Tot=              5.8512
 Quadrupole moment (field-independent basis, Debye-Ang):
   XX=           -130.5037   YY=           -123.9948   ZZ=           -115.9888
   XY=             15.5142   XZ=              2.7809   YZ=             -3.0799

 Summary of Natural Population Analysis:

                                       Natural Population
                Natural  -----------------------------------------------
    Atom  No    Charge         Core      Valence    Rydberg      Total
 -----------------------------------------------------------------------
      C    1   -0.19236      0.99958     2.18359    0.00920     3.19236
      C    2   -0.19262      0.99958     2.18425    0.00879     3.19262
      C    3   -0.05488      0.99954     2.04247    0.01288     3.05488
      C    4   -0.19556      0.99956     2.18378    0.01223     3.19556
      C    5   -0.00856      0.99952     1.99670    0.01235     3.00856
      C    6   -0.14625      0.99946     2.13409    0.01270     3.14625
      C    7    0.16262      0.99939     1.82393    0.01406     2.83738
      C    8   -0.12918      0.99951     2.12033    0.00934     3.12918
      C    9   -0.09105      0.99957     2.08265    0.00883     3.09105
      C   10   -0.11747      0.99949     2.10807    0.00991     3.11747
      O   11   -0.34042      0.99988     3.33319    0.00735     4.34042
      C   12   -0.00611      0.99952     1.99272    0.01387     3.00611
      O   13   -0.37264      0.99990     3.36662    0.00612     4.37264
      H   14    0.10389      0.00000     0.39526    0.00086     0.39611
      H   15    0.10306      0.00000     0.39583    0.00111     0.39694
      H   16    0.09955      0.00000     0.39952    0.00093     0.40045
      H   17    0.10392      0.00000     0.39482    0.00126     0.39608
      H   18    0.10681      0.00000     0.39106    0.00212     0.39319
      H   19    0.10706      0.00000     0.39074    0.00220     0.39294
      H   20    0.10994      0.00000     0.38549    0.00457     0.39006
      H   21    0.10416      0.00000     0.39502    0.00082     0.39584
      H   22    0.09827      0.00000     0.40098    0.00075     0.40173
      H   23    0.10186      0.00000     0.39660    0.00154     0.39814
      H   24    0.24284      0.00000     0.24332    0.01384     0.25716
      H   25    0.08464      0.00000     0.41412    0.00124     0.41536
      H   26    0.08251      0.00000     0.41616    0.00132     0.41749
      H   27    0.23597      0.00000     0.26063    0.00340     0.26403
 =======================================================================
   * Total *   -0.00000     12.99449    34.83193    0.17359    48.00000

 Normal termination of Gaussian 16 at Wed Dec  9 22:50:37 2020.
