 Gaussian 16, Revision A.03,

 -----------------------------------------------------------
 # opt freq B3LYP/6-31G(d) empiricaldispersion=gd3bj scf=xqc
 -----------------------------------------------------------

 -------------------------------
 CID_116614312_JID_8975_neutraal
 -------------------------------
 Symbolic Z-matrix:
 Charge =  0 Multiplicity = 1

 SCF Done:  E(RB3LYP) =  -1189.06636227     A.U. after   14 cycles
 SCF Done:  E(RB3LYP) =  -1189.07090196     A.U. after   13 cycles
 SCF Done:  E(RB3LYP) =  -1189.06741151     A.U. after   13 cycles
 SCF Done:  E(RB3LYP) =  -1189.07048581     A.U. after   13 cycles
 SCF Done:  E(RB3LYP) =  -1189.07256043     A.U. after    9 cycles
 SCF Done:  E(RB3LYP) =  -1189.07356699     A.U. after   13 cycles
 SCF Done:  E(RB3LYP) =  -1189.07451544     A.U. after   13 cycles
 SCF Done:  E(RB3LYP) =  -1189.07636459     A.U. after   13 cycles
 SCF Done:  E(RB3LYP) =  -1189.07759026     A.U. after   15 cycles
 SCF Done:  E(RB3LYP) =  -1189.08073332     A.U. after   13 cycles
 SCF Done:  E(RB3LYP) =  -1189.08463334     A.U. after   10 cycles
 SCF Done:  E(RB3LYP) =  -1189.08463599     A.U. after   10 cycles
 SCF Done:  E(RB3LYP) =  -1189.08463612     A.U. after   10 cycles
 SCF Done:  E(RB3LYP) =  -1189.08463795     A.U. after    9 cycles
 SCF Done:  E(RB3LYP) =  -1189.08463818     A.U. after    7 cycles
 SCF Done:  E(RB3LYP) =  -1189.08463818     A.U. after    6 cycles
 Optimization completed.
    -- Stationary point found.
 Normal termination of Gaussian 16 at Fri Dec 11 23:35:39 2020.

 --------------------------------------------------------------------
 #N Geom=AllCheck Guess=TCheck SCRF=Check GenChk RB3LYP/6-31G(d) Freq
 --------------------------------------------------------------------

 Structure from the checkpoint file:  "JID_8975.chk"
 -------------------------------
 CID_116614312_JID_8975_neutraal
 -------------------------------
 Charge =  0 Multiplicity = 1

 SCF Done:  E(RB3LYP) =  -1189.08463818     A.U. after    1 cycles

  Exact polarizability: 201.076  -4.408 148.425  -1.840  -1.867 147.127
 Approx polarizability: 236.622  -0.806 237.499   4.166 -11.650 231.513

                      1                      2                      3
                      A                      A                      A
 Frequencies --     11.8999                20.3881                31.2566
 Red. masses --      4.3164                 4.8920                 5.1977
 Frc consts  --      0.0004                 0.0012                 0.0030
 IR Inten    --      0.6672                 1.2336                 1.4164

                      4                      5                      6
                      A                      A                      A
 Frequencies --     63.4281                81.2682                99.3440
 Red. masses --      3.9197                 3.7372                 3.1870
 Frc consts  --      0.0093                 0.0145                 0.0185
 IR Inten    --      4.3087                 2.9928                 1.5865

                      7                      8                      9
                      A                      A                      A
 Frequencies --    112.4521               114.5031               174.0250
 Red. masses --      2.5410                 3.2095                 3.5029
 Frc consts  --      0.0189                 0.0248                 0.0625
 IR Inten    --      0.7951                 3.0634                 2.0607

                     10                     11                     12
                      A                      A                      A
 Frequencies --    183.9037               186.3729               199.4376
 Red. masses --      3.1899                 1.8610                 1.8333
 Frc consts  --      0.0636                 0.0381                 0.0430
 IR Inten    --      0.7660                 1.8580                 2.3046

                     13                     14                     15
                      A                      A                      A
 Frequencies --    206.8917               215.8440               264.1215
 Red. masses --      2.0622                 3.1866                 3.2024
 Frc consts  --      0.0520                 0.0875                 0.1316
 IR Inten    --      2.1979                 4.2226                 1.0468

                     16                     17                     18
                      A                      A                      A
 Frequencies --    274.0836               294.4409               302.5989
 Red. masses --      2.8302                 1.9733                 1.7979
 Frc consts  --      0.1253                 0.1008                 0.0970
 IR Inten    --      3.0452                14.2169                19.4410

                     19                     20                     21
                      A                      A                      A
 Frequencies --    312.9999               323.1001               359.0378
 Red. masses --      2.8615                 2.3852                 1.9330
 Frc consts  --      0.1652                 0.1467                 0.1468
 IR Inten    --      3.2622                 1.4338                 7.5654

                     22                     23                     24
                      A                      A                      A
 Frequencies --    378.3003               398.5084               415.8239
 Red. masses --      3.0696                 2.8775                 2.3623
 Frc consts  --      0.2588                 0.2692                 0.2407
 IR Inten    --      1.1122                 1.4778                14.8820

                     25                     26                     27
                      A                      A                      A
 Frequencies --    443.8920               446.4035               464.0767
 Red. masses --      3.6148                 2.8419                 3.1512
 Frc consts  --      0.4196                 0.3337                 0.3999
 IR Inten    --     39.3893                 9.4935                 0.5778

                     28                     29                     30
                      A                      A                      A
 Frequencies --    502.8659               507.9037               535.7845
 Red. masses --      4.9974                 2.3121                 2.6882
 Frc consts  --      0.7446                 0.3514                 0.4547
 IR Inten    --     23.0711                 4.4303                 3.3232

                     31                     32                     33
                      A                      A                      A
 Frequencies --    575.7029               651.1825               680.9981
 Red. masses --      1.9143                 3.7806                 3.2497
 Frc consts  --      0.3738                 0.9445                 0.8879
 IR Inten    --      1.3706                 2.2194                 9.3885

                     34                     35                     36
                      A                      A                      A
 Frequencies --    722.4555               745.9034               771.9600
 Red. masses --      2.3619                 1.6580                 2.3056
 Frc consts  --      0.7263                 0.5435                 0.8095
 IR Inten    --      7.0066                 8.8008                37.8493

                     37                     38                     39
                      A                      A                      A
 Frequencies --    802.3028               834.6699               854.3682
 Red. masses --      1.4748                 2.3198                 2.0710
 Frc consts  --      0.5593                 0.9522                 0.8907
 IR Inten    --      0.5099                14.7081                25.5872

                     40                     41                     42
                      A                      A                      A
 Frequencies --    863.7563               872.4556               880.5609
 Red. masses --      1.4791                 1.5489                 2.2643
 Frc consts  --      0.6502                 0.6947                 1.0344
 IR Inten    --     20.0684                58.7024                 2.1719

                     43                     44                     45
                      A                      A                      A
 Frequencies --    910.2486               929.2073               935.3873
 Red. masses --      2.0133                 2.5531                 2.1068
 Frc consts  --      0.9828                 1.2988                 1.0861
 IR Inten    --      0.9348                 3.7709                24.7825

                     46                     47                     48
                      A                      A                      A
 Frequencies --    960.9172               981.5276               985.2192
 Red. masses --      1.4627                 1.4619                 1.5013
 Frc consts  --      0.7957                 0.8298                 0.8586
 IR Inten    --      0.8228                17.9251                25.2052

                     49                     50                     51
                      A                      A                      A
 Frequencies --    992.1479              1036.3787              1050.8415
 Red. masses --      1.7887                 1.6954                 2.4994
 Frc consts  --      1.0374                 1.0729                 1.6262
 IR Inten    --     10.9464                17.7364                19.2682

                     52                     53                     54
                      A                      A                      A
 Frequencies --   1053.1217              1059.8772              1069.6148
 Red. masses --      2.2312                 2.3624                 2.4605
 Frc consts  --      1.4579                 1.5635                 1.6585
 IR Inten    --      9.1105                 6.9394                 2.4220

                     55                     56                     57
                      A                      A                      A
 Frequencies --   1078.5671              1089.7280              1106.3739
 Red. masses --      1.9100                 1.9590                 2.2350
 Frc consts  --      1.3091                 1.3707                 1.6119
 IR Inten    --      8.8912                 2.9129                24.0214

                     58                     59                     60
                      A                      A                      A
 Frequencies --   1115.1308              1119.6960              1141.5888
 Red. masses --      2.4505                 2.2349                 2.1827
 Frc consts  --      1.7954                 1.6509                 1.6760
 IR Inten    --     34.6972               146.7556                17.3043

                     61                     62                     63
                      A                      A                      A
 Frequencies --   1161.2782              1170.2711              1181.2186
 Red. masses --      1.3795                 1.3915                 1.2576
 Frc consts  --      1.0961                 1.1228                 1.0339
 IR Inten    --     22.5030                 0.8571                 6.2856

                     64                     65                     66
                      A                      A                      A
 Frequencies --   1216.1452              1246.2210              1267.5685
 Red. masses --      2.2446                 1.3926                 1.4696
 Frc consts  --      1.9559                 1.2743                 1.3912
 IR Inten    --      0.3016                 1.3258                37.5913

                     67                     68                     69
                      A                      A                      A
 Frequencies --   1283.3753              1296.9024              1305.7316
 Red. masses --      1.4396                 1.3967                 1.4176
 Frc consts  --      1.3970                 1.3841                 1.4240
 IR Inten    --      2.3569                29.6943                15.6941

                     70                     71                     72
                      A                      A                      A
 Frequencies --   1313.9482              1316.4875              1324.1833
 Red. masses --      1.2682                 3.0173                 1.2150
 Frc consts  --      1.2901                 3.0811                 1.2553
 IR Inten    --     16.1734               136.7659                 5.9634

                     73                     74                     75
                      A                      A                      A
 Frequencies --   1346.1755              1354.8035              1366.2524
 Red. masses --      1.2489                 1.3717                 1.3957
 Frc consts  --      1.3335                 1.4834                 1.5350
 IR Inten    --     17.1409                 2.3759                 2.8404

                     76                     77                     78
                      A                      A                      A
 Frequencies --   1370.4393              1374.3338              1385.5767
 Red. masses --      1.3872                 1.2465                 1.5005
 Frc consts  --      1.5350                 1.3872                 1.6973
 IR Inten    --     25.7049                12.3918                16.4317

                     79                     80                     81
                      A                      A                      A
 Frequencies --   1389.2122              1402.0266              1410.3380
 Red. masses --      1.4326                 1.4745                 1.4774
 Frc consts  --      1.6290                 1.7076                 1.7314
 IR Inten    --      3.8301                 1.9104                 0.3876

                     82                     83                     84
                      A                      A                      A
 Frequencies --   1418.2250              1421.1199              1445.6815
 Red. masses --      1.5863                 1.5763                 1.4075
 Frc consts  --      1.8798                 1.8756                 1.7332
 IR Inten    --     11.4627                19.2639                 5.3854

                     85                     86                     87
                      A                      A                      A
 Frequencies --   1479.5343              1481.4779              1487.0235
 Red. masses --      1.0874                 1.0898                 1.0533
 Frc consts  --      1.4025                 1.4092                 1.3723
 IR Inten    --      3.5392                 5.1528                 6.3462

                     88                     89                     90
                      A                      A                      A
 Frequencies --   1490.5963              1503.0945              1508.3345
 Red. masses --      1.0682                 1.0946                 1.0866
 Frc consts  --      1.3984                 1.4571                 1.4566
 IR Inten    --     13.7658                 4.8995                 5.7529

                     91                     92                     93
                      A                      A                      A
 Frequencies --   1513.4667              1522.9105              1524.8113
 Red. masses --      1.0939                 1.0830                 1.0866
 Frc consts  --      1.4764                 1.4799                 1.4884
 IR Inten    --      0.4825                11.5176                 3.9294

                     94                     95                     96
                      A                      A                      A
 Frequencies --   1528.1524              1536.0481              1541.4442
 Red. masses --      1.0890                 1.0854                 1.0939
 Frc consts  --      1.4984                 1.5088                 1.5314
 IR Inten    --      3.5675                 6.4296                 1.0445

                     97                     98                     99
                      A                      A                      A
 Frequencies --   1694.1114              1792.9183              2969.1688
 Red. masses --      1.0895                10.2604                 1.0710
 Frc consts  --      1.8424                19.4328                 5.5629
 IR Inten    --     36.3298               100.4918                68.8838

                    100                    101                    102
                      A                      A                      A
 Frequencies --   3013.9324              3015.9391              3020.1656
 Red. masses --      1.0693                 1.0699                 1.0646
 Frc consts  --      5.7229                 5.7339                 5.7212
 IR Inten    --     13.3651                12.9109                24.3592

                    103                    104                    105
                      A                      A                      A
 Frequencies --   3023.1750              3037.4398              3047.7113
 Red. masses --      1.0672                 1.0664                 1.0618
 Frc consts  --      5.7468                 5.7970                 5.8108
 IR Inten    --     59.3054                11.0306                26.2903

                    106                    107                    108
                      A                      A                      A
 Frequencies --   3052.6543              3054.6941              3063.2750
 Red. masses --      1.0803                 1.0802                 1.0897
 Frc consts  --      5.9311                 5.9386                 6.0243
 IR Inten    --      4.3459                 0.5299                89.7908

                    109                    110                    111
                      A                      A                      A
 Frequencies --   3071.2065              3074.0976              3078.4629
 Red. masses --      1.0601                 1.0924                 1.1029
 Frc consts  --      5.8914                 6.0821                 6.1582
 IR Inten    --      3.7031                71.5973                35.3182

                    112                    113                    114
                      A                      A                      A
 Frequencies --   3079.7086              3085.7060              3086.5734
 Red. masses --      1.0612                 1.0311                 1.1039
 Frc consts  --      5.9302                 5.7844                 6.1964
 IR Inten    --     13.2579                 1.4556                89.9367

                    115                    116                    117
                      A                      A                      A
 Frequencies --   3097.7072              3106.2351              3121.9795
 Red. masses --      1.0896                 1.0982                 1.1027
 Frc consts  --      6.1605                 6.2431                 6.3326
 IR Inten    --      6.6800                25.2145                 0.0549

                    118                    119                    120
                      A                      A                      A
 Frequencies --   3124.3355              3142.1141              3184.3771
 Red. masses --      1.0905                 1.1028                 1.1062
 Frc consts  --      6.2718                 6.4148                 6.6092
 IR Inten    --     14.9211                11.7068                 1.3500

                    121                    122                    123
                      A                      A                      A
 Frequencies --   3192.6256              3481.5375              3564.8625
 Red. masses --      1.1074                 1.0498                 1.0928
 Frc consts  --      6.6506                 7.4971                 8.1822
 IR Inten    --      1.9818                 0.8235                 0.8644

 - Thermochemistry -
 -------------------
 Temperature   298.150 Kelvin.  Pressure   1.00000 Atm.
 Atom     1 has atomic number  6 and mass  12.00000

 Molecular mass:   275.15552 amu.
 Principal axes and moments of inertia in atomic units:
                           1         2         3
     Eigenvalues --  1730.50078********************
           X            0.99998  -0.00462  -0.00472
           Y            0.00485   0.99875   0.04973
           Z            0.00448  -0.04975   0.99875
 This molecule is an asymmetric top.
 Rotational symmetry number  1.
 Warning -- assumption of classical behavior for rotation
           may cause significant error
 Rotational temperatures (Kelvin)      0.05005     0.00609     0.00597
 Rotational constants (GHZ):           1.04290     0.12698     0.12443
 Zero-point vibrational energy     998630.4 (Joules/Mol)
                                  238.67840 (Kcal/Mol)
 Warning -- explicit consideration of  31 degrees of freedom as
           vibrations may cause significant error
 Vibrational temperatures:     17.12    29.33    44.97    91.26   116.93
          (Kelvin)            142.93   161.79   164.74   250.38   264.60
                              268.15   286.95   297.67   310.55   380.01
                              394.35   423.63   435.37   450.34   464.87
                              516.58   544.29   573.36   598.28   638.66
                              642.28   667.70   723.51   730.76   770.87
                              828.31   936.91   979.80  1039.45  1073.19
                             1110.68  1154.33  1200.90  1229.25  1242.75
                             1255.27  1266.93  1309.64  1336.92  1345.81
                             1382.55  1412.20  1417.51  1427.48  1491.12
                             1511.93  1515.21  1524.93  1538.94  1551.82
                             1567.88  1591.83  1604.42  1610.99  1642.49
                             1670.82  1683.76  1699.51  1749.76  1793.03
                             1823.75  1846.49  1865.95  1878.66  1890.48
                             1894.13  1905.20  1936.85  1949.26  1965.73
                             1971.76  1977.36  1993.54  1998.77  2017.20
                             2029.16  2040.51  2044.67  2080.01  2128.72
                             2131.52  2139.50  2144.64  2162.62  2170.16
                             2177.54  2191.13  2193.86  2198.67  2210.03
                             2217.79  2437.45  2579.61  4271.97  4336.38
                             4339.26  4345.34  4349.67  4370.20  4384.98
                             4392.09  4395.02  4407.37  4418.78  4422.94
                             4429.22  4431.01  4439.64  4440.89  4456.91
                             4469.18  4491.83  4495.22  4520.80  4581.61
                             4593.48  5009.16  5129.04

 Zero-point correction=                           0.380358 (Hartree/Particle)
 Thermal correction to Energy=                    0.400334
 Thermal correction to Enthalpy=                  0.401278
 Thermal correction to Gibbs Free Energy=         0.329780
 Sum of electronic and zero-point Energies=          -1188.704280
 Sum of electronic and thermal Energies=             -1188.684304
 Sum of electronic and thermal Enthalpies=           -1188.683360
 Sum of electronic and thermal Free Energies=        -1188.754858

                     E (Thermal)             CV                S
                      KCal/Mol        Cal/Mol-Kelvin    Cal/Mol-Kelvin
 Total                  251.213             75.666            150.479
 Electronic               0.000              0.000              0.000
 Translational            0.889              2.981             42.735
 Rotational               0.889              2.981             34.233
 Vibrational            249.436             69.704             73.511
 Vibration     1          0.593              1.987              7.665
 Vibration     2          0.593              1.986              6.596
 Vibration     3          0.594              1.983              5.748
 Vibration     4          0.597              1.972              4.348
 Vibration     5          0.600              1.962              3.860
 Vibration     6          0.604              1.950              3.467
 Vibration     7          0.607              1.939              3.226
 Vibration     8          0.607              1.937              3.191
 Vibration     9          0.627              1.874              2.392
 Vibration    10          0.631              1.862              2.288
 Vibration    11          0.632              1.859              2.264
 Vibration    12          0.638              1.841              2.138
 Vibration    13          0.641              1.830              2.071
 Vibration    14          0.645              1.817              1.994
 Vibration    15          0.671              1.739              1.634
 Vibration    16          0.676              1.721              1.570
 Vibration    17          0.689              1.684              1.448
 Vibration    18          0.694              1.669              1.402
 Vibration    19          0.701              1.649              1.346
 Vibration    20          0.708              1.629              1.294
 Vibration    21          0.734              1.557              1.126
 Vibration    22          0.749              1.516              1.046
 Vibration    23          0.765              1.473              0.968
 Vibration    24          0.779              1.436              0.906
 Vibration    25          0.803              1.374              0.814
 Vibration    26          0.806              1.369              0.807
 Vibration    27          0.822              1.330              0.754
 Vibration    28          0.858              1.244              0.651
 Vibration    29          0.863              1.232              0.639
 Vibration    30          0.891              1.171              0.574
 Vibration    31          0.932              1.084              0.493

 Optimization completed.
    -- Stationary point found.
 Normal termination of Gaussian 16 at Fri Dec 11 23:56:53 2020.

 ----------------------------------------------------------------------
 # B3LYP/6-311++G(d,p) empiricaldispersion=gd3bj scf=xqc pop=npa geom=c
 heck
 ----------------------------------------------------------------------

 ---------------------------------------
 CID_116614312_JID_8975_Energie_neutraal
 ---------------------------------------
 Structure from the checkpoint file:  "JID_8975.chk"
 Charge =  0 Multiplicity = 1

 SCF Done:  E(RB3LYP) =  -1189.34491938     A.U. after   15 cycles
 Normal termination of Gaussian 16 at Sat Dec 12 00:07:54 2020.

 ----------------------------------------------------------------------
 # B3LYP/6-311++G(d,p) empiricaldispersion=gd3bj scf=xqc pop=npa geom=c
 heck
 ----------------------------------------------------------------------

 -------------------------------------
 CID_116614312_JID_8975_Energie_kation
 -------------------------------------
 Structure from the checkpoint file:  "JID_8975.chk"
 Charge =  1 Multiplicity = 2

 SCF Done:  E(UB3LYP) =  -1189.02836263     A.U. after   29 cycles
 Normal termination of Gaussian 16 at Sat Dec 12 00:37:52 2020.
 Gaussian 16:  ES64L-G16RevA.03 25-Dec-2016

 ----------------------------------------------------------------------
 # B3LYP/6-311++G(d,p) empiricaldispersion=gd3bj scf=xqc pop=npa geom=c
 heck
 ----------------------------------------------------------------------

 ------------------------------------
 CID_116614312_JID_8975_Energie_anion
 ------------------------------------
 Structure from the checkpoint file:  "JID_8975.chk"
 Charge = -1 Multiplicity = 2

                         Standard orientation:
 ---------------------------------------------------------------------
 Center     Atomic      Atomic             Coordinates (Angstroms)
 Number     Number       Type             X           Y           Z
 ---------------------------------------------------------------------
      1          6           0        4.551913   -0.694819   -1.525975
      2         16           0        4.697692    0.174176    0.053356
      3          8           0        5.783091   -0.464865    0.815100
      4          8           0        4.731204    1.617400   -0.232536
      5          6           0        3.140759   -0.199103    0.910606
      6          6           0        1.897380    0.311627    0.190643
      7          6           0        0.644750    0.127930    1.042798
      8          6           0       -0.614293    0.595193    0.327880
      9          8           0       -0.556418    1.314136   -0.656234
     10          6           0       -1.945433    0.222348    0.965686
     11          6           0       -2.900430   -0.632042    0.085439
     12          6           0       -4.206281   -0.895755    0.873970
     13          6           0       -5.076556    0.352817    1.070296
     14          6           0       -5.396138    1.027780   -0.269245
     15          6           0       -4.117611    1.326128   -1.061171
     16          6           0       -3.262231    0.066935   -1.247199
     17          6           0       -2.241940   -1.995239   -0.195480
     18          7           0       -0.930993   -1.859014   -0.840670
     19          1           0        3.719292   -0.282302   -2.097668
     20          1           0        4.420144   -1.762991   -1.341876
     21          1           0        5.493207   -0.518180   -2.050965
     22          1           0        3.126614   -1.281939    1.072259
     23          1           0        3.276529    0.283710    1.885033
     24          1           0        2.023539    1.366771   -0.065792
     25          1           0        1.748302   -0.229259   -0.750234
     26          1           0        0.509465   -0.919677    1.330912
     27          1           0        0.725434    0.701394    1.980238
     28          1           0       -1.772342   -0.313842    1.906686
     29          1           0       -2.436790    1.166882    1.221175
     30          1           0       -4.791682   -1.644877    0.321116
     31          1           0       -3.963956   -1.346164    1.846134
     32          1           0       -4.565082    1.068481    1.727696
     33          1           0       -6.002591    0.073110    1.587451
     34          1           0       -5.970422    1.947632   -0.104199
     35          1           0       -6.037146    0.359016   -0.862526
     36          1           0       -3.525204    2.094310   -0.548152
     37          1           0       -4.369242    1.741909   -2.044294
     38          1           0       -2.356399    0.331424   -1.797397
     39          1           0       -3.824831   -0.655646   -1.857757
     40          1           0       -2.082304   -2.514333    0.758775
     41          1           0       -2.953513   -2.608480   -0.775337
     42          1           0       -0.504770   -2.776352   -0.955137
     43          1           0       -1.038730   -1.470485   -1.775284
 ---------------------------------------------------------------------

 SCF Done:  E(UB3LYP) =  -1189.34287706     A.U. after   32 cycles

 The electronic state is 2-A.
 Alpha  occ. eigenvalues --  -88.95681 -19.02498 -19.02481 -19.01543 -14.19969
 Alpha  occ. eigenvalues --  -10.16971 -10.12317 -10.12111 -10.09937 -10.09859
 Alpha  occ. eigenvalues --  -10.09147 -10.08870 -10.08544 -10.08341 -10.08255
 Alpha  occ. eigenvalues --  -10.08069 -10.07809 -10.07199  -8.02181  -5.98436
 Alpha  occ. eigenvalues --   -5.98338  -5.98284  -1.01783  -0.94987  -0.91444
 Alpha  occ. eigenvalues --   -0.79747  -0.75126  -0.73588  -0.69489  -0.68612
 Alpha  occ. eigenvalues --   -0.65812  -0.65400  -0.61885  -0.57040  -0.55067
 Alpha  occ. eigenvalues --   -0.52813  -0.50314  -0.49486  -0.46050  -0.43213
 Alpha  occ. eigenvalues --   -0.42012  -0.40987  -0.40820  -0.39459  -0.38734
 Alpha  occ. eigenvalues --   -0.38441  -0.37898  -0.37343  -0.35756  -0.35452
 Alpha  occ. eigenvalues --   -0.35088  -0.34252  -0.34087  -0.33449  -0.32624
 Alpha  occ. eigenvalues --   -0.31837  -0.30822  -0.29704  -0.29435  -0.27907
 Alpha  occ. eigenvalues --   -0.27716  -0.27334  -0.26506  -0.26086  -0.25445
 Alpha  occ. eigenvalues --   -0.25077  -0.24377  -0.23284  -0.22956  -0.21763
 Alpha  occ. eigenvalues --   -0.21566  -0.21400  -0.20342  -0.15620  -0.15404
 Alpha  occ. eigenvalues --    0.03394
 Alpha virt. eigenvalues --    0.05315   0.06098   0.06607   0.07193   0.07645
 Alpha virt. eigenvalues --    0.07865   0.08174   0.08759   0.09245   0.09740
 Alpha virt. eigenvalues --    0.10097   0.10374   0.10880   0.11034   0.11460

  Beta  occ. eigenvalues --  -88.95679 -19.02491 -19.02477 -19.01540 -14.19914
  Beta  occ. eigenvalues --  -10.16970 -10.12297 -10.12071 -10.09939 -10.09832
  Beta  occ. eigenvalues --  -10.09138 -10.08851 -10.08531 -10.08330 -10.08247
  Beta  occ. eigenvalues --  -10.08057 -10.07805 -10.07184  -8.02177  -5.98433
  Beta  occ. eigenvalues --   -5.98334  -5.98281  -1.01768  -0.94980  -0.91429
  Beta  occ. eigenvalues --   -0.79675  -0.75092  -0.73562  -0.69458  -0.68576
  Beta  occ. eigenvalues --   -0.65789  -0.65362  -0.61854  -0.56968  -0.55030
  Beta  occ. eigenvalues --   -0.52781  -0.50270  -0.49443  -0.46021  -0.43180
  Beta  occ. eigenvalues --   -0.41984  -0.40960  -0.40783  -0.39433  -0.38705
  Beta  occ. eigenvalues --   -0.38417  -0.37869  -0.37301  -0.35709  -0.35432
  Beta  occ. eigenvalues --   -0.35062  -0.34230  -0.34059  -0.33411  -0.32590
  Beta  occ. eigenvalues --   -0.31811  -0.30799  -0.29679  -0.29411  -0.27870
  Beta  occ. eigenvalues --   -0.27696  -0.27305  -0.26476  -0.26066  -0.25425
  Beta  occ. eigenvalues --   -0.25062  -0.24363  -0.23276  -0.22939  -0.21738
  Beta  occ. eigenvalues --   -0.21558  -0.21376  -0.20326  -0.15610  -0.15354
  Beta virt. eigenvalues --    0.05386   0.06217   0.06297   0.07029   0.07460
  Beta virt. eigenvalues --    0.07802   0.08254   0.08664   0.09056   0.09461
  Beta virt. eigenvalues --    0.10049   0.10078   0.10466   0.11127   0.11270

 Mulliken charges and spin densities:
               1          2
     1  C   -0.053810  -0.553150
     2  S    0.540527  -0.131185
     3  O   -0.205053   0.009443
     4  O   -0.240004   0.020908
     5  C   -0.387802  -0.636515
     6  C   -0.614261   0.471874
     7  C    0.469855  -1.016979
     8  C    0.223688   0.065598
     9  O   -0.230099   0.005939
    10  C   -0.493929   0.250375
    11  C    0.259289   0.554846
    12  C    0.060076  -0.321862
    13  C   -0.065096  -0.256600
    14  C   -0.011242  -0.545596
    15  C   -0.443161   0.179828
    16  C   -0.235478  -0.192059
    17  C    0.723488  -1.381237
    18  N   -0.530274   0.106978
    19  H   -0.088195   0.300740
    20  H   -0.156822   0.371897
    21  H    0.061838   0.153661
    22  H   -0.068350   0.335838
    23  H    0.209674   0.008786
    24  H    0.166144   0.059675
    25  H    0.504898  -0.409296
    26  H   -0.035461   0.209840
    27  H    0.039029   0.143468
    28  H   -0.037156   0.234753
    29  H    0.195210  -0.040625
    30  H    0.003670   0.150189
    31  H   -0.030483   0.170769
    32  H    0.003783   0.124621
    33  H   -0.116669   0.302290
    34  H    0.038498   0.112370
    35  H    0.066890   0.047301
    36  H    0.098675   0.073698
    37  H    0.121599   0.035987
    38  H    0.120837   0.067629
    39  H   -0.076912   0.252850
    40  H   -0.250482   0.433407
    41  H   -0.113530   0.272036
    42  H   -0.431707   0.734729
    43  H    0.008309   0.222780
 Sum of Mulliken charges =  -1.00000   1.00000

 Dipole moment (field-independent basis, Debye):
    X=             -3.4682    Y=              3.9844    Z=              1.0013  Tot=              5.3764
 Quadrupole moment (field-independent basis, Debye-Ang):
   XX=           -229.6443   YY=           -173.7670   ZZ=           -149.9554
   XY=             -5.4450   XZ=             -2.7378   YZ=             -0.5093

 Summary of Natural Population Analysis:

                                       Natural Population
                Natural  -----------------------------------------------
    Atom  No    Charge         Core      Valence    Rydberg      Total
 -----------------------------------------------------------------------
      C    1   -0.39476      0.99961     2.38748    0.00766     3.39476
      S    2    1.02025      4.99931     1.88605    0.09439     6.97975
      O    3   -0.47230      0.99991     3.46654    0.00585     4.47230
      O    4   -0.47163      0.99991     3.46607    0.00565     4.47163
      C    5   -0.28453      0.99958     2.27318    0.01177     3.28453
      C    6   -0.20674      0.99961     2.19582    0.01130     3.20674
      C    7   -0.23061      0.99955     2.22288    0.00817     3.23061
      C    8    0.31258      0.99965     1.66501    0.02276     2.68742
      O    9   -0.30182      0.99987     3.29608    0.00587     4.30182
      C   10   -0.23910      0.99953     2.22837    0.01120     3.23910
      C   11   -0.03377      0.99955     2.02019    0.01404     3.03377
      C   12   -0.18858      0.99959     2.17867    0.01033     3.18858
      C   13   -0.19024      0.99963     2.18226    0.00835     3.19024
      C   14   -0.18820      0.99963     2.18176    0.00681     3.18820
      C   15   -0.18910      0.99963     2.18211    0.00736     3.18910
      C   16   -0.19793      0.99958     2.18742    0.01093     3.19793
      C   17   -0.08310      0.99956     2.07013    0.01340     3.08310
      N   18   -0.42315      0.99977     2.91121    0.01218     3.92315
      H   19    0.11710      0.00000     0.38181    0.00109     0.38290
      H   20    0.11860      0.00000     0.37986    0.00154     0.38140
      H   21    0.11758      0.00000     0.38153    0.00089     0.38242
      H   22    0.11650      0.00000     0.38216    0.00134     0.38350
      H   23    0.11431      0.00000     0.38461    0.00107     0.38569
      H   24    0.11303      0.00000     0.38565    0.00133     0.38697
      H   25    0.10711      0.00000     0.39078    0.00211     0.39289
      H   26    0.11550      0.00000     0.38297    0.00153     0.38450
      H   27    0.10445      0.00000     0.39457    0.00098     0.39555
      H   28    0.10449      0.00000     0.39430    0.00122     0.39551
      H   29    0.11201      0.00000     0.38672    0.00126     0.38799
      H   30    0.09849      0.00000     0.40015    0.00136     0.40151
      H   31    0.10075      0.00000     0.39819    0.00106     0.39925
      H   32    0.09239      0.00000     0.40643    0.00118     0.40761
      H   33    0.09880      0.00000     0.40028    0.00092     0.40120
      H   34    0.09620      0.00000     0.40286    0.00094     0.40380
      H   35    0.09172      0.00000     0.40708    0.00120     0.40828
      H   36    0.09681      0.00000     0.40192    0.00126     0.40319
      H   37    0.09757      0.00000     0.40157    0.00085     0.40243
      H   38    0.11313      0.00000     0.38553    0.00134     0.38687
      H   39    0.09543      0.00000     0.40334    0.00123     0.40457
      H   40    0.09309      0.00000     0.40519    0.00172     0.40691
      H   41    0.08404      0.00000     0.41416    0.00180     0.41596
      H   42    0.18660      0.00000     0.30481    0.00859     0.31340
      H   43    0.17702      0.00000     0.32063    0.00235     0.32298
 =======================================================================
   * Total *   -0.00000     21.99346    52.69834    0.30820    75.00000

 Normal termination of Gaussian 16 at Sat Dec 12 01:10:35 2020.
