 Gaussian 16, Revision A.03,

 -----------------------------------------------------------
 # opt freq B3LYP/6-31G(d) empiricaldispersion=gd3bj scf=xqc
 -----------------------------------------------------------

 ------------------------------
 CID_64188221_JID_9618_neutraal
 ------------------------------
 Symbolic Z-matrix:
 Charge =  0 Multiplicity = 1

 SCF Done:  E(RB3LYP) =  -884.538323716     A.U. after   14 cycles
 SCF Done:  E(RB3LYP) =  -884.544483522     A.U. after   12 cycles
 SCF Done:  E(RB3LYP) =  -884.545597612     A.U. after   12 cycles
 SCF Done:  E(RB3LYP) =  -884.546860697     A.U. after   11 cycles
 SCF Done:  E(RB3LYP) =  -884.547215297     A.U. after   11 cycles
 SCF Done:  E(RB3LYP) =  -884.547562050     A.U. after   12 cycles
 SCF Done:  E(RB3LYP) =  -884.547897138     A.U. after   11 cycles
 SCF Done:  E(RB3LYP) =  -884.548303405     A.U. after   12 cycles
 SCF Done:  E(RB3LYP) =  -884.548470648     A.U. after   10 cycles
 SCF Done:  E(RB3LYP) =  -884.549173034     A.U. after   12 cycles
 SCF Done:  E(RB3LYP) =  -884.549968144     A.U. after   10 cycles
 SCF Done:  E(RB3LYP) =  -884.549963001     A.U. after   10 cycles
 SCF Done:  E(RB3LYP) =  -884.549969150     A.U. after   10 cycles
 SCF Done:  E(RB3LYP) =  -884.549969240     A.U. after    7 cycles
 SCF Done:  E(RB3LYP) =  -884.549969284     A.U. after    7 cycles
 Optimization completed.
    -- Stationary point found.
 Normal termination of Gaussian 16 at Sun Dec 13 20:55:40 2020.

 --------------------------------------------------------------------
 #N Geom=AllCheck Guess=TCheck SCRF=Check GenChk RB3LYP/6-31G(d) Freq
 --------------------------------------------------------------------

 Structure from the checkpoint file:  "JID_9618.chk"
 ------------------------------
 CID_64188221_JID_9618_neutraal
 ------------------------------
 Charge =  0 Multiplicity = 1

 SCF Done:  E(RB3LYP) =  -884.549969285     A.U. after    1 cycles

  Exact polarizability: 195.125  14.255 144.050 -12.889  14.429 149.200
 Approx polarizability: 271.948  31.452 215.243 -16.831  33.534 239.464

                      1                      2                      3
                      A                      A                      A
 Frequencies --     23.7567                37.6623                51.7651
 Red. masses --      3.6996                 4.0095                 3.8733
 Frc consts  --      0.0012                 0.0034                 0.0061
 IR Inten    --      0.2922                 0.5567                 0.4803

                      4                      5                      6
                      A                      A                      A
 Frequencies --     73.1220                88.8727               105.8555
 Red. masses --      2.6331                 3.0661                 3.2240
 Frc consts  --      0.0083                 0.0143                 0.0213
 IR Inten    --      3.0498                 3.1482                 1.7864

                      7                      8                      9
                      A                      A                      A
 Frequencies --    142.2302               152.2906               170.7063
 Red. masses --      2.5414                 2.6768                 1.7836
 Frc consts  --      0.0303                 0.0366                 0.0306
 IR Inten    --      1.0618                 0.8566                 1.5336

                     10                     11                     12
                      A                      A                      A
 Frequencies --    184.3849               201.5417               243.4916
 Red. masses --      4.4802                 3.5509                 2.2579
 Frc consts  --      0.0897                 0.0850                 0.0789
 IR Inten    --      1.4732                 0.0585                 1.7495

                     13                     14                     15
                      A                      A                      A
 Frequencies --    263.7484               277.5954               289.3086
 Red. masses --      1.9365                 2.1524                 2.6582
 Frc consts  --      0.0794                 0.0977                 0.1311
 IR Inten    --      0.9630                 1.9916                 0.3434

                     16                     17                     18
                      A                      A                      A
 Frequencies --    337.6401               351.2573               372.6883
 Red. masses --      4.2278                 2.9574                 1.3873
 Frc consts  --      0.2840                 0.2150                 0.1135
 IR Inten    --      4.8199                34.7344               106.7533

                     19                     20                     21
                      A                      A                      A
 Frequencies --    379.2183               407.4463               435.8280
 Red. masses --      3.0523                 2.5420                 4.7354
 Frc consts  --      0.2586                 0.2486                 0.5300
 IR Inten    --      9.5082                 4.6706                 1.0462

                     22                     23                     24
                      A                      A                      A
 Frequencies --    485.1699               512.4620               542.3495
 Red. masses --      4.3989                 4.1245                 3.5003
 Frc consts  --      0.6101                 0.6382                 0.6066
 IR Inten    --      0.9919                 2.7667                 3.3510

                     25                     26                     27
                      A                      A                      A
 Frequencies --    559.1088               584.2837               590.3236
 Red. masses --      5.1591                 4.0833                 5.1311
 Frc consts  --      0.9502                 0.8213                 1.0535
 IR Inten    --     12.3270                 0.9671                 9.0152

                     28                     29                     30
                      A                      A                      A
 Frequencies --    655.7887               697.4961               736.5603
 Red. masses --      5.3796                 3.7239                 5.0677
 Frc consts  --      1.3631                 1.0674                 1.6199
 IR Inten    --     10.0576                16.1426                 2.0978

                     31                     32                     33
                      A                      A                      A
 Frequencies --    761.5692               774.1761               781.0284
 Red. masses --      4.5330                 3.4522                 4.6011
 Frc consts  --      1.5490                 1.2190                 1.6537
 IR Inten    --     20.8994                24.6603                 2.0512

                     34                     35                     36
                      A                      A                      A
 Frequencies --    798.6121               824.6463               828.0461
 Red. masses --      3.0166                 1.5521                 2.9259
 Frc consts  --      1.1336                 0.6219                 1.1820
 IR Inten    --      2.6558                18.4164                14.9623

                     37                     38                     39
                      A                      A                      A
 Frequencies --    840.2387               862.8980               902.6641
 Red. masses --      1.7909                 2.5768                 2.5824
 Frc consts  --      0.7449                 1.1304                 1.2397
 IR Inten    --      3.6122                 6.8369                17.5592

                     40                     41                     42
                      A                      A                      A
 Frequencies --    922.2521               938.5743               945.6532
 Red. masses --      1.3035                 1.3637                 3.1177
 Frc consts  --      0.6532                 0.7078                 1.6427
 IR Inten    --      7.6512                 2.4702                 8.2161

                     43                     44                     45
                      A                      A                      A
 Frequencies --    960.0743               968.3510              1007.5215
 Red. masses --      3.0813                 2.7392                 2.3224
 Frc consts  --      1.6734                 1.5134                 1.3890
 IR Inten    --     19.3920                16.2662                 5.8326

                     46                     47                     48
                      A                      A                      A
 Frequencies --   1022.1747              1029.0096              1046.7876
 Red. masses --      2.3127                 3.0780                 4.3547
 Frc consts  --      1.4237                 1.9203                 2.8114
 IR Inten    --      9.6450                24.1837                40.8051

                     49                     50                     51
                      A                      A                      A
 Frequencies --   1060.4046              1076.2535              1087.6383
 Red. masses --      4.1528                 5.1560                 3.1074
 Frc consts  --      2.7513                 3.5188                 2.1658
 IR Inten    --     46.8156                23.7868                52.2189

                     52                     53                     54
                      A                      A                      A
 Frequencies --   1096.8938              1101.6310              1149.9585
 Red. masses --      1.9492                 2.2401                 1.1508
 Frc consts  --      1.3818                 1.6017                 0.8967
 IR Inten    --     24.3203                 6.9546                 3.9344

                     55                     56                     57
                      A                      A                      A
 Frequencies --   1166.4200              1182.5484              1185.7602
 Red. masses --      1.8398                 1.4696                 1.2689
 Frc consts  --      1.4748                 1.2109                 1.0512
 IR Inten    --     78.1187                 8.6578                 5.5374

                     58                     59                     60
                      A                      A                      A
 Frequencies --   1186.8468              1203.1689              1219.9371
 Red. masses --      1.2701                 1.3079                 1.4387
 Frc consts  --      1.0541                 1.1155                 1.2616
 IR Inten    --      2.1663                 3.7224                11.7198

                     61                     62                     63
                      A                      A                      A
 Frequencies --   1222.7971              1238.5772              1251.9189
 Red. masses --      1.3486                 1.2477                 1.2147
 Frc consts  --      1.1880                 1.1277                 1.1217
 IR Inten    --      0.8412                 1.8595                 1.8909

                     64                     65                     66
                      A                      A                      A
 Frequencies --   1264.9544              1270.9080              1286.6539
 Red. masses --      1.7608                 1.6999                 1.2389
 Frc consts  --      1.6600                 1.6177                 1.2084
 IR Inten    --    115.6994                33.0418                15.0462

                     67                     68                     69
                      A                      A                      A
 Frequencies --   1295.7597              1312.6256              1318.8457
 Red. masses --      1.4160                 1.4622                 3.0237
 Frc consts  --      1.4007                 1.4844                 3.0987
 IR Inten    --      4.7693                18.5355               206.9139

                     70                     71                     72
                      A                      A                      A
 Frequencies --   1324.6651              1328.9158              1337.1216
 Red. masses --      1.8253                 1.5348                 1.4804
 Frc consts  --      1.8871                 1.5969                 1.5594
 IR Inten    --     98.2903                 4.0740                24.3033

                     73                     74                     75
                      A                      A                      A
 Frequencies --   1354.8323              1362.4302              1376.6405
 Red. masses --      1.6132                 2.2048                 1.5921
 Frc consts  --      1.7446                 2.4113                 1.7777
 IR Inten    --     12.4105                 4.2982                 2.3996

                     76                     77                     78
                      A                      A                      A
 Frequencies --   1384.0085              1404.7165              1436.5228
 Red. masses --      1.6501                 1.5546                 1.7655
 Frc consts  --      1.8623                 1.8074                 2.1465
 IR Inten    --     17.4434                 1.7501                84.9043

                     79                     80                     81
                      A                      A                      A
 Frequencies --   1468.4449              1496.0601              1507.4019
 Red. masses --      1.8384                 1.2311                 1.3978
 Frc consts  --      2.3357                 1.6234                 1.8713
 IR Inten    --     28.2466                14.0463                 7.6052

                     82                     83                     84
                      A                      A                      A
 Frequencies --   1512.5141              1514.7831              1521.1010
 Red. masses --      1.0872                 1.0591                 1.0478
 Frc consts  --      1.4654                 1.4318                 1.4284
 IR Inten    --      2.7652                 6.0628                 5.8690

                     85                     86                     87
                      A                      A                      A
 Frequencies --   1526.3191              1534.9230              1540.1461
 Red. masses --      1.0994                 1.0759                 1.0526
 Frc consts  --      1.5090                 1.4934                 1.4710
 IR Inten    --      5.4364                49.7048                 3.9898

                     88                     89                     90
                      A                      A                      A
 Frequencies --   1541.0531              1562.1414              1634.3662
 Red. masses --      1.1003                 2.7360                 6.5876
 Frc consts  --      1.5395                 3.9337                10.3675
 IR Inten    --      1.6504               140.5523                 8.2856

                     91                     92                     93
                      A                      A                      A
 Frequencies --   1667.7605              2964.0736              3028.3442
 Red. masses --      6.1637                 1.0833                 1.0347
 Frc consts  --     10.1009                 5.6074                 5.5910
 IR Inten    --     22.2990                53.6569                61.3881

                     94                     95                     96
                      A                      A                      A
 Frequencies --   3031.9921              3069.5558              3074.8019
 Red. masses --      1.0400                 1.0849                 1.0598
 Frc consts  --      5.6330                 6.0225                 5.9035
 IR Inten    --     51.3281                16.0255                23.2518

                     97                     98                     99
                      A                      A                      A
 Frequencies --   3087.5682              3088.4303              3100.7626
 Red. masses --      1.0731                 1.1065                 1.0633
 Frc consts  --      6.0270                 6.2182                 6.0236
 IR Inten    --     23.4694                42.3171                16.9040

                    100                    101                    102
                      A                      A                      A
 Frequencies --   3112.2247              3119.9491              3128.5958
 Red. masses --      1.0952                 1.1051                 1.0885
 Frc consts  --      6.2501                 6.3378                 6.2773
 IR Inten    --     40.1477                32.2164                51.4108

                    103                    104                    105
                      A                      A                      A
 Frequencies --   3141.7889              3151.4092              3156.0055
 Red. masses --      1.0905                 1.1029                 1.1049
 Frc consts  --      6.3423                 6.4536                 6.4840
 IR Inten    --     38.2627                32.6625                27.9760

                    106                    107                    108
                      A                      A                      A
 Frequencies --   3162.7350              3178.0721              3181.6892
 Red. masses --      1.1000                 1.0939                 1.0894
 Frc consts  --      6.4829                 6.5094                 6.4974
 IR Inten    --     24.6853                11.3221                 8.2957

                    109                    110                    111
                      A                      A                      A
 Frequencies --   3227.2412              3229.2526              3732.9445
 Red. masses --      1.0906                 1.0905                 1.0660
 Frc consts  --      6.6924                 6.7000                 8.7523
 IR Inten    --     11.6172                 0.7275                 8.7421

 - Thermochemistry -
 -------------------
 Temperature   298.150 Kelvin.  Pressure   1.00000 Atm.
 Atom     1 has atomic number  6 and mass  12.00000

 Molecular mass:   264.13616 amu.
 Principal axes and moments of inertia in atomic units:
                           1         2         3
     Eigenvalues --  2818.511557848.370607939.35754
           X            0.99992   0.00808  -0.00925
           Y           -0.00369   0.91596   0.40126
           Z            0.01171  -0.40120   0.91592
 This molecule is an asymmetric top.
 Rotational symmetry number  1.
 Warning -- assumption of classical behavior for rotation
           may cause significant error
 Rotational temperatures (Kelvin)      0.03073     0.01104     0.01091
 Rotational constants (GHZ):           0.64032     0.22995     0.22732
 Zero-point vibrational energy     877180.0 (Joules/Mol)
                                  209.65104 (Kcal/Mol)
 Warning -- explicit consideration of  27 degrees of freedom as
           vibrations may cause significant error
 Vibrational temperatures:     34.18    54.19    74.48   105.21   127.87
          (Kelvin)            152.30   204.64   219.11   245.61   265.29
                              289.97   350.33   379.48   399.40   416.25
                              485.79   505.38   536.22   545.61   586.22
                              627.06   698.05   737.32   780.32   804.43
                              840.65   849.34   943.53  1003.54  1059.75
                             1095.73  1113.87  1123.73  1149.02  1186.48
                             1191.37  1208.92  1241.52  1298.73  1326.92
                             1350.40  1360.58  1381.33  1393.24  1449.60
                             1470.68  1480.52  1506.09  1525.69  1548.49
                             1564.87  1578.19  1585.00  1654.53  1678.22
                             1701.42  1706.04  1707.61  1731.09  1755.22
                             1759.33  1782.04  1801.23  1819.99  1828.55
                             1851.21  1864.31  1888.58  1897.52  1905.90
                             1912.01  1923.82  1949.30  1960.23  1980.68
                             1991.28  2021.07  2066.84  2112.76  2152.50
                             2168.82  2176.17  2179.44  2188.53  2196.03
                             2208.41  2215.93  2217.23  2247.57  2351.49
                             2399.54  4264.64  4357.11  4362.36  4416.41
                             4423.95  4442.32  4443.56  4461.31  4477.80
                             4488.91  4501.35  4520.33  4534.17  4540.79
                             4550.47  4572.54  4577.74  4643.28  4646.17
                             5370.87

 Zero-point correction=                           0.334100 (Hartree/Particle)
 Thermal correction to Energy=                    0.351692
 Thermal correction to Enthalpy=                  0.352636
 Thermal correction to Gibbs Free Energy=         0.287631
 Sum of electronic and zero-point Energies=           -884.215869
 Sum of electronic and thermal Energies=              -884.198277
 Sum of electronic and thermal Enthalpies=            -884.197333
 Sum of electronic and thermal Free Energies=         -884.262338

                     E (Thermal)             CV                S
                      KCal/Mol        Cal/Mol-Kelvin    Cal/Mol-Kelvin
 Total                  220.690             68.113            136.814
 Electronic               0.000              0.000              0.000
 Translational            0.889              2.981             42.613
 Rotational               0.889              2.981             33.529
 Vibrational            218.912             62.151             60.672
 Vibration     1          0.593              1.985              6.292
 Vibration     2          0.594              1.982              5.378
 Vibration     3          0.596              1.977              4.749
 Vibration     4          0.599              1.967              4.068
 Vibration     5          0.602              1.957              3.685
 Vibration     6          0.605              1.945              3.344
 Vibration     7          0.616              1.911              2.774
 Vibration     8          0.619              1.900              2.643
 Vibration     9          0.626              1.879              2.428
 Vibration    10          0.631              1.861              2.284
 Vibration    11          0.638              1.838              2.119
 Vibration    12          0.659              1.774              1.777
 Vibration    13          0.670              1.739              1.637
 Vibration    14          0.679              1.715              1.548
 Vibration    15          0.686              1.694              1.478
 Vibration    16          0.718              1.600              1.223
 Vibration    17          0.728              1.573              1.161
 Vibration    18          0.744              1.528              1.069
 Vibration    19          0.749              1.514              1.042
 Vibration    20          0.772              1.454              0.936
 Vibration    21          0.796              1.392              0.840
 Vibration    22          0.841              1.283              0.696
 Vibration    23          0.868              1.222              0.628
 Vibration    24          0.897              1.156              0.560
 Vibration    25          0.915              1.120              0.526
 Vibration    26          0.941              1.065              0.477
 Vibration    27          0.948              1.052              0.467

 Optimization completed.
    -- Stationary point found.
 Normal termination of Gaussian 16 at Sun Dec 13 21:17:30 2020.

 ----------------------------------------------------------------------
 # B3LYP/6-311++G(d,p) empiricaldispersion=gd3bj scf=xqc pop=npa geom=c
 heck
 ----------------------------------------------------------------------

 --------------------------------------
 CID_64188221_JID_9618_Energie_neutraal
 --------------------------------------
 Structure from the checkpoint file:  "JID_9618.chk"
 Charge =  0 Multiplicity = 1

 SCF Done:  E(RB3LYP) =  -884.802558956     A.U. after   15 cycles
 Normal termination of Gaussian 16 at Sun Dec 13 21:27:03 2020.

 ----------------------------------------------------------------------
 # B3LYP/6-311++G(d,p) empiricaldispersion=gd3bj scf=xqc pop=npa geom=c
 heck
 ----------------------------------------------------------------------

 ------------------------------------
 CID_64188221_JID_9618_Energie_kation
 ------------------------------------
 Structure from the checkpoint file:  "JID_9618.chk"
 Charge =  1 Multiplicity = 2

 SCF Done:  E(UB3LYP) =  -884.510762020     A.U. after   26 cycles
 Normal termination of Gaussian 16 at Sun Dec 13 21:49:13 2020.
 Gaussian 16:  ES64L-G16RevA.03 25-Dec-2016

 ----------------------------------------------------------------------
 # B3LYP/6-311++G(d,p) empiricaldispersion=gd3bj scf=xqc pop=npa geom=c
 heck
 ----------------------------------------------------------------------

 -----------------------------------
 CID_64188221_JID_9618_Energie_anion
 -----------------------------------
 Structure from the checkpoint file:  "JID_9618.chk"
 Charge = -1 Multiplicity = 2

                         Standard orientation:
 ---------------------------------------------------------------------
 Center     Atomic      Atomic             Coordinates (Angstroms)
 Number     Number       Type             X           Y           Z
 ---------------------------------------------------------------------
      1          6           0       -4.530859    0.282343    1.692175
      2          8           0       -3.847592   -0.154705    0.528720
      3          6           0       -2.584997    0.315664    0.318296
      4          6           0       -1.949215   -0.118851   -0.865766
      5          6           0       -0.667132    0.322555   -1.166007
      6          6           0        0.029607    1.185745   -0.306788
      7          6           0       -0.619801    1.628320    0.845445
      8          6           0       -1.908866    1.195241    1.166557
      9          6           0        1.431399    1.657227   -0.638729
     10          6           0        2.602424    0.690629   -0.395388
     11          6           0        2.546013   -0.713511   -1.066087
     12          6           0        3.070824   -1.605946    0.078725
     13          6           0        1.941446   -1.835499    1.106847
     14          6           0        1.924132   -0.460162    1.835107
     15          6           0        3.007158    0.309644    1.052230
     16          8           0        3.970770   -0.729876    0.790270
     17          8           0        1.534566    1.991737   -2.029077
     18          8           0       -2.600913   -0.926367   -1.764484
     19          6           0       -2.800640   -2.272188   -1.328584
     20          1           0       -5.508193   -0.201745    1.664036
     21          1           0       -4.663750    1.371832    1.692434
     22          1           0       -4.001118   -0.016610    2.606147
     23          1           0       -0.226040    0.003480   -2.103325
     24          1           0       -0.113404    2.319157    1.515063
     25          1           0       -2.382617    1.560879    2.069847
     26          1           0        1.628559    2.553648   -0.025742
     27          1           0        3.467134    1.222075   -0.806726
     28          1           0        1.540634   -1.005091   -1.374448
     29          1           0        3.194192   -0.753432   -1.944529
     30          1           0        3.612580   -2.500316   -0.231935
     31          1           0        0.985779   -2.071512    0.628421
     32          1           0        2.193614   -2.649347    1.792614
     33          1           0        0.944622    0.014832    1.825497
     34          1           0        2.245412   -0.563989    2.875714
     35          1           0        3.489066    1.116738    1.607620
     36          1           0        0.755189    2.525595   -2.251545
     37          1           0       -1.838868   -2.752305   -1.102363
     38          1           0       -3.447895   -2.314561   -0.447274
     39          1           0       -3.278505   -2.792901   -2.161130
 ---------------------------------------------------------------------

 SCF Done:  E(UB3LYP) =  -884.792627567     A.U. after   33 cycles
 SCF Done:  E(UB3LYP) =  -884.792627567     a.u. after    1 cycles

 The electronic state is 2-A.
 Alpha  occ. eigenvalues --  -19.06629 -19.05230 -19.04139 -19.03329 -10.14817
 Alpha  occ. eigenvalues --  -10.14472 -10.13990 -10.13261 -10.13258 -10.12768
 Alpha  occ. eigenvalues --  -10.12597 -10.09135 -10.09037 -10.08750 -10.08696
 Alpha  occ. eigenvalues --  -10.08620 -10.07911 -10.07897 -10.07454  -0.98748
 Alpha  occ. eigenvalues --   -0.96293  -0.96205  -0.94351  -0.77089  -0.71847
 Alpha  occ. eigenvalues --   -0.68565  -0.67058  -0.66565  -0.65873  -0.62366
 Alpha  occ. eigenvalues --   -0.60215  -0.57688  -0.52385  -0.51904  -0.50022
 Alpha  occ. eigenvalues --   -0.48568  -0.46810  -0.45052  -0.43866  -0.43115
 Alpha  occ. eigenvalues --   -0.41701  -0.40560  -0.38601  -0.38406  -0.37885
 Alpha  occ. eigenvalues --   -0.36766  -0.36431  -0.35481  -0.35123  -0.33200
 Alpha  occ. eigenvalues --   -0.32882  -0.32320  -0.30985  -0.30552  -0.29326
 Alpha  occ. eigenvalues --   -0.28985  -0.28758  -0.27169  -0.26808  -0.26107
 Alpha  occ. eigenvalues --   -0.25608  -0.24437  -0.24266  -0.23589  -0.22793
 Alpha  occ. eigenvalues --   -0.21474  -0.20106  -0.19356  -0.17822  -0.16120
 Alpha  occ. eigenvalues --   -0.13267   0.03927
 Alpha virt. eigenvalues --    0.05976   0.06033   0.06883   0.07295   0.07629
 Alpha virt. eigenvalues --    0.07808   0.08215   0.08466   0.09165   0.09407
 Alpha virt. eigenvalues --    0.09962   0.10267   0.10806   0.11067   0.11367

  Beta  occ. eigenvalues --  -19.06618 -19.05227 -19.04130 -19.03329 -10.14815
  Beta  occ. eigenvalues --  -10.14464 -10.13990 -10.13257 -10.13252 -10.12750
  Beta  occ. eigenvalues --  -10.12535 -10.09137 -10.09036 -10.08734 -10.08691
  Beta  occ. eigenvalues --  -10.08600 -10.07902 -10.07892 -10.07444  -0.98729
  Beta  occ. eigenvalues --   -0.96282  -0.96200  -0.94331  -0.77074  -0.71834
  Beta  occ. eigenvalues --   -0.68547  -0.67037  -0.66543  -0.65857  -0.62309
  Beta  occ. eigenvalues --   -0.60188  -0.57649  -0.52345  -0.51879  -0.49996
  Beta  occ. eigenvalues --   -0.48551  -0.46791  -0.45021  -0.43829  -0.43084
  Beta  occ. eigenvalues --   -0.41680  -0.40536  -0.38578  -0.38394  -0.37869
  Beta  occ. eigenvalues --   -0.36741  -0.36403  -0.35444  -0.35098  -0.33150
  Beta  occ. eigenvalues --   -0.32867  -0.32300  -0.30968  -0.30536  -0.29304
  Beta  occ. eigenvalues --   -0.28967  -0.28731  -0.27154  -0.26784  -0.26084
  Beta  occ. eigenvalues --   -0.25597  -0.24421  -0.24224  -0.23574  -0.22776
  Beta  occ. eigenvalues --   -0.21461  -0.20090  -0.19342  -0.17817  -0.16106
  Beta  occ. eigenvalues --   -0.13253
  Beta virt. eigenvalues --    0.05852   0.06542   0.06870   0.07181   0.07346
  Beta virt. eigenvalues --    0.07980   0.08026   0.08537   0.08931   0.09345
  Beta virt. eigenvalues --    0.09781   0.10376   0.10537   0.11170   0.11267

 Mulliken charges and spin densities:
               1          2
     1  C    1.311575  -1.638993
     2  O   -0.245120   0.074603
     3  C   -0.244910  -0.219094
     4  C   -1.379598   0.596571
     5  C   -0.777781   0.464060
     6  C    1.790080  -0.318755
     7  C    0.033969  -0.377226
     8  C    0.408135  -0.430742
     9  C    0.397397  -1.116108
    10  C    0.344500  -0.191321
    11  C    0.035399  -0.392864
    12  C   -0.455925   0.612415
    13  C    0.087263  -0.558183
    14  C   -0.057131  -0.193304
    15  C   -0.505112   0.067356
    16  O   -0.106817  -0.015576
    17  O   -0.158182   0.000153
    18  O   -0.146613   0.011361
    19  C    0.218474  -0.498168
    20  H   -0.594995   0.777965
    21  H   -0.325878   0.482745
    22  H   -0.437053   0.607348
    23  H    0.160250   0.071053
    24  H   -0.732262   0.898886
    25  H   -0.615994   0.859250
    26  H    0.013569   0.196749
    27  H    0.218148   0.022773
    28  H    0.112797  -0.028482
    29  H    0.132774   0.038391
    30  H   -0.001346   0.229297
    31  H    0.128750  -0.042741
    32  H    0.066219   0.107240
    33  H    0.484794  -0.342543
    34  H   -0.096536   0.288317
    35  H   -0.082245   0.304460
    36  H    0.170414   0.074936
    37  H   -0.144761   0.258170
    38  H   -0.013025   0.184762
    39  H    0.006776   0.135238
 Sum of Mulliken charges =  -1.00000   1.00000

 Dipole moment (field-independent basis, Debye):
    X=              5.6874    Y=             -1.9668    Z=             -5.4395  Tot=              8.1119
 Quadrupole moment (field-independent basis, Debye-Ang):
   XX=           -211.4904   YY=           -153.1671   ZZ=           -165.5558
   XY=              2.3126   XZ=             15.2288   YZ=             -5.2428

 Summary of Natural Population Analysis:

                                       Natural Population
                Natural  -----------------------------------------------
    Atom  No    Charge         Core      Valence    Rydberg      Total
 -----------------------------------------------------------------------
      C    1   -0.10056      0.99960     2.09184    0.00913     3.10056
      O    2   -0.27141      0.99986     3.26078    0.01077     4.27141
      C    3    0.14717      0.99934     1.83989    0.01360     2.85283
      C    4    0.13541      0.99934     1.85008    0.01518     2.86459
      C    5   -0.11527      0.99946     2.10692    0.00888     3.11527
      C    6   -0.04901      0.99948     2.03770    0.01183     3.04901
      C    7   -0.09631      0.99952     2.08576    0.01103     3.09631
      C    8   -0.13437      0.99952     2.12520    0.00965     3.13437
      C    9    0.06342      0.99948     1.92255    0.01455     2.93658
      C   10   -0.12173      0.99955     2.10886    0.01332     3.12173
      C   11   -0.20101      0.99960     2.19359    0.00782     3.20101
      C   12    0.05758      0.99958     1.92781    0.01502     2.94242
      C   13   -0.20240      0.99963     2.19450    0.00828     3.20240
      C   14   -0.20762      0.99961     2.19951    0.00850     3.20762
      C   15    0.06282      0.99955     1.92192    0.01571     2.93718
      O   16   -0.30614      0.99991     3.29855    0.00768     4.30614
      O   17   -0.37159      0.99990     3.36584    0.00585     4.37159
      O   18   -0.28614      0.99986     3.27654    0.00974     4.28614
      C   19   -0.09627      0.99959     2.08892    0.00776     3.09627
      H   20    0.09601      0.00000     0.40230    0.00168     0.40399
      H   21    0.08751      0.00000     0.41018    0.00231     0.41249
      H   22    0.08820      0.00000     0.40916    0.00264     0.41180
      H   23    0.11099      0.00000     0.38732    0.00169     0.38901
      H   24    0.10477      0.00000     0.39330    0.00193     0.39523
      H   25    0.11262      0.00000     0.38501    0.00236     0.38738
      H   26    0.08357      0.00000     0.41429    0.00214     0.41643
      H   27    0.10861      0.00000     0.39005    0.00133     0.39139
      H   28    0.10387      0.00000     0.39483    0.00130     0.39613
      H   29    0.10260      0.00000     0.39648    0.00092     0.39740
      H   30    0.09430      0.00000     0.40472    0.00098     0.40570
      H   31    0.10156      0.00000     0.39716    0.00129     0.39844
      H   32    0.10021      0.00000     0.39874    0.00106     0.39979
      H   33    0.11096      0.00000     0.38721    0.00183     0.38904
      H   34    0.10148      0.00000     0.39734    0.00119     0.39852
      H   35    0.09731      0.00000     0.40142    0.00128     0.40269
      H   36    0.23018      0.00000     0.26725    0.00257     0.26982
      H   37    0.07969      0.00000     0.41876    0.00155     0.42031
      H   38    0.09169      0.00000     0.40625    0.00206     0.40831
      H   39    0.08731      0.00000     0.41153    0.00116     0.41269
 =======================================================================
   * Total *    0.00000     18.99239    51.77005    0.23756    71.00000

 Normal termination of Gaussian 16 at Sun Dec 13 22:17:38 2020.
