 Gaussian 16, Revision A.03,

 -----------------------------------------------------------
 # opt freq B3LYP/6-31G(d) empiricaldispersion=gd3bj scf=xqc
 -----------------------------------------------------------

 ------------------------------
 CID_64687729_JID_8638_neutraal
 ------------------------------
 Symbolic Z-matrix:
 Charge =  0 Multiplicity = 1

 SCF Done:  E(RB3LYP) =  -822.803850359     A.U. after   15 cycles
 SCF Done:  E(RB3LYP) =  -822.809313045     A.U. after   12 cycles
 SCF Done:  E(RB3LYP) =  -822.808292335     A.U. after   13 cycles
 SCF Done:  E(RB3LYP) =  -822.809979131     A.U. after   12 cycles
 SCF Done:  E(RB3LYP) =  -822.810599897     A.U. after   12 cycles
 SCF Done:  E(RB3LYP) =  -822.810732964     A.U. after   11 cycles
 SCF Done:  E(RB3LYP) =  -822.810801189     A.U. after   12 cycles
 SCF Done:  E(RB3LYP) =  -822.810832005     A.U. after   11 cycles
 SCF Done:  E(RB3LYP) =  -822.810848080     A.U. after   10 cycles
 SCF Done:  E(RB3LYP) =  -822.810854020     A.U. after   10 cycles
 SCF Done:  E(RB3LYP) =  -822.810855866     A.U. after    9 cycles
 SCF Done:  E(RB3LYP) =  -822.810856142     A.U. after    8 cycles
 SCF Done:  E(RB3LYP) =  -822.810856280     A.U. after    7 cycles
 SCF Done:  E(RB3LYP) =  -822.810856359     A.U. after    7 cycles
 SCF Done:  E(RB3LYP) =  -822.810856395     A.U. after    6 cycles
 Optimization completed.
    -- Stationary point found.
 Normal termination of Gaussian 16 at Fri Dec 11 21:22:25 2020.

 --------------------------------------------------------------------
 #N Geom=AllCheck Guess=TCheck SCRF=Check GenChk RB3LYP/6-31G(d) Freq
 --------------------------------------------------------------------

 Structure from the checkpoint file:  "JID_8638.chk"
 ------------------------------
 CID_64687729_JID_8638_neutraal
 ------------------------------
 Charge =  0 Multiplicity = 1

 SCF Done:  E(RB3LYP) =  -822.810856395     A.U. after    1 cycles

  Exact polarizability: 195.257  -8.895 143.987   7.844   9.403 125.868
 Approx polarizability: 237.057 -13.246 228.846  12.842  22.102 192.954

                      1                      2                      3
                      A                      A                      A
 Frequencies --     15.3412                40.9101                44.4584
 Red. masses --      3.9046                 3.6821                 4.4116
 Frc consts  --      0.0005                 0.0036                 0.0051
 IR Inten    --      0.1376                 1.7962                 0.7404

                      4                      5                      6
                      A                      A                      A
 Frequencies --     76.2952               107.6716               123.4261
 Red. masses --      4.0073                 3.7095                 4.0237
 Frc consts  --      0.0137                 0.0253                 0.0361
 IR Inten    --      0.4803                 0.4801                 0.5951

                      7                      8                      9
                      A                      A                      A
 Frequencies --    137.3054               187.5285               194.4466
 Red. masses --      3.2192                 4.6019                 3.0729
 Frc consts  --      0.0358                 0.0953                 0.0685
 IR Inten    --      1.7466                 0.9159                 0.1561

                     10                     11                     12
                      A                      A                      A
 Frequencies --    210.4657               225.0094               240.1881
 Red. masses --      1.0757                 2.0083                 1.9124
 Frc consts  --      0.0281                 0.0599                 0.0650
 IR Inten    --      0.0403                 0.6281                 0.8114

                     13                     14                     15
                      A                      A                      A
 Frequencies --    248.7851               258.0811               274.7041
 Red. masses --      1.8498                 1.0867                 1.1127
 Frc consts  --      0.0675                 0.0426                 0.0495
 IR Inten    --      1.2112                 0.0560                 0.2289

                     16                     17                     18
                      A                      A                      A
 Frequencies --    278.5855               306.2838               328.1853
 Red. masses --      2.3926                 2.3257                 2.8577
 Frc consts  --      0.1094                 0.1285                 0.1813
 IR Inten    --      7.0190                 0.0228                 3.9586

                     19                     20                     21
                      A                      A                      A
 Frequencies --    344.9533               363.5610               388.2127
 Red. masses --      4.0378                 2.9644                 3.3316
 Frc consts  --      0.2831                 0.2309                 0.2958
 IR Inten    --     11.5862                 4.2620                 2.4594

                     22                     23                     24
                      A                      A                      A
 Frequencies --    421.7282               448.0462               462.8468
 Red. masses --      2.7730                 3.0435                 2.9615
 Frc consts  --      0.2906                 0.3600                 0.3738
 IR Inten    --      0.2551                 7.0356                 1.4066

                     25                     26                     27
                      A                      A                      A
 Frequencies --    475.5492               499.3418               583.9108
 Red. masses --      3.2186                 3.0382                 3.4537
 Frc consts  --      0.4288                 0.4463                 0.6938
 IR Inten    --      7.6175                 2.0654                 0.5544

                     28                     29                     30
                      A                      A                      A
 Frequencies --    628.8872               681.5790               697.3259
 Red. masses --      4.2979                 3.1825                 4.1023
 Frc consts  --      1.0015                 0.8711                 1.1753
 IR Inten    --      0.7703                24.4566                 2.3787

                     31                     32                     33
                      A                      A                      A
 Frequencies --    705.9413               709.3906               751.1866
 Red. masses --      2.4925                 1.9060                 4.0439
 Frc consts  --      0.7319                 0.5651                 1.3445
 IR Inten    --      6.4894                12.4977                 4.9241

                     34                     35                     36
                      A                      A                      A
 Frequencies --    768.5213               784.7283               823.1995
 Red. masses --      3.5279                 3.1418                 2.4403
 Frc consts  --      1.2277                 1.1399                 0.9743
 IR Inten    --     11.2999                 1.7113                 8.0049

                     37                     38                     39
                      A                      A                      A
 Frequencies --    839.5269               866.2006               915.7075
 Red. masses --      1.2850                 3.6342                 2.9859
 Frc consts  --      0.5336                 1.6065                 1.4752
 IR Inten    --      6.5773                26.4780                 2.9365

                     40                     41                     42
                      A                      A                      A
 Frequencies --    939.0144               941.8189               943.6930
 Red. masses --      1.6315                 1.7222                 4.6036
 Frc consts  --      0.8476                 0.9001                 2.4155
 IR Inten    --      0.0795                 0.3693                 5.9168

                     43                     44                     45
                      A                      A                      A
 Frequencies --    970.6136               977.9321               982.9729
 Red. masses --      2.4586                 2.4730                 1.1984
 Frc consts  --      1.3647                 1.3935                 0.6822
 IR Inten    --     12.0663                 0.2566                 0.2086

                     46                     47                     48
                      A                      A                      A
 Frequencies --    997.3280              1033.9474              1067.0330
 Red. masses --      2.1689                 1.7534                 1.4043
 Frc consts  --      1.2711                 1.1044                 0.9420
 IR Inten    --      8.8636                 3.1546                 0.2641

                     49                     50                     51
                      A                      A                      A
 Frequencies --   1072.5258              1091.4276              1094.6104
 Red. masses --      1.4369                 1.7759                 2.4102
 Frc consts  --      0.9738                 1.2464                 1.7014
 IR Inten    --      3.2790                 4.1227                 4.3377

                     52                     53                     54
                      A                      A                      A
 Frequencies --   1107.3681              1118.9950              1157.9344
 Red. masses --      1.5518                 1.8192                 2.2336
 Frc consts  --      1.1211                 1.3421                 1.7645
 IR Inten    --      7.8544                31.2687               127.4501

                     55                     56                     57
                      A                      A                      A
 Frequencies --   1176.8460              1193.5911              1205.6669
 Red. masses --      3.2820                 2.5494                 2.5465
 Frc consts  --      2.6781                 2.1400                 2.1810
 IR Inten    --    168.3147               225.0237               251.4110

                     58                     59                     60
                      A                      A                      A
 Frequencies --   1231.3076              1243.1644              1264.0746
 Red. masses --      1.9671                 1.4404                 1.9911
 Frc consts  --      1.7571                 1.3115                 1.8745
 IR Inten    --     22.9382                12.7928                13.0573

                     61                     62                     63
                      A                      A                      A
 Frequencies --   1279.7060              1287.7910              1300.2935
 Red. masses --      1.7454                 2.7164                 2.7482
 Frc consts  --      1.6841                 2.6542                 2.7377
 IR Inten    --     33.3541                14.4545                16.4233

                     64                     65                     66
                      A                      A                      A
 Frequencies --   1317.4804              1332.9799              1345.9478
 Red. masses --      2.0292                 1.7824                 1.5711
 Frc consts  --      2.0752                 1.8660                 1.6769
 IR Inten    --     17.8042                12.3087                51.6665

                     67                     68                     69
                      A                      A                      A
 Frequencies --   1369.4140              1372.5892              1413.3144
 Red. masses --      1.7034                 1.4119                 1.4463
 Frc consts  --      1.8820                 1.5672                 1.7021
 IR Inten    --     32.4249                 7.4758                13.5293

                     70                     71                     72
                      A                      A                      A
 Frequencies --   1425.0234              1427.5351              1432.3001
 Red. masses --      1.2802                 1.2925                 1.8675
 Frc consts  --      1.5317                 1.5518                 2.2573
 IR Inten    --     16.4407                17.1442                22.1060

                     73                     74                     75
                      A                      A                      A
 Frequencies --   1436.6333              1441.4363              1453.4789
 Red. masses --      1.5098                 1.5676                 1.2357
 Frc consts  --      1.8359                 1.9190                 1.5381
 IR Inten    --     32.5204                 9.9676                17.3364

                     76                     77                     78
                      A                      A                      A
 Frequencies --   1488.8237              1500.4436              1518.1514
 Red. masses --      2.7085                 1.0467                 1.4908
 Frc consts  --      3.5373                 1.3884                 2.0244
 IR Inten    --     27.8815                 0.3982                 4.7756

                     79                     80                     81
                      A                      A                      A
 Frequencies --   1519.2972              1520.4139              1520.7715
 Red. masses --      1.0604                 1.0679                 1.0632
 Frc consts  --      1.4422                 1.4544                 1.4488
 IR Inten    --      2.0365                 1.6213                 0.9137

                     82                     83                     84
                      A                      A                      A
 Frequencies --   1523.5522              1525.8088              1533.5095
 Red. masses --      1.2371                 1.0647                 1.1689
 Frc consts  --      1.6919                 1.4605                 1.6195
 IR Inten    --     10.2550                 8.9147                 2.2795

                     85                     86                     87
                      A                      A                      A
 Frequencies --   1535.0506              1536.4473              1548.9630
 Red. masses --      1.0583                 1.0720                 1.7353
 Frc consts  --      1.4692                 1.4910                 2.4531
 IR Inten    --      2.1329                 8.6281                17.6056

                     88                     89                     90
                      A                      A                      A
 Frequencies --   1556.7629              1585.0508              1818.5945
 Red. masses --      1.0549                 6.4354                11.5832
 Frc consts  --      1.5063                 9.5261                22.5711
 IR Inten    --     11.2699                19.4838               189.3347

                     91                     92                     93
                      A                      A                      A
 Frequencies --   2938.2131              2942.9613              3055.7499
 Red. masses --      1.0735                 1.0721                 1.0590
 Frc consts  --      5.4602                 5.4708                 5.8263
 IR Inten    --     22.0979                88.8103                37.2311

                     94                     95                     96
                      A                      A                      A
 Frequencies --   3058.6324              3060.7248              3062.8408
 Red. masses --      1.0354                 1.0383                 1.0810
 Frc consts  --      5.7069                 5.7310                 5.9749
 IR Inten    --      8.6660                22.5452                 6.4221

                     97                     98                     99
                      A                      A                      A
 Frequencies --   3066.4097              3067.5315              3097.7423
 Red. masses --      1.0382                 1.0384                 1.0900
 Frc consts  --      5.7518                 5.7570                 6.1627
 IR Inten    --     21.4583                17.8328                33.0908

                    100                    101                    102
                      A                      A                      A
 Frequencies --   3102.4691              3122.8882              3124.6488
 Red. masses --      1.1055                 1.1026                 1.1024
 Frc consts  --      6.2696                 6.3358                 6.3414
 IR Inten    --     33.0861                 5.9954                17.3692

                    103                    104                    105
                      A                      A                      A
 Frequencies --   3133.5717              3135.0733              3137.8260
 Red. masses --      1.1027                 1.1032                 1.1025
 Frc consts  --      6.3796                 6.3885                 6.3956
 IR Inten    --     19.1302                31.8392                47.6208

                    106                    107                    108
                      A                      A                      A
 Frequencies --   3153.5559              3159.3530              3173.1607
 Red. masses --      1.1020                 1.0870                 1.0998
 Frc consts  --      6.4569                 6.3925                 6.5242
 IR Inten    --     22.7791                 2.1578                 1.5196

                    109                    110                    111
                      A                      A                      A
 Frequencies --   3176.5008              3256.4734              3286.3323
 Red. masses --      1.0992                 1.0916                 1.1034
 Frc consts  --      6.5348                 6.8203                 7.0210
 IR Inten    --     12.0731                10.1295                 6.9352

 - Thermochemistry -
 -------------------
 Temperature   298.150 Kelvin.  Pressure   1.00000 Atm.
 Atom     1 has atomic number  6 and mass  12.00000

 Molecular mass:   251.16338 amu.
 Principal axes and moments of inertia in atomic units:
                           1         2         3
     Eigenvalues --  1724.125469517.23205**********
           X            0.99995   0.00925   0.00226
           Y           -0.00920   0.99974  -0.02099
           Z           -0.00245   0.02096   0.99978
 This molecule is an asymmetric top.
 Rotational symmetry number  1.
 Warning -- assumption of classical behavior for rotation
           may cause significant error
 Rotational temperatures (Kelvin)      0.05024     0.00910     0.00861
 Rotational constants (GHZ):           1.04676     0.18963     0.17949
 Zero-point vibrational energy     887928.8 (Joules/Mol)
                                  212.22008 (Kcal/Mol)
 Warning -- explicit consideration of  27 degrees of freedom as
           vibrations may cause significant error
 Vibrational temperatures:     22.07    58.86    63.97   109.77   154.92
          (Kelvin)            177.58   197.55   269.81   279.77   302.81
                              323.74   345.58   357.95   371.32   395.24
                              400.82   440.67   472.19   496.31   523.08
                              558.55   606.77   644.64   665.93   684.21
                              718.44   840.12   904.83   980.64  1003.30
                             1015.69  1020.65  1080.79  1105.73  1129.05
                             1184.40  1207.89  1246.27  1317.50  1351.03
                             1355.07  1357.76  1396.50  1407.03  1414.28
                             1434.93  1487.62  1535.22  1543.13  1570.32
                             1574.90  1593.26  1609.98  1666.01  1693.22
                             1717.31  1734.69  1771.58  1788.64  1818.72
                             1841.21  1852.84  1870.83  1895.56  1917.86
                             1936.52  1970.28  1974.85  2033.44  2050.29
                             2053.90  2060.76  2066.99  2073.91  2091.23
                             2142.09  2158.80  2184.28  2185.93  2187.54
                             2188.05  2192.05  2195.30  2206.38  2208.60
                             2210.60  2228.61  2239.83  2280.53  2616.55
                             4227.43  4234.26  4396.54  4400.69  4403.70
                             4406.74  4411.88  4413.49  4456.96  4463.76
                             4493.14  4495.67  4508.51  4510.67  4514.63
                             4537.26  4545.60  4565.47  4570.28  4685.34
                             4728.30

 Zero-point correction=                           0.338194 (Hartree/Particle)
 Thermal correction to Energy=                    0.356253
 Thermal correction to Enthalpy=                  0.357197
 Thermal correction to Gibbs Free Energy=         0.291402
 Sum of electronic and zero-point Energies=           -822.472662
 Sum of electronic and thermal Energies=              -822.454603
 Sum of electronic and thermal Enthalpies=            -822.453659
 Sum of electronic and thermal Free Energies=         -822.519454

                     E (Thermal)             CV                S
                      KCal/Mol        Cal/Mol-Kelvin    Cal/Mol-Kelvin
 Total                  223.552             69.131            138.477
 Electronic               0.000              0.000              0.000
 Translational            0.889              2.981             42.463
 Rotational               0.889              2.981             33.467
 Vibrational            221.775             63.170             62.547
 Vibration     1          0.593              1.986              7.161
 Vibration     2          0.594              1.981              5.215
 Vibration     3          0.595              1.980              5.050
 Vibration     4          0.599              1.965              3.984
 Vibration     5          0.606              1.943              3.310
 Vibration     6          0.610              1.929              3.046
 Vibration     7          0.614              1.916              2.841
 Vibration     8          0.632              1.857              2.252
 Vibration     9          0.635              1.848              2.185
 Vibration    10          0.643              1.825              2.040
 Vibration    11          0.650              1.803              1.918
 Vibration    12          0.657              1.779              1.801
 Vibration    13          0.662              1.765              1.739
 Vibration    14          0.667              1.749              1.675
 Vibration    15          0.677              1.720              1.566
 Vibration    16          0.679              1.713              1.542
 Vibration    17          0.697              1.662              1.382
 Vibration    18          0.711              1.619              1.269
 Vibration    19          0.723              1.586              1.189
 Vibration    20          0.737              1.547              1.107
 Vibration    21          0.756              1.495              1.007
 Vibration    22          0.784              1.423              0.886
 Vibration    23          0.807              1.365              0.802
 Vibration    24          0.820              1.332              0.758
 Vibration    25          0.832              1.304              0.722
 Vibration    26          0.855              1.251              0.660
 Vibration    27          0.941              1.066              0.478

 Optimization completed.
    -- Stationary point found.
 Normal termination of Gaussian 16 at Fri Dec 11 21:38:51 2020.

 ----------------------------------------------------------------------
 # B3LYP/6-311++G(d,p) empiricaldispersion=gd3bj scf=xqc pop=npa geom=c
 heck
 ----------------------------------------------------------------------

 --------------------------------------
 CID_64687729_JID_8638_Energie_neutraal
 --------------------------------------
 Structure from the checkpoint file:  "JID_8638.chk"
 Charge =  0 Multiplicity = 1

 SCF Done:  E(RB3LYP) =  -823.038039429     A.U. after   15 cycles
 Normal termination of Gaussian 16 at Fri Dec 11 21:45:43 2020.

 ----------------------------------------------------------------------
 # B3LYP/6-311++G(d,p) empiricaldispersion=gd3bj scf=xqc pop=npa geom=c
 heck
 ----------------------------------------------------------------------

 ------------------------------------
 CID_64687729_JID_8638_Energie_kation
 ------------------------------------
 Structure from the checkpoint file:  "JID_8638.chk"
 Charge =  1 Multiplicity = 2

 SCF Done:  E(UB3LYP) =  -822.753436093     A.U. after   26 cycles
 Normal termination of Gaussian 16 at Fri Dec 11 22:00:46 2020.
 Gaussian 16:  ES64L-G16RevA.03 25-Dec-2016

 ----------------------------------------------------------------------
 # B3LYP/6-311++G(d,p) empiricaldispersion=gd3bj scf=xqc pop=npa geom=c
 heck
 ----------------------------------------------------------------------

 -----------------------------------
 CID_64687729_JID_8638_Energie_anion
 -----------------------------------
 Structure from the checkpoint file:  "JID_8638.chk"
 Charge = -1 Multiplicity = 2

                         Standard orientation:
 ---------------------------------------------------------------------
 Center     Atomic      Atomic             Coordinates (Angstroms)
 Number     Number       Type             X           Y           Z
 ---------------------------------------------------------------------
      1          6           0       -0.720558    1.668314   -1.647280
      2          6           0       -0.487577    1.111181   -0.224023
      3          6           0       -1.479429   -0.023854    0.055442
      4          8           0       -1.191859   -1.189690    0.217002
      5          8           0       -2.726225    0.484555    0.069823
      6          6           0       -3.908525   -0.380813    0.239264
      7          6           0       -3.979506   -1.390753   -0.907339
      8          6           0       -3.863721   -1.056891    1.610621
      9          6           0       -5.064067    0.615482    0.159556
     10          7           0        0.876973    0.701040    0.091148
     11          6           0        1.781065    1.818480    0.338361
     12          6           0        2.981134    1.324395    1.145315
     13          7           0        3.544510    0.161681    0.478793
     14          6           0        4.784701   -0.423791    0.658526
     15          6           0        4.777177   -1.536329   -0.145794
     16          7           0        3.571147   -1.655724   -0.805077
     17          6           0        2.852955   -0.626426   -0.400217
     18          6           0        1.473308   -0.255628   -0.849914
     19          1           0       -0.599249    0.891078   -2.407987
     20          1           0       -0.008429    2.471393   -1.863117
     21          1           0       -1.733050    2.070112   -1.729494
     22          1           0       -0.745153    1.905619    0.485952
     23          1           0       -3.155367   -2.103301   -0.857944
     24          1           0       -4.924886   -1.940937   -0.849712
     25          1           0       -3.945649   -0.872049   -1.871434
     26          1           0       -3.753002   -0.305537    2.399664
     27          1           0       -4.802181   -1.595408    1.781835
     28          1           0       -3.035287   -1.763136    1.674569
     29          1           0       -4.980246    1.366817    0.951017
     30          1           0       -5.064428    1.129092   -0.807079
     31          1           0       -6.018592    0.092354    0.275865
     32          1           0        2.138466    2.295366   -0.594445
     33          1           0        1.258257    2.583801    0.920686
     34          1           0        3.745125    2.105824    1.219218
     35          1           0        2.658580    1.050744    2.156688
     36          1           0        5.521296   -0.000642    1.325030
     37          1           0        5.569668   -2.257950   -0.291228
     38          1           0        0.853196   -1.151110   -0.888153
     39          1           0        1.535447    0.159780   -1.873684
 ---------------------------------------------------------------------

 SCF Done:  E(UB3LYP) =  -823.029805481     A.U. after   33 cycles
 SCF Done:  E(UB3LYP) =  -823.029805481     a.u. after    1 cycles

 The electronic state is 2-A.
 Alpha  occ. eigenvalues --  -19.07109 -19.01911 -14.27850 -14.22420 -14.19956
 Alpha  occ. eigenvalues --  -10.20893 -10.15768 -10.13544 -10.12765 -10.12565
 Alpha  occ. eigenvalues --  -10.11415 -10.11085 -10.10744 -10.09559 -10.07601
 Alpha  occ. eigenvalues --  -10.07506 -10.07473 -10.07292  -1.01198  -0.93323
 Alpha  occ. eigenvalues --   -0.93046  -0.84890  -0.79648  -0.73311  -0.69640
 Alpha  occ. eigenvalues --   -0.67339  -0.65320  -0.61087  -0.60961  -0.58928
 Alpha  occ. eigenvalues --   -0.57674  -0.55139  -0.51630  -0.49929  -0.44870
 Alpha  occ. eigenvalues --   -0.44259  -0.43408  -0.41665  -0.40535  -0.39086
 Alpha  occ. eigenvalues --   -0.38546  -0.37458  -0.36943  -0.36234  -0.35226
 Alpha  occ. eigenvalues --   -0.35014  -0.34813  -0.33755  -0.33120  -0.31491
 Alpha  occ. eigenvalues --   -0.30769  -0.30543  -0.30434  -0.29686  -0.29179
 Alpha  occ. eigenvalues --   -0.28418  -0.27908  -0.27419  -0.26877  -0.26701
 Alpha  occ. eigenvalues --   -0.26103  -0.24619  -0.21510  -0.18562  -0.18246
 Alpha  occ. eigenvalues --   -0.18081  -0.14109  -0.13230   0.03745
 Alpha virt. eigenvalues --    0.05385   0.06535   0.07174   0.07700   0.08034
 Alpha virt. eigenvalues --    0.08189   0.08849   0.09097   0.09259   0.10003
 Alpha virt. eigenvalues --    0.10138   0.10632   0.11020   0.11461   0.11777

  Beta  occ. eigenvalues --  -19.07102 -19.01894 -14.27851 -14.22418 -14.19955
  Beta  occ. eigenvalues --  -10.20879 -10.15768 -10.13541 -10.12738 -10.12553
  Beta  occ. eigenvalues --  -10.11380 -10.11079 -10.10738 -10.09559 -10.07571
  Beta  occ. eigenvalues --  -10.07488 -10.07440 -10.07269  -1.01177  -0.93315
  Beta  occ. eigenvalues --   -0.93023  -0.84873  -0.79639  -0.73291  -0.69615
  Beta  occ. eigenvalues --   -0.67306  -0.65293  -0.61047  -0.60914  -0.58895
  Beta  occ. eigenvalues --   -0.57621  -0.55093  -0.51610  -0.49897  -0.44833
  Beta  occ. eigenvalues --   -0.44230  -0.43367  -0.41633  -0.40509  -0.39053
  Beta  occ. eigenvalues --   -0.38504  -0.37428  -0.36912  -0.36202  -0.35204
  Beta  occ. eigenvalues --   -0.34989  -0.34783  -0.33727  -0.33093  -0.31456
  Beta  occ. eigenvalues --   -0.30749  -0.30506  -0.30400  -0.29651  -0.29141
  Beta  occ. eigenvalues --   -0.28389  -0.27880  -0.27391  -0.26838  -0.26673
  Beta  occ. eigenvalues --   -0.26053  -0.24594  -0.21469  -0.18553  -0.18240
  Beta  occ. eigenvalues --   -0.18062  -0.14096  -0.13213
  Beta virt. eigenvalues --    0.05869   0.06360   0.07095   0.07656   0.08153
  Beta virt. eigenvalues --    0.08337   0.08480   0.09189   0.09351   0.09461
  Beta virt. eigenvalues --    0.10349   0.10531   0.10895   0.11065   0.11728

 Mulliken charges and spin densities:
               1          2
     1  C    0.897587  -1.417125
     2  C   -1.499242   0.750515
     3  C    0.140937   0.076780
     4  O   -0.242605   0.001798
     5  O    0.167167   0.002920
     6  C   -1.200989   1.124566
     7  C    0.354298  -0.747363
     8  C    0.469961  -0.893790
     9  C    0.290893  -0.672385
    10  N    0.317989   0.001348
    11  C   -0.033486  -0.059125
    12  C    1.288256  -1.804375
    13  N   -0.059800   0.125156
    14  C   -0.071475   0.084949
    15  C    0.078745  -0.211983
    16  N   -0.096900   0.011743
    17  C   -0.400478  -0.136565
    18  C   -0.005461  -0.243535
    19  H    0.003890   0.145656
    20  H   -0.250748   0.416625
    21  H   -0.100899   0.279818
    22  H   -0.125171   0.382470
    23  H    0.080601   0.103868
    24  H   -0.088931   0.252640
    25  H    0.067517   0.071110
    26  H   -0.013609   0.160671
    27  H   -0.049093   0.215338
    28  H    0.108222   0.083771
    29  H   -0.196649   0.356926
    30  H   -0.163724   0.319254
    31  H   -0.110085   0.254548
    32  H    0.095904   0.062005
    33  H   -0.705820   0.858928
    34  H   -0.453608   0.658771
    35  H    0.070553   0.129161
    36  H   -0.071728   0.219410
    37  H    0.142963   0.003366
    38  H    0.260976  -0.024339
    39  H    0.104041   0.056473
 Sum of Mulliken charges =  -1.00000   1.00000

 Dipole moment (field-independent basis, Debye):
    X=              1.6278    Y=             -3.2690    Z=             -0.8672  Tot=              3.7534
 Quadrupole moment (field-independent basis, Debye-Ang):
   XX=           -197.7795   YY=           -165.8318   ZZ=           -143.7586
   XY=             -1.1904   XZ=              2.4509   YZ=             -5.3052

 Summary of Natural Population Analysis:

                                       Natural Population
                Natural  -----------------------------------------------
    Atom  No    Charge         Core      Valence    Rydberg      Total
 -----------------------------------------------------------------------
      C    1   -0.29425      0.99964     2.28912    0.00549     3.29425
      C    2   -0.04672      0.99955     2.03320    0.01397     3.04672
      C    3    0.41883      0.99966     1.55435    0.02716     2.58117
      O    4   -0.30746      0.99987     3.30258    0.00501     4.30746
      O    5   -0.29616      0.99985     3.28508    0.01124     4.29616
      C    6    0.13244      0.99953     1.85278    0.01524     2.86756
      C    7   -0.30080      0.99960     2.29570    0.00550     3.30080
      C    8   -0.30049      0.99960     2.29528    0.00561     3.30049
      C    9   -0.28941      0.99960     2.28276    0.00704     3.28941
      N   10   -0.27391      0.99970     2.76214    0.01207     3.77391
      C   11   -0.08883      0.99961     2.07689    0.01233     3.08883
      C   12   -0.07864      0.99961     2.06755    0.01148     3.07864
      N   13   -0.20640      0.99960     2.69788    0.00891     3.70640
      C   14   -0.04303      0.99956     2.03171    0.01176     3.04303
      C   15   -0.03473      0.99959     2.02206    0.01308     3.03473
      N   16   -0.26293      0.99969     2.75303    0.01021     3.76293
      C   17    0.20067      0.99960     1.78342    0.01631     2.79933
      C   18   -0.10825      0.99957     2.09887    0.00981     3.10825
      H   19    0.09831      0.00000     0.40079    0.00090     0.40169
      H   20    0.10359      0.00000     0.39534    0.00107     0.39641
      H   21    0.11135      0.00000     0.38738    0.00126     0.38865
      H   22    0.11310      0.00000     0.38468    0.00222     0.38690
      H   23    0.11319      0.00000     0.38582    0.00099     0.38681
      H   24    0.10280      0.00000     0.39629    0.00091     0.39720
      H   25    0.10286      0.00000     0.39613    0.00101     0.39714
      H   26    0.10398      0.00000     0.39500    0.00102     0.39602
      H   27    0.10216      0.00000     0.39687    0.00097     0.39784
      H   28    0.11398      0.00000     0.38503    0.00099     0.38602
      H   29    0.10568      0.00000     0.39306    0.00126     0.39432
      H   30    0.10457      0.00000     0.39420    0.00123     0.39543
      H   31    0.10172      0.00000     0.39713    0.00116     0.39828
      H   32    0.08386      0.00000     0.41415    0.00199     0.41614
      H   33    0.10822      0.00000     0.38894    0.00284     0.39178
      H   34    0.10216      0.00000     0.39587    0.00198     0.39784
      H   35    0.09914      0.00000     0.39927    0.00159     0.40086
      H   36    0.10241      0.00000     0.39673    0.00086     0.39759
      H   37    0.09392      0.00000     0.40523    0.00084     0.40608
      H   38    0.12305      0.00000     0.37524    0.00171     0.37695
      H   39    0.09003      0.00000     0.40823    0.00174     0.40997
 =======================================================================
   * Total *   -0.00000     17.99344    49.77578    0.23078    68.00000

 Normal termination of Gaussian 16 at Fri Dec 11 22:20:20 2020.
