 Gaussian 16, Revision A.03,

 -----------------------------------------------------------
 # opt freq B3LYP/6-31G(d) empiricaldispersion=gd3bj scf=xqc
 -----------------------------------------------------------

 ------------------------------
 CID_150842184_JID_583_neutraal
 ------------------------------
 Symbolic Z-matrix:
 Charge =  0 Multiplicity = 1

 SCF Done:  E(RB3LYP) =  -885.336883992     A.U. after   21 cycles
 SCF Done:  E(RB3LYP) =  -885.358025527     A.U. after   19 cycles
 SCF Done:  E(RB3LYP) =  -885.362472232     A.U. after   19 cycles
 SCF Done:  E(RB3LYP) =  -885.367306584     A.U. after   18 cycles
 SCF Done:  E(RB3LYP) =  -885.376903989     A.U. after   19 cycles
 SCF Done:  E(RB3LYP) =  -885.393170363     A.U. after   18 cycles
 SCF Done:  E(RB3LYP) =  -885.401501228     A.U. after   16 cycles
 SCF Done:  E(RB3LYP) =  -885.407949750     A.U. after   16 cycles
 SCF Done:  E(RB3LYP) =  -885.410021669     A.U. after   14 cycles
 SCF Done:  E(RB3LYP) =  -885.411196180     A.U. after   14 cycles
 SCF Done:  E(RB3LYP) =  -885.415648183     A.U. after    9 cycles
 SCF Done:  E(RB3LYP) =  -885.415651174     A.U. after    9 cycles
 SCF Done:  E(RB3LYP) =  -885.415654622     A.U. after    9 cycles
 SCF Done:  E(RB3LYP) =  -885.415656941     A.U. after    9 cycles
 SCF Done:  E(RB3LYP) =  -885.415657396     A.U. after    9 cycles
 SCF Done:  E(RB3LYP) =  -885.415657538     A.U. after    8 cycles
 Optimization completed.
    -- Stationary point found.
 Normal termination of Gaussian 16 at Tue Dec  8 12:28:58 2020.

 --------------------------------------------------------------------
 #N Geom=AllCheck Guess=TCheck SCRF=Check GenChk RB3LYP/6-31G(d) Freq
 --------------------------------------------------------------------

 Structure from the checkpoint file:  "JID_583.chk"
 ------------------------------
 CID_150842184_JID_583_neutraal
 ------------------------------
 Charge =  0 Multiplicity = 1

 SCF Done:  E(RB3LYP) =  -885.415657538     A.U. after    1 cycles

  Exact polarizability: 125.730  -2.912  66.389  -2.227   2.008  53.625
 Approx polarizability: 224.199 -12.789 124.170  -7.914   8.995  78.720

                      1                      2                      3
                      A                      A                      A
 Frequencies --     50.1967                80.6472               109.6294
 Red. masses --      8.8686                 7.0946                 9.6633
 Frc consts  --      0.0132                 0.0272                 0.0684
 IR Inten    --      1.5829                 2.5072                 3.5962

                      4                      5                      6
                      A                      A                      A
 Frequencies --    132.5915               190.8630               264.4343
 Red. masses --      4.7997                 6.1595                 2.3337
 Frc consts  --      0.0497                 0.1322                 0.0961
 IR Inten    --      3.7997                 4.9922                 9.7688

                      7                      8                      9
                      A                      A                      A
 Frequencies --    277.8728               281.4194               312.6712
 Red. masses --      3.0753                 2.2666                 6.2693
 Frc consts  --      0.1399                 0.1058                 0.3611
 IR Inten    --      2.0472                16.4634                 0.7948

                     10                     11                     12
                      A                      A                      A
 Frequencies --    333.1109               373.4208               420.2163
 Red. masses --      1.4575                 2.6448                 2.6454
 Frc consts  --      0.0953                 0.2173                 0.2752
 IR Inten    --     24.1108                 9.4506                 9.3426

                     13                     14                     15
                      A                      A                      A
 Frequencies --    484.0075               502.7677               522.2969
 Red. masses --      7.4712                 4.3763                 4.5341
 Frc consts  --      1.0312                 0.6518                 0.7287
 IR Inten    --     37.8719                 8.5659                 6.3110

                     16                     17                     18
                      A                      A                      A
 Frequencies --    584.7478               648.7520               713.2611
 Red. masses --     11.3623                 1.2768                 3.6245
 Frc consts  --      2.2890                 0.3166                 1.0864
 IR Inten    --     14.5168                39.8445                18.6584

                     19                     20                     21
                      A                      A                      A
 Frequencies --    805.4629               851.5155               917.8008
 Red. masses --      5.3944                 3.4967                 2.0897
 Frc consts  --      2.0620                 1.4938                 1.0371
 IR Inten    --      0.4327                57.4881               184.1616

                     22                     23                     24
                      A                      A                      A
 Frequencies --    971.1326              1008.0568              1040.7839
 Red. masses --      2.7953                 1.5281                 1.9743
 Frc consts  --      1.5532                 0.9149                 1.2601
 IR Inten    --      8.9198                33.9927                26.6615

                     25                     26                     27
                      A                      A                      A
 Frequencies --   1150.2418              1197.6035              1215.7636
 Red. masses --      1.5582                 3.8107                 3.1436
 Frc consts  --      1.2146                 3.2201                 2.7376
 IR Inten    --    169.9025                16.7449                22.8095

                     28                     29                     30
                      A                      A                      A
 Frequencies --   1296.9295              1315.7434              1343.0688
 Red. masses --      4.4087                12.3925                 2.0305
 Frc consts  --      4.3691                12.6401                 2.1580
 IR Inten    --    124.0661               145.4387                86.4572

                     31                     32                     33
                      A                      A                      A
 Frequencies --   1355.5795              1433.7542              1517.9091
 Red. masses --      4.0335                 1.2398                 1.0511
 Frc consts  --      4.3669                 1.5016                 1.4268
 IR Inten    --    171.2186                 9.6649                 0.4688

                     34                     35                     36
                      A                      A                      A
 Frequencies --   1528.1953              1696.6431              2275.4756
 Red. masses --      1.0476                 1.0955                13.9218
 Frc consts  --      1.4414                 1.8581                42.4708
 IR Inten    --      5.2792                26.5195               479.4980

                     37                     38                     39
                      A                      A                      A
 Frequencies --   3070.4781              3145.2108              3161.1580
 Red. masses --      1.0342                 1.1037                 1.1041
 Frc consts  --      5.7448                 6.4327                 6.5008
 IR Inten    --      6.4645                 9.9960                 8.6242

                     40                     41                     42
                      A                      A                      A
 Frequencies --   3263.4998              3479.5699              3571.2665
 Red. masses --      1.0897                 1.0495                 1.0932
 Frc consts  --      6.8379                 7.4867                 8.2150
 IR Inten    --     15.2856                 1.8187                 4.5240

 - Thermochemistry -
 -------------------
 Temperature   298.150 Kelvin.  Pressure   1.00000 Atm.
 Atom     1 has atomic number  6 and mass  12.00000

 Molecular mass:   162.02115 amu.
 Principal axes and moments of inertia in atomic units:
                           1         2         3
     Eigenvalues --   563.689553001.853423180.56269
           X            0.99997  -0.00630   0.00364
           Y            0.00645   0.99912  -0.04143
           Z           -0.00337   0.04146   0.99913
 This molecule is an asymmetric top.
 Rotational symmetry number  1.
 Warning -- assumption of classical behavior for rotation
           may cause significant error
 Rotational temperatures (Kelvin)      0.15366     0.02885     0.02723
 Rotational constants (GHZ):           3.20166     0.60121     0.56743
 Zero-point vibrational energy     292461.5 (Joules/Mol)
                                   69.89998 (Kcal/Mol)
 Warning -- explicit consideration of  16 degrees of freedom as
           vibrations may cause significant error
 Vibrational temperatures:     72.22   116.03   157.73   190.77   274.61
          (Kelvin)            380.46   399.80   404.90   449.86   479.27
                              537.27   604.60   696.38   723.37   751.47
                              841.32   933.41  1026.22  1158.88  1225.14
                             1320.51  1397.24  1450.37  1497.46  1654.94
                             1723.08  1749.21  1865.99  1893.06  1932.38
                             1950.38  2062.85  2183.93  2198.73  2441.09
                             3273.90  4417.73  4525.26  4548.20  4695.45
                             5006.33  5138.26

 Zero-point correction=                           0.111393 (Hartree/Particle)
 Thermal correction to Energy=                    0.122057
 Thermal correction to Enthalpy=                  0.123001
 Thermal correction to Gibbs Free Energy=         0.074676
 Sum of electronic and zero-point Energies=           -885.304265
 Sum of electronic and thermal Energies=              -885.293601
 Sum of electronic and thermal Enthalpies=            -885.292657
 Sum of electronic and thermal Free Energies=         -885.340981

                     E (Thermal)             CV                S
                      KCal/Mol        Cal/Mol-Kelvin    Cal/Mol-Kelvin
 Total                   76.592             37.774            101.708
 Electronic               0.000              0.000              0.000
 Translational            0.889              2.981             41.156
 Rotational               0.889              2.981             30.066
 Vibrational             74.814             31.813             30.486
 Vibration     1          0.595              1.978              4.810
 Vibration     2          0.600              1.962              3.875
 Vibration     3          0.606              1.941              3.275
 Vibration     4          0.613              1.921              2.908
 Vibration     5          0.634              1.852              2.219
 Vibration     6          0.671              1.738              1.632
 Vibration     7          0.679              1.714              1.547
 Vibration     8          0.681              1.708              1.525
 Vibration     9          0.701              1.650              1.348
 Vibration    10          0.715              1.609              1.245
 Vibration    11          0.745              1.527              1.066
 Vibration    12          0.783              1.426              0.891
 Vibration    13          0.840              1.286              0.699
 Vibration    14          0.858              1.244              0.651
 Vibration    15          0.877              1.201              0.605
 Vibration    16          0.942              1.064              0.477

 Optimization completed.
    -- Stationary point found.
 Normal termination of Gaussian 16 at Tue Dec  8 12:40:04 2020.

 ----------------------------------------------------------------------
 # B3LYP/6-311++G(d,p) empiricaldispersion=gd3bj scf=xqc pop=npa geom=c
 heck
 ----------------------------------------------------------------------

 --------------------------------------
 CID_150842184_JID_583_Energie_neutraal
 --------------------------------------
 Structure from the checkpoint file:  "JID_583.chk"
 Charge =  0 Multiplicity = 1

 SCF Done:  E(RB3LYP) =  -885.593530943     A.U. after   16 cycles
 Normal termination of Gaussian 16 at Tue Dec  8 12:43:03 2020.

 ----------------------------------------------------------------------
 # B3LYP/6-311++G(d,p) empiricaldispersion=gd3bj scf=xqc pop=npa geom=c
 heck
 ----------------------------------------------------------------------

 ------------------------------------
 CID_150842184_JID_583_Energie_kation
 ------------------------------------
 Structure from the checkpoint file:  "JID_583.chk"
 Charge =  1 Multiplicity = 2

 SCF Done:  E(UB3LYP) =  -885.242806820     A.U. after   25 cycles
 Normal termination of Gaussian 16 at Tue Dec  8 12:49:36 2020.
 Gaussian 16:  ES64L-G16RevA.03 25-Dec-2016

 ----------------------------------------------------------------------
 # B3LYP/6-311++G(d,p) empiricaldispersion=gd3bj scf=xqc pop=npa geom=c
 heck
 ----------------------------------------------------------------------

 -----------------------------------
 CID_150842184_JID_583_Energie_anion
 -----------------------------------
 Structure from the checkpoint file:  "JID_583.chk"
 Charge = -1 Multiplicity = 2

                         Standard orientation:
 ---------------------------------------------------------------------
 Center     Atomic      Atomic             Coordinates (Angstroms)
 Number     Number       Type             X           Y           Z
 ---------------------------------------------------------------------
      1          6           0       -0.809325    0.956102   -1.348562
      2          6           0       -0.698674    0.084935   -0.089504
      3          6           0        0.560375   -0.782320   -0.120209
      4         16           0        2.031236   -0.156086    0.025178
      5          8           0        2.130082    1.298593    0.229347
      6          8           0        3.202314   -1.038693    0.003468
      7          7           0       -0.842594    0.934701    1.083555
      8          7           0       -1.771496   -0.954220   -0.069344
      9          7           0       -2.909887   -0.490119    0.088611
     10          7           0       -3.997931   -0.187304    0.230675
     11          1           0        0.028830    1.657738   -1.398128
     12          1           0       -1.741314    1.528173   -1.315202
     13          1           0       -0.800050    0.326906   -2.241413
     14          1           0        0.515446   -1.852708   -0.273378
     15          1           0       -0.662286    0.394247    1.928383
     16          1           0       -0.160474    1.690113    1.049547
 ---------------------------------------------------------------------

 SCF Done:  E(UB3LYP) =  -885.610528299     A.U. after   32 cycles

 The electronic state is 2-A.
 Alpha  occ. eigenvalues --  -88.83883 -18.96970 -18.96818 -14.35237 -14.25442
 Alpha  occ. eigenvalues --  -14.23049 -14.17195 -10.13957 -10.04591 -10.03652
 Alpha  occ. eigenvalues --   -7.91384  -5.87700  -5.87452  -5.87421  -1.01634
 Alpha  occ. eigenvalues --   -0.94953  -0.86241  -0.85594  -0.77037  -0.65389
 Alpha  occ. eigenvalues --   -0.60669  -0.54065  -0.42789  -0.40787  -0.39124
 Alpha  occ. eigenvalues --   -0.38316  -0.35307  -0.34229  -0.33438  -0.31935
 Alpha  occ. eigenvalues --   -0.31145  -0.29849  -0.29247  -0.26316  -0.25948
 Alpha  occ. eigenvalues --   -0.19502  -0.18677  -0.18595  -0.16347  -0.14514
 Alpha  occ. eigenvalues --   -0.13367  -0.10003   0.04917
 Alpha virt. eigenvalues --    0.07955   0.09102   0.10875   0.11426   0.12391
 Alpha virt. eigenvalues --    0.12933   0.13664   0.14232   0.14932   0.15923
 Alpha virt. eigenvalues --    0.17354   0.17847   0.18905   0.19331   0.19444

  Beta  occ. eigenvalues --  -88.83623 -18.96653 -18.96484 -14.35100 -14.25308
  Beta  occ. eigenvalues --  -14.23067 -14.17132 -10.13954 -10.04568 -10.03334
  Beta  occ. eigenvalues --   -7.91140  -5.87551  -5.87305  -5.86655  -1.01404
  Beta  occ. eigenvalues --   -0.94184  -0.86138  -0.84950  -0.76864  -0.64961
  Beta  occ. eigenvalues --   -0.60312  -0.53822  -0.42142  -0.40687  -0.38819
  Beta  occ. eigenvalues --   -0.37826  -0.35090  -0.33878  -0.33111  -0.30902
  Beta  occ. eigenvalues --   -0.30043  -0.29363  -0.28953  -0.26252  -0.25652
  Beta  occ. eigenvalues --   -0.19218  -0.18439  -0.16949  -0.16027  -0.14258
  Beta  occ. eigenvalues --   -0.13170  -0.08007
  Beta virt. eigenvalues --    0.08490   0.09118   0.10068   0.11590   0.12285
  Beta virt. eigenvalues --    0.13014   0.13580   0.14018   0.14483   0.15026
  Beta virt. eigenvalues --    0.15864   0.17412   0.17929   0.18870   0.19288

 Mulliken charges and spin densities:
               1          2
     1  C   -0.505244   0.028301
     2  C    0.264454  -0.583701
     3  C   -1.302013   0.622095
     4  S    0.688559   0.356356
     5  O   -0.369582   0.056472
     6  O   -0.354285   0.088052
     7  N   -0.263703  -0.050599
     8  N    0.135559   0.071058
     9  N    0.346938  -0.004044
    10  N   -0.485070   0.063297
    11  H    0.148744   0.006067
    12  H    0.144361  -0.001592
    13  H    0.147033  -0.001954
    14  H    0.203153   0.041556
    15  H    0.072824   0.172314
    16  H    0.128273   0.136319
 Sum of Mulliken charges =  -1.00000   1.00000

 Dipole moment (field-independent basis, Debye):
    X=             -2.9071    Y=              0.3137    Z=             -1.5716  Tot=              3.3196
 Quadrupole moment (field-independent basis, Debye-Ang):
   XX=           -119.3258   YY=            -79.8730   ZZ=            -72.5728
   XY=              2.5077   XZ=              1.8417   YZ=             -1.7305

 Summary of Natural Population Analysis:

                                       Natural Population
                Natural  -----------------------------------------------
    Atom  No    Charge         Core      Valence    Rydberg      Total
 -----------------------------------------------------------------------
      C    1   -0.29172      0.99960     2.28557    0.00654     3.29172
      C    2    0.12747      0.99958     1.85575    0.01719     2.87253
      C    3   -0.29744      0.99950     2.27991    0.01803     3.29744
      S    4    1.06204      4.99892     1.85901    0.08004     6.93796
      O    5   -0.43789      0.99991     3.43142    0.00656     4.43789
      O    6   -0.42274      0.99991     3.41665    0.00618     4.42274
      N    7   -0.43291      0.99974     2.92209    0.01109     3.93291
      N    8   -0.19484      0.99968     2.68095    0.01421     3.69484
      N    9    0.13355      0.99970     2.34918    0.01758     3.36645
      N   10   -0.04480      0.99982     2.53226    0.01272     3.54480
      H   11    0.11016      0.00000     0.38884    0.00100     0.38984
      H   12    0.09697      0.00000     0.40213    0.00089     0.40303
      H   13    0.10248      0.00000     0.39677    0.00075     0.39752
      H   14    0.12072      0.00000     0.37822    0.00106     0.37928
      H   15    0.17898      0.00000     0.31908    0.00194     0.32102
      H   16    0.18995      0.00000     0.30836    0.00169     0.31005
 =======================================================================
   * Total *   -0.00000     13.99636    27.80618    0.19746    42.00000

 Normal termination of Gaussian 16 at Tue Dec  8 13:04:07 2020.
