 Gaussian 16, Revision A.03,

 -----------------------------------------------------------
 # opt freq B3LYP/6-31G(d) empiricaldispersion=gd3bj scf=xqc
 -----------------------------------------------------------

 ------------------------------
 CID_65959356_JID_1402_neutraal
 ------------------------------
 Symbolic Z-matrix:
 Charge =  0 Multiplicity = 1

 SCF Done:  E(RB3LYP) =  -464.481838588     A.U. after   12 cycles
 SCF Done:  E(RB3LYP) =  -464.499122778     A.U. after   11 cycles
 SCF Done:  E(RB3LYP) =  -464.501106576     A.U. after   11 cycles
 SCF Done:  E(RB3LYP) =  -464.501541397     A.U. after   10 cycles
 SCF Done:  E(RB3LYP) =  -464.502511662     A.U. after   10 cycles
 SCF Done:  E(RB3LYP) =  -464.502614089     A.U. after   10 cycles
 SCF Done:  E(RB3LYP) =  -464.502656152     A.U. after   10 cycles
 SCF Done:  E(RB3LYP) =  -464.502673979     A.U. after   10 cycles
 SCF Done:  E(RB3LYP) =  -464.502690415     A.U. after    9 cycles
 SCF Done:  E(RB3LYP) =  -464.502731999     A.U. after   10 cycles
 SCF Done:  E(RB3LYP) =  -464.505153831     A.U. after   10 cycles
 SCF Done:  E(RB3LYP) =  -464.505162179     A.U. after    8 cycles
 SCF Done:  E(RB3LYP) =  -464.505164441     A.U. after    8 cycles
 SCF Done:  E(RB3LYP) =  -464.505164932     A.U. after    7 cycles
 SCF Done:  E(RB3LYP) =  -464.505165116     A.U. after    7 cycles
 SCF Done:  E(RB3LYP) =  -464.505165161     A.U. after    6 cycles
 Optimization completed.
    -- Stationary point found.

 1\1\GINC-NODE104\FOpt\RB3LYP\6-31G(d)\C9H20N2\VSC10255\08-Dec-2020\0\\
 # opt freq B3LYP/6-31G(d) empiricaldispersion=gd3bj scf=xqc\\CID_65959
 356_JID_1402_neutraal\\0,1\C,1.003546763,0.2101182399,-0.231984488\C,0
 .5203166362,1.4701732079,0.501853153\C,1.2374867679,2.6967097215,-0.08
 24578532\C,-1.0256872338,1.5976778935,0.4813014134\C,-1.6979388518,0.4
 129578004,1.1920632309\C,-1.5260526958,2.9189333261,1.1034579943\N,-1.
 7034471388,3.9731806376,0.105809775\C,-2.0884844222,5.2488149152,0.675
 3482194\C,-0.9898473393,6.0508335413,1.4472313232\N,-0.6881160107,6.76

 Normal termination of Gaussian 16 at Tue Dec  8 20:02:46 2020.

 --------------------------------------------------------------------
 #N Geom=AllCheck Guess=TCheck SCRF=Check GenChk RB3LYP/6-31G(d) Freq
 --------------------------------------------------------------------

 Structure from the checkpoint file:  "JID_1402.chk"
 ------------------------------
 CID_65959356_JID_1402_neutraal
 ------------------------------
 Charge =  0 Multiplicity = 1

 SCF Done:  E(RB3LYP) =  -464.505165161     A.U. after    1 cycles

  Exact polarizability: 126.223  -0.446 102.627  -0.636   0.394  94.477
 Approx polarizability: 147.593   0.433 141.919  -1.175   0.607 145.595

                      1                      2                      3
                      A                      A                      A
 Frequencies --     42.6857                48.4661                56.8578
 Red. masses --      3.5778                 3.0812                 2.5791
 Frc consts  --      0.0038                 0.0043                 0.0049
 IR Inten    --      0.8666                 0.2455                 0.0075

                      4                      5                      6
                      A                      A                      A
 Frequencies --    111.9757               150.5619               188.3624
 Red. masses --      2.7134                 2.8142                 2.1525
 Frc consts  --      0.0200                 0.0376                 0.0450
 IR Inten    --      3.4329                 4.1993                 0.3612

                      7                      8                      9
                      A                      A                      A
 Frequencies --    209.1083               219.4754               253.0566
 Red. masses --      1.3262                 1.0922                 2.2836
 Frc consts  --      0.0342                 0.0310                 0.0862
 IR Inten    --      0.2895                 0.1136                 0.3906

                     10                     11                     12
                      A                      A                      A
 Frequencies --    287.8813               300.8992               337.6377
 Red. masses --      2.3126                 1.4414                 1.9223
 Frc consts  --      0.1129                 0.0769                 0.1291
 IR Inten    --      0.7145                 0.5633                 0.1918

                     13                     14                     15
                      A                      A                      A
 Frequencies --    381.1822               405.9389               421.6392
 Red. masses --      2.0018                 2.1520                 2.0488
 Frc consts  --      0.1714                 0.2089                 0.2146
 IR Inten    --      0.1082                 1.0030                 1.6427

                     16                     17                     18
                      A                      A                      A
 Frequencies --    445.6433               504.6273               531.7182
 Red. masses --      2.2827                 2.7209                 2.5519
 Frc consts  --      0.2671                 0.4082                 0.4251
 IR Inten    --      0.0516                 1.3361                 0.8609

                     19                     20                     21
                      A                      A                      A
 Frequencies --    680.8380               780.4952               793.9146
 Red. masses --      2.0311                 2.2157                 1.5215
 Frc consts  --      0.5547                 0.7953                 0.5650
 IR Inten    --     81.0215                 3.8901                53.1744

                     22                     23                     24
                      A                      A                      A
 Frequencies --    838.9535               892.1637               929.8125
 Red. masses --      1.6383                 2.2392                 1.4856
 Frc consts  --      0.6794                 1.0501                 0.7567
 IR Inten    --      6.0483                 3.8707                 6.6399

                     25                     26                     27
                      A                      A                      A
 Frequencies --    935.8519               939.0509               948.9121
 Red. masses --      2.2535                 1.3024                 1.7825
 Frc consts  --      1.1628                 0.6767                 0.9456
 IR Inten    --     18.1390                 3.8250                 2.5181

                     28                     29                     30
                      A                      A                      A
 Frequencies --    963.8845               976.7654               992.7381
 Red. masses --      1.5526                 1.5267                 1.6518
 Frc consts  --      0.8499                 0.8582                 0.9591
 IR Inten    --      5.1959                 2.2887                 6.6742

                     31                     32                     33
                      A                      A                      A
 Frequencies --   1010.0057              1021.4173              1045.7334
 Red. masses --      1.2984                 2.5146                 1.9812
 Frc consts  --      0.7804                 1.5457                 1.2765
 IR Inten    --      5.7269                10.5436                 2.5471

                     34                     35                     36
                      A                      A                      A
 Frequencies --   1059.0827              1083.0137              1118.6745
 Red. masses --      3.1822                 2.5063                 2.1102
 Frc consts  --      2.1030                 1.7320                 1.5559
 IR Inten    --      1.0553                 2.9573                 1.1961

                     37                     38                     39
                      A                      A                      A
 Frequencies --   1128.9918              1163.7698              1176.6777
 Red. masses --      1.1715                 2.3721                 1.9576
 Frc consts  --      0.8798                 1.8928                 1.5970
 IR Inten    --     10.7972                36.7022                 4.7491

                     40                     41                     42
                      A                      A                      A
 Frequencies --   1193.9394              1200.2952              1210.5664
 Red. masses --      1.6117                 1.9022                 1.6400
 Frc consts  --      1.3536                 1.6146                 1.4160
 IR Inten    --      3.3955                 2.8554                10.8857

                     43                     44                     45
                      A                      A                      A
 Frequencies --   1231.9670              1244.2029              1280.9281
 Red. masses --      1.4766                 1.5679                 1.3381
 Frc consts  --      1.3204                 1.4300                 1.2936
 IR Inten    --      6.3737                27.8613                 5.6542

                     46                     47                     48
                      A                      A                      A
 Frequencies --   1286.8148              1326.8626              1343.3231
 Red. masses --      1.4590                 1.3195                 1.3209
 Frc consts  --      1.4234                 1.3687                 1.4044
 IR Inten    --      1.3235                 5.1442                 7.5328

                     49                     50                     51
                      A                      A                      A
 Frequencies --   1356.6238              1366.5561              1379.3882
 Red. masses --      1.4318                 1.3333                 1.3840
 Frc consts  --      1.5526                 1.4670                 1.5515
 IR Inten    --      2.0630                 0.6782                16.5773

                     52                     53                     54
                      A                      A                      A
 Frequencies --   1387.6027              1401.6156              1428.4744
 Red. masses --      1.3500                 1.4447                 1.2693
 Frc consts  --      1.5315                 1.6722                 1.5260
 IR Inten    --     10.4880                 1.3131                 1.3608

                     55                     56                     57
                      A                      A                      A
 Frequencies --   1434.9894              1442.3924              1450.5073
 Red. masses --      1.3295                 1.2860                 1.2193
 Frc consts  --      1.6131                 1.5763                 1.5115
 IR Inten    --      5.3916                 3.1413                 3.3258

                     58                     59                     60
                      A                      A                      A
 Frequencies --   1515.3948              1523.2124              1524.5973
 Red. masses --      1.1107                 1.0465                 1.1012
 Frc consts  --      1.5028                 1.4306                 1.5080
 IR Inten    --     21.6400                 3.1500                 8.0458

                     61                     62                     63
                      A                      A                      A
 Frequencies --   1529.8083              1532.2083              1537.2991
 Red. masses --      1.0752                 1.0794                 1.0565
 Frc consts  --      1.4826                 1.4930                 1.4711
 IR Inten    --      3.1340                13.8079                 8.6996

                     64                     65                     66
                      A                      A                      A
 Frequencies --   1546.3239              1551.0712              1554.7454
 Red. masses --      1.0677                 1.0757                 1.0628
 Frc consts  --      1.5042                 1.5247                 1.5136
 IR Inten    --     18.8974                 6.9695                 1.2503

                     67                     68                     69
                      A                      A                      A
 Frequencies --   1557.9387              2929.0044              2999.2455
 Red. masses --      1.1058                 1.0735                 1.0812
 Frc consts  --      1.5814                 5.4259                 5.7303
 IR Inten    --     13.0802                44.4131                 3.6392

                     70                     71                     72
                      A                      A                      A
 Frequencies --   2999.9441              3011.0384              3025.3787
 Red. masses --      1.0649                 1.0668                 1.0818
 Frc consts  --      5.6468                 5.6988                 5.8338
 IR Inten    --     90.4969                77.5420                17.2308

                     73                     74                     75
                      A                      A                      A
 Frequencies --   3038.4682              3042.3422              3045.1018
 Red. masses --      1.0392                 1.0536                 1.0438
 Frc consts  --      5.6529                 5.7456                 5.7026
 IR Inten    --     19.9739                16.1200                52.7646

                     76                     77                     78
                      A                      A                      A
 Frequencies --   3047.9632              3070.2085              3080.1988
 Red. masses --      1.0702                 1.0982                 1.0989
 Frc consts  --      5.8579                 6.0991                 6.1429
 IR Inten    --     34.8714                54.3101                29.2857

                     79                     80                     81
                      A                      A                      A
 Frequencies --   3088.9988              3098.7081              3105.9642
 Red. masses --      1.0887                 1.1001                 1.0992
 Frc consts  --      6.1206                 6.2236                 6.2474
 IR Inten    --     69.1068                 1.9953                11.0207

                     82                     83                     84
                      A                      A                      A
 Frequencies --   3106.9512              3123.2506              3125.0956
 Red. masses --      1.0989                 1.1007                 1.1003
 Frc consts  --      6.2500                 6.3260                 6.3311
 IR Inten    --     99.5418                12.5237                61.8742

                     85                     86                     87
                      A                      A                      A
 Frequencies --   3138.7287              3500.1980              3517.1117
 Red. masses --      1.0974                 1.0760                 1.0729
 Frc consts  --      6.3695                 7.7670                 7.8192
 IR Inten    --     40.1046                 4.5277                 1.9840

 - Thermochemistry -
 -------------------
 Temperature   298.150 Kelvin.  Pressure   1.00000 Atm.
 Atom     1 has atomic number  6 and mass  12.00000

 Molecular mass:   156.16265 amu.
 Principal axes and moments of inertia in atomic units:
                           1         2         3
     Eigenvalues --   883.685413440.860973923.53418
           X            0.99999   0.00398   0.00253
           Y           -0.00401   0.99989   0.01407
           Z           -0.00247  -0.01408   0.99990
 This molecule is an asymmetric top.
 Rotational symmetry number  1.
 Warning -- assumption of classical behavior for rotation
           may cause significant error
 Rotational temperatures (Kelvin)      0.09801     0.02517     0.02208
 Rotational constants (GHZ):           2.04229     0.52450     0.45998
 Zero-point vibrational energy     758504.3 (Joules/Mol)
                                  181.28687 (Kcal/Mol)
 Warning -- explicit consideration of  18 degrees of freedom as
           vibrations may cause significant error
 Vibrational temperatures:     61.42    69.73    81.81   161.11   216.62
          (Kelvin)            271.01   300.86   315.78   364.09   414.20
                              432.93   485.79   548.44   584.06   606.64
                              641.18   726.05   765.02   979.57  1122.96
                             1142.27  1207.07  1283.62  1337.79  1346.48
                             1351.08  1365.27  1386.81  1405.35  1428.33
                             1453.17  1469.59  1504.58  1523.78  1558.22
                             1609.52  1624.37  1674.41  1692.98  1717.81
                             1726.96  1741.74  1772.53  1790.13  1842.97
                             1851.44  1909.06  1932.74  1951.88  1966.17
                             1984.63  1996.45  2016.61  2055.26  2064.63
                             2075.28  2086.96  2180.32  2191.56  2193.56
                             2201.05  2204.51  2211.83  2224.82  2231.65
                             2236.93  2241.53  4214.18  4315.25  4316.25
                             4332.21  4352.85  4371.68  4377.25  4381.22
                             4385.34  4417.35  4431.72  4444.38  4458.35
                             4468.79  4470.21  4493.66  4496.32  4515.93
                             5036.00  5060.34

 Zero-point correction=                           0.288899 (Hartree/Particle)
 Thermal correction to Energy=                    0.301759
 Thermal correction to Enthalpy=                  0.302703
 Thermal correction to Gibbs Free Energy=         0.249298
 Sum of electronic and zero-point Energies=           -464.216266
 Sum of electronic and thermal Energies=              -464.203406
 Sum of electronic and thermal Enthalpies=            -464.202462
 Sum of electronic and thermal Free Energies=         -464.255867

                     E (Thermal)             CV                S
                      KCal/Mol        Cal/Mol-Kelvin    Cal/Mol-Kelvin
 Total                  189.357             48.238            112.401
 Electronic               0.000              0.000              0.000
 Translational            0.889              2.981             41.047
 Rotational               0.889              2.981             30.857
 Vibrational            187.579             42.277             40.497
 Vibration     1          0.595              1.980              5.130
 Vibration     2          0.595              1.978              4.879
 Vibration     3          0.596              1.975              4.563
 Vibration     4          0.607              1.940              3.234
 Vibration     5          0.618              1.902              2.665
 Vibration     6          0.633              1.856              2.244
 Vibration     7          0.642              1.827              2.051
 Vibration     8          0.647              1.811              1.963
 Vibration     9          0.664              1.758              1.709
 Vibration    10          0.685              1.696              1.486
 Vibration    11          0.693              1.672              1.412
 Vibration    12          0.718              1.600              1.223
 Vibration    13          0.751              1.510              1.034
 Vibration    14          0.771              1.457              0.941
 Vibration    15          0.784              1.423              0.886
 Vibration    16          0.805              1.371              0.809
 Vibration    17          0.860              1.240              0.647
 Vibration    18          0.887              1.180              0.583

                           ! Non-Optimized Parameters !

 1\1\GINC-NODE104\Freq\RB3LYP\6-31G(d)\C9H20N2\VSC10255\08-Dec-2020\0\\
 #N Geom=AllCheck Guess=TCheck SCRF=Check GenChk RB3LYP/6-31G(d) Freq\\
 CID_65959356_JID_1402_neutraal\\0,1\C,1.003546763,0.2101182399,-0.2319
 84488\C,0.5203166362,1.4701732079,0.501853153\C,1.2374867679,2.6967097
 215,-0.0824578532\C,-1.0256872338,1.5976778935,0.4813014134\C,-1.69793
 88518,0.4129578004,1.1920632309\C,-1.5260526958,2.9189333261,1.1034579
 943\N,-1.7034471388,3.9731806376,0.105809775\C,-2.0884844222,5.2488149
 152,0.6753482194\C,-0.9898473393,6.0508335413,1.4472313232\N,-0.688116

 Normal termination of Gaussian 16 at Tue Dec  8 20:10:12 2020.

 ----------------------------------------------------------------------
 # B3LYP/6-311++G(d,p) empiricaldispersion=gd3bj scf=xqc pop=npa geom=c
 heck
 ----------------------------------------------------------------------

 --------------------------------------
 CID_65959356_JID_1402_Energie_neutraal
 --------------------------------------
 Structure from the checkpoint file:  "JID_1402.chk"
 Charge =  0 Multiplicity = 1

 SCF Done:  E(RB3LYP) =  -464.642067931     A.U. after   13 cycles
 Normal termination of Gaussian 16 at Tue Dec  8 20:13:56 2020.

 ----------------------------------------------------------------------
 # B3LYP/6-311++G(d,p) empiricaldispersion=gd3bj scf=xqc pop=npa geom=c
 heck
 ----------------------------------------------------------------------

 ------------------------------------
 CID_65959356_JID_1402_Energie_kation
 ------------------------------------
 Structure from the checkpoint file:  "JID_1402.chk"
 Charge =  1 Multiplicity = 2

 SCF Done:  E(UB3LYP) =  -464.346419413     A.U. after   19 cycles
 Normal termination of Gaussian 16 at Tue Dec  8 20:20:56 2020.
 Gaussian 16:  ES64L-G16RevA.03 25-Dec-2016

 -----------------------------------
 CID_65959356_JID_1402_Energie_anion
 -----------------------------------
 Structure from the checkpoint file:  "JID_1402.chk"
 Charge = -1 Multiplicity = 2

                         Standard orientation:
 ---------------------------------------------------------------------
 Center     Atomic      Atomic             Coordinates (Angstroms)
 Number     Number       Type             X           Y           Z
 ---------------------------------------------------------------------
      1          6           0       -3.536192   -1.054979   -0.333272
      2          6           0       -2.188009   -0.687313    0.304687
      3          6           0       -1.199517   -1.843432    0.089237
      4          6           0       -1.655505    0.676813   -0.207570
      5          6           0       -2.614693    1.824103    0.145063
      6          6           0       -0.244554    1.007102    0.324676
      7          7           0        0.811979    0.567451   -0.585628
      8          6           0        2.148009    0.786887   -0.069156
      9          6           0        2.635602   -0.152989    1.081899
     10          7           0        3.236120   -1.031392    0.048967
     11          6           0        3.229890    0.087703   -0.925230
     12          1           0       -3.445042   -1.106972   -1.426072
     13          1           0       -4.323112   -0.333354   -0.096544
     14          1           0       -3.874531   -2.036779    0.017216
     15          1           0       -2.343101   -0.583309    1.390311
     16          1           0       -0.980099   -1.979922   -0.978094
     17          1           0       -0.252255   -1.691995    0.615934
     18          1           0       -1.625963   -2.784406    0.454947
     19          1           0       -1.573529    0.622834   -1.303130
     20          1           0       -2.711508    1.930029    1.233763
     21          1           0       -2.239646    2.774595   -0.249767
     22          1           0       -3.616697    1.670213   -0.264543
     23          1           0       -0.136035    2.094847    0.426186
     24          1           0       -0.137613    0.595418    1.347428
     25          1           0        0.704864   -0.423516   -0.790853
     26          1           0        2.283287    1.858131    0.110357
     27          1           0        3.363508    0.344290    1.742013
     28          1           0        1.868657   -0.635148    1.700756
     29          1           0        4.153462   -1.409157    0.276712
     30          1           0        2.934156   -0.189227   -1.944186
     31          1           0        4.164321    0.667651   -0.967809
 ---------------------------------------------------------------------

 SCF Done:  E(UB3LYP) =  -464.625553217     A.U. after   28 cycles

 The electronic state is 2-A.
 Alpha  occ. eigenvalues --  -14.19506 -14.19122 -10.09549 -10.08866 -10.08737
 Alpha  occ. eigenvalues --  -10.08346 -10.07842 -10.07550 -10.06316 -10.06287
 Alpha  occ. eigenvalues --  -10.06229  -0.83828  -0.78833  -0.71970  -0.65321
 Alpha  occ. eigenvalues --   -0.60746  -0.58660  -0.57000  -0.55346  -0.51234
 Alpha  occ. eigenvalues --   -0.47005  -0.45106  -0.41803  -0.38167  -0.37337
 Alpha  occ. eigenvalues --   -0.36377  -0.34800  -0.32669  -0.31471  -0.30903
 Alpha  occ. eigenvalues --   -0.30074  -0.29634  -0.29217  -0.28303  -0.27028
 Alpha  occ. eigenvalues --   -0.26102  -0.25429  -0.24162  -0.23223  -0.22721
 Alpha  occ. eigenvalues --   -0.21585  -0.21018  -0.13322  -0.12033   0.04548
 Alpha virt. eigenvalues --    0.06005   0.07194   0.07783   0.08528   0.08874
 Alpha virt. eigenvalues --    0.09060   0.10177   0.10733   0.11061   0.11471
 Alpha virt. eigenvalues --    0.11737   0.11998   0.13178   0.14026   0.14179

  Beta  occ. eigenvalues --  -14.19503 -14.19096 -10.09542 -10.08855 -10.08716
  Beta  occ. eigenvalues --  -10.08316 -10.07832 -10.07546 -10.06303 -10.06265
  Beta  occ. eigenvalues --  -10.06203  -0.83800  -0.78813  -0.71950  -0.65294
  Beta  occ. eigenvalues --   -0.60702  -0.58612  -0.56937  -0.55299  -0.51189
  Beta  occ. eigenvalues --   -0.46960  -0.45062  -0.41709  -0.38136  -0.37310
  Beta  occ. eigenvalues --   -0.36351  -0.34765  -0.32639  -0.31444  -0.30874
  Beta  occ. eigenvalues --   -0.30022  -0.29608  -0.29188  -0.28274  -0.27004
  Beta  occ. eigenvalues --   -0.26071  -0.25397  -0.24120  -0.23191  -0.22679
  Beta  occ. eigenvalues --   -0.21564  -0.20993  -0.13286  -0.12009
  Beta virt. eigenvalues --    0.06581   0.07415   0.07634   0.08191   0.09173
  Beta virt. eigenvalues --    0.09275   0.09657   0.10488   0.11052   0.11319
  Beta virt. eigenvalues --    0.11873   0.12210   0.12326   0.13444   0.14114

 Mulliken charges and spin densities:
               1          2
     1  C    0.620310  -1.315306
     2  C   -0.376686   0.888137
     3  C   -0.224050  -0.440305
     4  C   -0.532024   0.961869
     5  C    0.495894  -1.336655
     6  C   -0.013598  -0.806549
     7  N    0.183997  -0.102710
     8  C   -2.205726   2.148885
     9  C    1.742035  -2.193643
    10  N   -0.450842   0.286120
    11  C    1.609439  -2.058395
    12  H    0.010626   0.125965
    13  H   -0.219931   0.349378
    14  H   -0.176321   0.309218
    15  H   -0.169218   0.340763
    16  H    0.002512   0.140548
    17  H    0.197034  -0.057995
    18  H   -0.129591   0.275553
    19  H    0.084207   0.108298
    20  H   -0.104274   0.258678
    21  H    0.004449   0.123170
    22  H   -0.103745   0.234146
    23  H   -0.147319   0.316206
    24  H    0.201806  -0.075493
    25  H    0.380948  -0.183946
    26  H   -0.166811   0.368234
    27  H   -0.693538   0.835733
    28  H   -0.162527   0.315704
    29  H   -0.056661   0.297815
    30  H    0.047425   0.095131
    31  H   -0.647820   0.791446
 Sum of Mulliken charges =  -1.00000   1.00000

 Dipole moment (field-independent basis, Debye):
    X=             -3.8432    Y=             -0.2705    Z=             -2.2254  Tot=              4.4492
 Quadrupole moment (field-independent basis, Debye-Ang):
   XX=           -169.4730   YY=           -110.1635   ZZ=           -104.2002
   XY=             -3.8923   XZ=             -3.1773   YZ=              0.3507

 Summary of Natural Population Analysis:

                                       Natural Population
                Natural  -----------------------------------------------
    Atom  No    Charge         Core      Valence    Rydberg      Total
 -----------------------------------------------------------------------
      C    1   -0.28481      0.99965     2.27892    0.00625     3.28481
      C    2   -0.10978      0.99960     2.10027    0.00992     3.10978
      C    3   -0.28966      0.99965     2.28347    0.00655     3.28966
      C    4   -0.11502      0.99959     2.10501    0.01042     3.11502
      C    5   -0.28296      0.99965     2.27768    0.00563     3.28296
      C    6   -0.08533      0.99960     2.07472    0.01101     3.08533
      N    7   -0.33870      0.99973     2.82866    0.01031     3.83870
      C    8   -0.01372      0.99959     1.99914    0.01499     3.01372
      C    9   -0.09341      0.99964     2.08285    0.01093     3.09341
      N   10   -0.34935      0.99977     2.83609    0.01349     3.84935
      C   11   -0.08424      0.99964     2.07310    0.01151     3.08424
      H   12    0.09481      0.00000     0.40424    0.00095     0.40519
      H   13    0.10042      0.00000     0.39854    0.00104     0.39958
      H   14    0.09901      0.00000     0.40001    0.00098     0.40099
      H   15    0.09232      0.00000     0.40596    0.00172     0.40768
      H   16    0.09503      0.00000     0.40403    0.00094     0.40497
      H   17    0.10281      0.00000     0.39608    0.00111     0.39719
      H   18    0.10029      0.00000     0.39887    0.00084     0.39971
      H   19    0.09572      0.00000     0.40239    0.00190     0.40428
      H   20    0.09723      0.00000     0.40173    0.00104     0.40277
      H   21    0.09863      0.00000     0.40056    0.00081     0.40137
      H   22    0.09944      0.00000     0.39969    0.00087     0.40056
      H   23    0.09188      0.00000     0.40654    0.00159     0.40812
      H   24    0.08072      0.00000     0.41762    0.00167     0.41928
      H   25    0.17633      0.00000     0.31935    0.00432     0.32367
      H   26    0.09352      0.00000     0.40500    0.00148     0.40648
      H   27    0.08859      0.00000     0.40783    0.00358     0.41141
      H   28    0.08766      0.00000     0.41079    0.00155     0.41234
      H   29    0.17597      0.00000     0.32046    0.00357     0.32403
      H   30    0.08796      0.00000     0.41064    0.00140     0.41204
      H   31    0.08864      0.00000     0.40885    0.00251     0.41136
 =======================================================================
   * Total *   -0.00000     10.99609    32.85907    0.14484    44.00000

 Normal termination of Gaussian 16 at Tue Dec  8 20:31:53 2020.
