 Gaussian 16, Revision A.03,

 -----------------------------------------------------------
 # opt freq B3LYP/6-31G(d) empiricaldispersion=gd3bj scf=xqc
 -----------------------------------------------------------

 ------------------------------
 CID_77054128_JID_1448_neutraal
 ------------------------------
 Symbolic Z-matrix:
 Charge =  0 Multiplicity = 1

 SCF Done:  E(RB3LYP) =  -510.165877512     A.U. after   15 cycles
 SCF Done:  E(RB3LYP) =  -510.164869395     A.U. after   13 cycles
 SCF Done:  E(RB3LYP) =  -510.179051686     A.U. after   13 cycles
 SCF Done:  E(RB3LYP) =  -510.177815476     A.U. after   12 cycles
 SCF Done:  E(RB3LYP) =  -510.179601916     A.U. after   12 cycles
 SCF Done:  E(RB3LYP) =  -510.181414744     A.U. after   12 cycles
 SCF Done:  E(RB3LYP) =  -510.182141764     A.U. after   13 cycles
 SCF Done:  E(RB3LYP) =  -510.183483125     A.U. after   15 cycles
 SCF Done:  E(RB3LYP) =  -510.184539955     A.U. after   14 cycles
 SCF Done:  E(RB3LYP) =  -510.186481232     A.U. after   13 cycles
 SCF Done:  E(RB3LYP) =  -510.197662321     A.U. after   11 cycles
 SCF Done:  E(RB3LYP) =  -510.197661668     A.U. after   11 cycles
 SCF Done:  E(RB3LYP) =  -510.197662624     A.U. after   10 cycles
 SCF Done:  E(RB3LYP) =  -510.197662610     A.U. after    8 cycles
 SCF Done:  E(RB3LYP) =  -510.197662736     A.U. after    8 cycles
 SCF Done:  E(RB3LYP) =  -510.197662763     A.U. after    8 cycles
 Optimization completed.
    -- Stationary point found.

 1\1\GINC-NODE309\FOpt\RB3LYP\6-31G(d)\C6H13N5\VSC10255\08-Dec-2020\0\\
 # opt freq B3LYP/6-31G(d) empiricaldispersion=gd3bj scf=xqc\\CID_77054
 128_JID_1448_neutraal\\0,1\C,1.2736816865,-0.5078319237,0.5524065087\C
 ,0.1754141537,-0.0276465356,1.5028695454\C,0.5486351311,1.327391894,2.
 1509177256\C,1.8430377712,1.2664273763,2.8267627442\N,2.8713221487,1.1
 99117049,3.3612068746\N,-1.1064037064,0.1161876519,0.7729583203\C,-1.6
 845993152,-1.1669696291,0.372019793\C,-2.0584832817,0.9817749779,1.397
 8116752\N,-2.2876114243,2.1739398485,0.9919985392\N,-1.4605589085,2.66

 Normal termination of Gaussian 16 at Tue Dec  8 20:12:34 2020.

 --------------------------------------------------------------------
 #N Geom=AllCheck Guess=TCheck SCRF=Check GenChk RB3LYP/6-31G(d) Freq
 --------------------------------------------------------------------

 Structure from the checkpoint file:  "JID_1448.chk"
 ------------------------------
 CID_77054128_JID_1448_neutraal
 ------------------------------
 Charge =  0 Multiplicity = 1

 SCF Done:  E(RB3LYP) =  -510.197662762     A.U. after    1 cycles

  Exact polarizability: 102.226   3.648  89.324   1.088   7.143  88.867
 Approx polarizability: 142.757   8.925 129.695   5.553  19.083 138.296

                      1                      2                      3
                      A                      A                      A
 Frequencies --     26.6591                62.6488                93.7192
 Red. masses --      2.9701                 5.2229                 3.3631
 Frc consts  --      0.0012                 0.0121                 0.0174
 IR Inten    --      0.7202                 0.9495                 4.6572

                      4                      5                      6
                      A                      A                      A
 Frequencies --    124.6149               178.3282               194.8789
 Red. masses --      5.6447                 3.3396                 3.2043
 Frc consts  --      0.0516                 0.0626                 0.0717
 IR Inten    --      3.1965                 7.7821                 0.9788

                      7                      8                      9
                      A                      A                      A
 Frequencies --    220.6438               234.2657               295.9362
 Red. masses --      1.0295                 1.3667                 2.3767
 Frc consts  --      0.0295                 0.0442                 0.1226
 IR Inten    --      2.3765                 1.5165                18.4237

                     10                     11                     12
                      A                      A                      A
 Frequencies --    318.1156               325.5362               351.9997
 Red. masses --      3.1172                 2.3457                 1.5611
 Frc consts  --      0.1859                 0.1465                 0.1140
 IR Inten    --     15.2123                13.8621                15.9070

                     13                     14                     15
                      A                      A                      A
 Frequencies --    372.0032               387.3134               403.6314
 Red. masses --      2.2735                 2.5013                 3.1945
 Frc consts  --      0.1854                 0.2211                 0.3066
 IR Inten    --      1.0365                40.5477                 0.4480

                     16                     17                     18
                      A                      A                      A
 Frequencies --    426.8774               445.4921               540.0886
 Red. masses --      1.6318                 2.3101                 3.9763
 Frc consts  --      0.1752                 0.2701                 0.6834
 IR Inten    --     21.2332                27.8483                 3.8481

                     19                     20                     21
                      A                      A                      A
 Frequencies --    556.7946               650.1477               703.7566
 Red. masses --      3.1409                 4.6221                 2.8380
 Frc consts  --      0.5737                 1.1511                 0.8282
 IR Inten    --      5.4886                13.2843                46.9017

                     22                     23                     24
                      A                      A                      A
 Frequencies --    763.3743               793.1235               865.8168
 Red. masses --      3.3902                 1.9293                 2.6724
 Frc consts  --      1.1640                 0.7150                 1.1803
 IR Inten    --      9.0363               245.2986                 5.7783

                     25                     26                     27
                      A                      A                      A
 Frequencies --    892.3026               908.4837               963.3269
 Red. masses --      1.8784                 1.4167                 3.2353
 Frc consts  --      0.8812                 0.6889                 1.7689
 IR Inten    --    131.3076                 2.2596                21.5917

                     28                     29                     30
                      A                      A                      A
 Frequencies --    991.7047              1078.6452              1094.2169
 Red. masses --      2.3106                 1.8729                 1.5676
 Frc consts  --      1.3389                 1.2839                 1.1059
 IR Inten    --      3.1932                15.5632                43.4885

                     31                     32                     33
                      A                      A                      A
 Frequencies --   1117.2784              1129.1458              1165.9325
 Red. masses --      3.0094                 1.8019                 1.3938
 Frc consts  --      2.2134                 1.3536                 1.1164
 IR Inten    --     13.1646                 5.4789                 3.4631

                     34                     35                     36
                      A                      A                      A
 Frequencies --   1197.2194              1211.0395              1245.2478
 Red. masses --      2.8956                 2.3660                 1.8610
 Frc consts  --      2.4453                 2.0445                 1.7002
 IR Inten    --     46.5346                19.8408                 1.8144

                     37                     38                     39
                      A                      A                      A
 Frequencies --   1281.1480              1319.4009              1365.1719
 Red. masses --      1.3085                 1.4991                 1.4528
 Frc consts  --      1.2654                 1.5376                 1.5953
 IR Inten    --      9.6182                47.4154                13.7851

                     40                     41                     42
                      A                      A                      A
 Frequencies --   1380.0433              1391.7710              1411.0638
 Red. masses --      1.8321                 1.3689                 1.4378
 Frc consts  --      2.0558                 1.5622                 1.6867
 IR Inten    --     32.5367                15.1029                27.5218

                     43                     44                     45
                      A                      A                      A
 Frequencies --   1444.4543              1482.8322              1499.3625
 Red. masses --      1.2727                 1.1781                 1.0911
 Frc consts  --      1.5645                 1.5263                 1.4453
 IR Inten    --     14.2753                 2.8826                 8.4346

                     46                     47                     48
                      A                      A                      A
 Frequencies --   1516.3766              1525.0450              1541.1443
 Red. masses --      1.0479                 1.0576                 1.0447
 Frc consts  --      1.4197                 1.4492                 1.4620
 IR Inten    --      6.1765                 2.4609                11.9656

                     49                     50                     51
                      A                      A                      A
 Frequencies --   1548.3953              1651.7997              1665.7238
 Red. masses --      1.0591                 1.1460                 1.1293
 Frc consts  --      1.4960                 1.8422                 1.8462
 IR Inten    --     11.1930                32.5373                54.7745

                     52                     53                     54
                      A                      A                      A
 Frequencies --   1747.9399              2370.4479              2965.4886
 Red. masses --      6.3542                12.5915                 1.0606
 Frc consts  --     11.4385                41.6859                 5.4952
 IR Inten    --    100.2305                14.0980                60.0946

                     55                     56                     57
                      A                      A                      A
 Frequencies --   2976.3318              3064.6664              3070.8801
 Red. masses --      1.0824                 1.0375                 1.0610
 Frc consts  --      5.6496                 5.7412                 5.8949
 IR Inten    --     51.8357                11.3325                 3.4217

                     58                     59                     60
                      A                      A                      A
 Frequencies --   3104.0028              3121.3480              3135.0981
 Red. masses --      1.0732                 1.1008                 1.1024
 Frc consts  --      6.0924                 6.3191                 6.3841
 IR Inten    --     24.3491                 0.9896                19.6157

                     61                     62                     63
                      A                      A                      A
 Frequencies --   3144.0257              3148.9816              3410.4042
 Red. masses --      1.1024                 1.1021                 1.0522
 Frc consts  --      6.4202                 6.4390                 7.2107
 IR Inten    --     20.7029                21.2334                 7.3192

                     64                     65                     66
                      A                      A                      A
 Frequencies --   3516.2164              3574.9531              3616.8587
 Red. masses --      1.0474                 1.0902                 1.0966
 Frc consts  --      7.6298                 8.2092                 8.4519
 IR Inten    --      7.1293                 3.6878                 8.6465

 - Thermochemistry -
 -------------------
 Temperature   298.150 Kelvin.  Pressure   1.00000 Atm.
 Atom     1 has atomic number  6 and mass  12.00000

 Molecular mass:   155.11710 amu.
 Principal axes and moments of inertia in atomic units:
                           1         2         3
     Eigenvalues --  1214.427482404.359572710.59436
           X            0.99984   0.00774  -0.01594
           Y           -0.00780   0.99996  -0.00347
           Z            0.01592   0.00359   0.99987
 This molecule is an asymmetric top.
 Rotational symmetry number  1.
 Warning -- assumption of classical behavior for rotation
           may cause significant error
 Rotational temperatures (Kelvin)      0.07132     0.03602     0.03195
 Rotational constants (GHZ):           1.48608     0.75061     0.66581
 Zero-point vibrational energy     540243.7 (Joules/Mol)
                                  129.12133 (Kcal/Mol)
 Warning -- explicit consideration of  19 degrees of freedom as
           vibrations may cause significant error
 Vibrational temperatures:     38.36    90.14   134.84   179.29   256.57
          (Kelvin)            280.39   317.46   337.06   425.79   457.70
                              468.37   506.45   535.23   557.26   580.74
                              614.18   640.96   777.07   801.10   935.42
                             1012.55  1098.33  1141.13  1245.72  1283.82
                             1307.11  1386.01  1426.84  1551.93  1574.33
                             1607.51  1624.59  1677.52  1722.53  1742.42
                             1791.63  1843.29  1898.32  1964.18  1985.57
                             2002.45  2030.21  2078.25  2133.46  2157.25
                             2181.73  2194.20  2217.36  2227.80  2376.57
                             2396.61  2514.90  3410.55  4266.68  4282.28
                             4409.37  4418.31  4465.97  4490.92  4510.71
                             4523.55  4530.68  4906.81  5059.05  5143.56
                             5203.85

 Zero-point correction=                           0.205768 (Hartree/Particle)
 Thermal correction to Energy=                    0.218326
 Thermal correction to Enthalpy=                  0.219270
 Thermal correction to Gibbs Free Energy=         0.166884
 Sum of electronic and zero-point Energies=           -509.991895
 Sum of electronic and thermal Energies=              -509.979337
 Sum of electronic and thermal Enthalpies=            -509.978393
 Sum of electronic and thermal Free Energies=         -510.030779

                     E (Thermal)             CV                S
                      KCal/Mol        Cal/Mol-Kelvin    Cal/Mol-Kelvin
 Total                  137.001             45.953            110.255
 Electronic               0.000              0.000              0.000
 Translational            0.889              2.981             41.027
 Rotational               0.889              2.981             30.449
 Vibrational            135.224             39.992             38.780
 Vibration     1          0.593              1.984              6.064
 Vibration     2          0.597              1.972              4.372
 Vibration     3          0.603              1.954              3.581
 Vibration     4          0.610              1.928              3.028
 Vibration     5          0.629              1.869              2.346
 Vibration     6          0.636              1.847              2.181
 Vibration     7          0.647              1.810              1.954
 Vibration     8          0.654              1.788              1.846
 Vibration     9          0.690              1.681              1.440
 Vibration    10          0.705              1.639              1.320
 Vibration    11          0.710              1.624              1.282
 Vibration    12          0.729              1.571              1.157
 Vibration    13          0.744              1.530              1.072
 Vibration    14          0.756              1.497              1.010
 Vibration    15          0.769              1.462              0.949
 Vibration    16          0.789              1.412              0.869
 Vibration    17          0.805              1.371              0.810
 Vibration    18          0.895              1.161              0.565
 Vibration    19          0.912              1.125              0.530

 Optimization completed.
    -- Stationary point found.

 1\1\GINC-NODE309\Freq\RB3LYP\6-31G(d)\C6H13N5\VSC10255\08-Dec-2020\0\\
 #N Geom=AllCheck Guess=TCheck SCRF=Check GenChk RB3LYP/6-31G(d) Freq\\
 CID_77054128_JID_1448_neutraal\\0,1\C,1.2736816865,-0.5078319237,0.552
 4065087\C,0.1754141537,-0.0276465356,1.5028695454\C,0.5486351311,1.327
 391894,2.1509177256\C,1.8430377712,1.2664273763,2.8267627442\N,2.87132
 21487,1.199117049,3.3612068746\N,-1.1064037064,0.1161876519,0.77295832
 03\C,-1.6845993152,-1.1669696291,0.372019793\C,-2.0584832817,0.9817749
 779,1.3978116752\N,-2.2876114243,2.1739398485,0.9919985392\N,-1.460558

 Normal termination of Gaussian 16 at Tue Dec  8 20:17:53 2020.

 ----------------------------------------------------------------------
 # B3LYP/6-311++G(d,p) empiricaldispersion=gd3bj scf=xqc pop=npa geom=c
 heck
 ----------------------------------------------------------------------

 --------------------------------------
 CID_77054128_JID_1448_Energie_neutraal
 --------------------------------------
 Structure from the checkpoint file:  "JID_1448.chk"
 Charge =  0 Multiplicity = 1

 SCF Done:  E(RB3LYP) =  -510.357642600     A.U. after   14 cycles
 Normal termination of Gaussian 16 at Tue Dec  8 20:19:50 2020.

 ----------------------------------------------------------------------
 # B3LYP/6-311++G(d,p) empiricaldispersion=gd3bj scf=xqc pop=npa geom=c
 heck
 ----------------------------------------------------------------------

 ------------------------------------
 CID_77054128_JID_1448_Energie_kation
 ------------------------------------
 Structure from the checkpoint file:  "JID_1448.chk"
 Charge =  1 Multiplicity = 2

 SCF Done:  E(UB3LYP) =  -510.057300874     A.U. after   23 cycles
 Normal termination of Gaussian 16 at Tue Dec  8 20:24:09 2020.
 Gaussian 16:  ES64L-G16RevA.03 25-Dec-2016

 -----------------------------------
 CID_77054128_JID_1448_Energie_anion
 -----------------------------------
 Structure from the checkpoint file:  "JID_1448.chk"
 Charge = -1 Multiplicity = 2

                         Standard orientation:
 ---------------------------------------------------------------------
 Center     Atomic      Atomic             Coordinates (Angstroms)
 Number     Number       Type             X           Y           Z
 ---------------------------------------------------------------------
      1          6           0       -1.421779   -1.570589    0.956362
      2          6           0       -0.687588   -0.735639   -0.094339
      3          6           0       -1.213071    0.719898   -0.120249
      4          6           0       -2.659737    0.770086   -0.321748
      5          7           0       -3.808746    0.791304   -0.485631
      6          7           0        0.767733   -0.725000    0.185735
      7          6           0        1.406525   -2.019946   -0.052204
      8          6           0        1.484196    0.363043   -0.405012
      9          7           0        1.871751    1.385232    0.260850
     10          7           0        1.444066    1.475221    1.588848
     11          7           0        1.653961    0.341407   -1.799778
     12          1           0       -1.236848   -1.163719    1.956515
     13          1           0       -1.097751   -2.614719    0.943851
     14          1           0       -2.498682   -1.557684    0.766507
     15          1           0       -0.871627   -1.170208   -1.091874
     16          1           0       -0.950082    1.228507    0.815065
     17          1           0       -0.734726    1.274579   -0.933109
     18          1           0        1.218069   -2.421999   -1.064229
     19          1           0        2.485758   -1.917775    0.091747
     20          1           0        1.043764   -2.756482    0.668630
     21          1           0        2.159348    1.977719    2.105335
     22          1           0        1.299347    0.543644    1.987291
     23          1           0        1.966035   -0.552506   -2.165706
     24          1           0        2.264761    1.092371   -2.107056
 ---------------------------------------------------------------------

 SCF Done:  E(UB3LYP) =  -510.349117139     A.U. after   27 cycles

 The electronic state is 2-A.
 Alpha  occ. eigenvalues --  -14.23081 -14.22418 -14.22131 -14.22072 -14.21472
 Alpha  occ. eigenvalues --  -10.15419 -10.12799 -10.12269 -10.11606 -10.08838
 Alpha  occ. eigenvalues --  -10.06957  -0.90426  -0.83796  -0.81905  -0.79140
 Alpha  occ. eigenvalues --   -0.70917  -0.68073  -0.63006  -0.58693  -0.52243
 Alpha  occ. eigenvalues --   -0.46405  -0.44155  -0.42853  -0.42366  -0.38992
 Alpha  occ. eigenvalues --   -0.37932  -0.36490  -0.34953  -0.33602  -0.32192
 Alpha  occ. eigenvalues --   -0.30676  -0.28725  -0.27974  -0.27373  -0.27270
 Alpha  occ. eigenvalues --   -0.26914  -0.23804  -0.23320  -0.21202  -0.18128
 Alpha  occ. eigenvalues --   -0.14515  -0.11046   0.04397
 Alpha virt. eigenvalues --    0.07038   0.07614   0.08566   0.09848   0.10132
 Alpha virt. eigenvalues --    0.10482   0.11106   0.11350   0.11565   0.12072
 Alpha virt. eigenvalues --    0.12512   0.13442   0.13886   0.14178   0.14642

  Beta  occ. eigenvalues --  -14.23069 -14.22403 -14.22125 -14.22053 -14.21408
  Beta  occ. eigenvalues --  -10.15417 -10.12789 -10.12269 -10.11599 -10.08757
  Beta  occ. eigenvalues --  -10.06931  -0.90401  -0.83766  -0.81894  -0.79060
  Beta  occ. eigenvalues --   -0.70889  -0.68017  -0.62970  -0.58573  -0.52191
  Beta  occ. eigenvalues --   -0.46315  -0.44122  -0.42793  -0.42327  -0.38957
  Beta  occ. eigenvalues --   -0.37883  -0.36430  -0.34886  -0.33564  -0.32138
  Beta  occ. eigenvalues --   -0.30630  -0.28686  -0.27939  -0.27340  -0.27234
  Beta  occ. eigenvalues --   -0.26882  -0.23789  -0.23299  -0.21160  -0.18050
  Beta  occ. eigenvalues --   -0.14455  -0.11013
  Beta virt. eigenvalues --    0.07012   0.07977   0.08381   0.09203   0.10326
  Beta virt. eigenvalues --    0.10493   0.10733   0.11541   0.11752   0.12055
  Beta virt. eigenvalues --    0.12196   0.12788   0.13933   0.14201   0.14555

 Mulliken charges and spin densities:
               1          2
     1  C    0.552114  -1.048982
     2  C   -0.699189   0.424306
     3  C    0.350547   0.345369
     4  C   -0.526099  -0.465172
     5  N   -0.278325   0.006927
     6  N   -0.117988   0.259699
     7  C    2.011252  -2.303748
     8  C    0.247750  -0.886486
     9  N   -0.102573   0.161799
    10  N   -0.263716  -0.180803
    11  N   -0.384635   0.258875
    12  H   -0.071240   0.216795
    13  H   -0.083757   0.235129
    14  H    0.120493   0.030018
    15  H    0.017523   0.186905
    16  H    0.190232   0.011076
    17  H    0.125875   0.133393
    18  H   -0.515592   0.665946
    19  H   -0.795926   0.967319
    20  H   -0.688397   0.835542
    21  H    0.120358   0.159135
    22  H    0.197822   0.048081
    23  H   -0.208664   0.470984
    24  H   -0.197867   0.467894
 Sum of Mulliken charges =  -1.00000   1.00000

 Dipole moment (field-independent basis, Debye):
    X=             -3.0407    Y=              4.2732    Z=              3.2813  Tot=              6.1866
 Quadrupole moment (field-independent basis, Debye-Ang):
   XX=           -131.6134   YY=           -114.2517   ZZ=           -101.5404
   XY=             12.3912   XZ=              5.1175   YZ=              0.2086

 Summary of Natural Population Analysis:

                                       Natural Population
                Natural  -----------------------------------------------
    Atom  No    Charge         Core      Valence    Rydberg      Total
 -----------------------------------------------------------------------
      C    1   -0.29175      0.99964     2.28579    0.00633     3.29175
      C    2    0.00686      0.99958     1.98121    0.01234     2.99314
      C    3   -0.26298      0.99951     2.25653    0.00693     3.26298
      C    4    0.16718      0.99966     1.81574    0.01741     2.83282
      N    5   -0.19159      0.99979     2.68125    0.01055     3.69159
      N    6   -0.30538      0.99967     2.78884    0.01687     3.80538
      C    7   -0.18159      0.99963     2.17216    0.00980     3.18159
      C    8    0.28081      0.99958     1.69856    0.02105     2.71919
      N    9   -0.18252      0.99958     2.66825    0.01469     3.68252
      N   10   -0.32631      0.99975     2.81440    0.01216     3.82631
      N   11   -0.41144      0.99971     2.90142    0.01031     3.91144
      H   12    0.09966      0.00000     0.39903    0.00131     0.40034
      H   13    0.10728      0.00000     0.39174    0.00098     0.39272
      H   14    0.10521      0.00000     0.39398    0.00081     0.39479
      H   15    0.08949      0.00000     0.40799    0.00252     0.41051
      H   16    0.13196      0.00000     0.36591    0.00213     0.36804
      H   17    0.13285      0.00000     0.36547    0.00167     0.36715
      H   18    0.08826      0.00000     0.40753    0.00421     0.41174
      H   19    0.10629      0.00000     0.38976    0.00395     0.39371
      H   20    0.10200      0.00000     0.39507    0.00293     0.39800
      H   21    0.17512      0.00000     0.32294    0.00194     0.32488
      H   22    0.17647      0.00000     0.32136    0.00218     0.32353
      H   23    0.19328      0.00000     0.30031    0.00641     0.30672
      H   24    0.19085      0.00000     0.30586    0.00329     0.30915
 =======================================================================
   * Total *   -0.00000     10.99611    30.83112    0.17277    42.00000

 Normal termination of Gaussian 16 at Tue Dec  8 20:31:02 2020.
