 Gaussian 16, Revision A.03,

 -----------------------------------------------------------
 # opt freq B3LYP/6-31G(d) empiricaldispersion=gd3bj scf=xqc
 -----------------------------------------------------------

 ------------------------------
 CID_61001913_JID_5754_neutraal
 ------------------------------
 Symbolic Z-matrix:
 Charge =  0 Multiplicity = 1

 SCF Done:  E(RB3LYP) =  -692.411183921     A.U. after   14 cycles
 SCF Done:  E(RB3LYP) =  -692.417127879     A.U. after   12 cycles
 SCF Done:  E(RB3LYP) =  -692.417429869     A.U. after   12 cycles
 SCF Done:  E(RB3LYP) =  -692.417689621     A.U. after   11 cycles
 SCF Done:  E(RB3LYP) =  -692.417565531     A.U. after   11 cycles
 SCF Done:  E(RB3LYP) =  -692.417786941     A.U. after   11 cycles
 SCF Done:  E(RB3LYP) =  -692.417855242     A.U. after   10 cycles
 SCF Done:  E(RB3LYP) =  -692.417860532     A.U. after    9 cycles
 SCF Done:  E(RB3LYP) =  -692.417864261     A.U. after    9 cycles
 SCF Done:  E(RB3LYP) =  -692.417866635     A.U. after    9 cycles
 SCF Done:  E(RB3LYP) =  -692.417867467     A.U. after    9 cycles
 SCF Done:  E(RB3LYP) =  -692.417867595     A.U. after    7 cycles
 SCF Done:  E(RB3LYP) =  -692.417867634     A.U. after    6 cycles
 Optimization completed.
    -- Stationary point found.
 Normal termination of Gaussian 16 at Thu Dec 10 16:30:01 2020.

 --------------------------------------------------------------------
 #N Geom=AllCheck Guess=TCheck SCRF=Check GenChk RB3LYP/6-31G(d) Freq
 --------------------------------------------------------------------

 Structure from the checkpoint file:  "JID_5754.chk"
 ------------------------------
 CID_61001913_JID_5754_neutraal
 ------------------------------
 Charge =  0 Multiplicity = 1

 SCF Done:  E(RB3LYP) =  -692.417867634     A.U. after    1 cycles

  Exact polarizability: 148.488  -2.129 129.120  -3.542  -0.683 118.618
 Approx polarizability: 185.583  -2.391 181.502  -9.690   2.055 176.939

                      1                      2                      3
                      A                      A                      A
 Frequencies --     16.6166                38.0114                55.6748
 Red. masses --      3.4006                 4.1118                 3.8599
 Frc consts  --      0.0006                 0.0035                 0.0070
 IR Inten    --      0.2401                 0.8354                 1.0682

                      4                      5                      6
                      A                      A                      A
 Frequencies --     79.9992                94.5443               109.4414
 Red. masses --      2.8751                 1.9633                 2.5561
 Frc consts  --      0.0108                 0.0103                 0.0180
 IR Inten    --      0.3068                 0.0160                 0.1680

                      7                      8                      9
                      A                      A                      A
 Frequencies --    124.5495               141.7670               157.0533
 Red. masses --      3.1246                 1.2228                 2.7475
 Frc consts  --      0.0286                 0.0145                 0.0399
 IR Inten    --      1.4871                 0.2736                 0.9425

                     10                     11                     12
                      A                      A                      A
 Frequencies --    174.2896               220.6068               246.2643
 Red. masses --      2.6903                 2.8699                 1.9005
 Frc consts  --      0.0482                 0.0823                 0.0679
 IR Inten    --      1.5159                 1.7111                 3.4935

                     13                     14                     15
                      A                      A                      A
 Frequencies --    252.8090               267.7247               275.2154
 Red. masses --      1.1651                 2.1242                 1.7681
 Frc consts  --      0.0439                 0.0897                 0.0789
 IR Inten    --      0.6382                 1.9313                 3.5041

                     16                     17                     18
                      A                      A                      A
 Frequencies --    292.0552               331.3661               353.4486
 Red. masses --      1.9488                 3.0905                 3.4614
 Frc consts  --      0.0979                 0.1999                 0.2548
 IR Inten    --      1.4890                10.4736                23.7116

                     19                     20                     21
                      A                      A                      A
 Frequencies --    382.2126               398.7929               435.0972
 Red. masses --      4.0705                 2.2980                 2.1969
 Frc consts  --      0.3504                 0.2153                 0.2450
 IR Inten    --      8.6653                 1.8989                 1.1347

                     22                     23                     24
                      A                      A                      A
 Frequencies --    449.7589               508.5317               584.3342
 Red. masses --      3.1994                 3.0634                 2.4109
 Frc consts  --      0.3813                 0.4668                 0.4850
 IR Inten    --      3.5494                 6.6976                 3.6194

                     25                     26                     27
                      A                      A                      A
 Frequencies --    620.6595               689.5762               759.6847
 Red. masses --      2.7812                 3.9891                 2.6790
 Frc consts  --      0.6312                 1.1176                 0.9110
 IR Inten    --      2.7388                 3.2957                 6.3966

                     28                     29                     30
                      A                      A                      A
 Frequencies --    777.4705               791.5901               823.7634
 Red. masses --      2.4932                 1.5557                 3.3871
 Frc consts  --      0.8879                 0.5744                 1.3542
 IR Inten    --     25.0430                 2.5704                 4.3962

                     31                     32                     33
                      A                      A                      A
 Frequencies --    834.0612               856.4335               882.4563
 Red. masses --      1.8806                 1.8501                 2.0346
 Frc consts  --      0.7708                 0.7995                 0.9335
 IR Inten    --     40.4013                15.7682                11.1257

                     34                     35                     36
                      A                      A                      A
 Frequencies --    899.9637               930.4154               958.1391
 Red. masses --      2.7995                 2.4105                 2.2857
 Frc consts  --      1.3359                 1.2294                 1.2363
 IR Inten    --      1.7262                 7.3694                 9.4286

                     37                     38                     39
                      A                      A                      A
 Frequencies --    982.5279               992.1373              1030.8324
 Red. masses --      2.1112                 2.1679                 3.0964
 Frc consts  --      1.2008                 1.2573                 1.9386
 IR Inten    --      6.2506                 2.3867                34.9474

                     40                     41                     42
                      A                      A                      A
 Frequencies --   1063.5088              1067.4036              1083.7771
 Red. masses --      2.5077                 1.7107                 2.0922
 Frc consts  --      1.6711                 1.1484                 1.4479
 IR Inten    --      3.6427                 4.4620                13.2070

                     43                     44                     45
                      A                      A                      A
 Frequencies --   1089.4575              1094.7836              1110.7802
 Red. masses --      1.4232                 2.0888                 2.6491
 Frc consts  --      0.9953                 1.4750                 1.9258
 IR Inten    --      4.6343                46.2141                 0.9086

                     46                     47                     48
                      A                      A                      A
 Frequencies --   1140.7799              1166.1637              1185.0453
 Red. masses --      1.2726                 3.2273                 1.2882
 Frc consts  --      0.9757                 2.5859                 1.0658
 IR Inten    --     10.6561                19.6550                 4.1178

                     49                     50                     51
                      A                      A                      A
 Frequencies --   1187.4229              1195.3100              1203.0366
 Red. masses --      1.8974                 1.4971                 1.9442
 Frc consts  --      1.5762                 1.2603                 1.6579
 IR Inten    --     28.9499                 5.0058               125.2734

                     52                     53                     54
                      A                      A                      A
 Frequencies --   1219.0106              1226.4986              1240.9574
 Red. masses --      1.6169                 1.7057                 1.5340
 Frc consts  --      1.4156                 1.5118                 1.3919
 IR Inten    --     11.1574                74.6892                62.8003

                     55                     56                     57
                      A                      A                      A
 Frequencies --   1252.1956              1278.1614              1307.3807
 Red. masses --      1.6667                 1.4681                 1.4627
 Frc consts  --      1.5397                 1.4131                 1.4730
 IR Inten    --     29.9241                42.7340                37.5258

                     58                     59                     60
                      A                      A                      A
 Frequencies --   1312.2292              1319.2672              1339.4145
 Red. masses --      1.4895                 1.3664                 2.4428
 Frc consts  --      1.5112                 1.4012                 2.5820
 IR Inten    --      2.2421                 1.1637                18.3961

                     61                     62                     63
                      A                      A                      A
 Frequencies --   1349.1878              1364.6926              1382.2467
 Red. masses --      1.4168                 1.3812                 1.6263
 Frc consts  --      1.5195                 1.5156                 1.8307
 IR Inten    --      4.6662                 3.8386                11.6746

                     64                     65                     66
                      A                      A                      A
 Frequencies --   1383.6199              1411.1887              1427.2903
 Red. masses --      1.6756                 1.2762                 1.3211
 Frc consts  --      1.8899                 1.4974                 1.5857
 IR Inten    --      4.2041                23.8978                 5.0665

                     67                     68                     69
                      A                      A                      A
 Frequencies --   1471.6515              1486.7612              1489.0147
 Red. masses --      1.1436                 1.1121                 1.1984
 Frc consts  --      1.4593                 1.4484                 1.5654
 IR Inten    --      0.5967                 1.1125                 3.5048

                     70                     71                     72
                      A                      A                      A
 Frequencies --   1501.4298              1508.9362              1512.3220
 Red. masses --      1.0586                 1.1018                 1.0490
 Frc consts  --      1.4060                 1.4780                 1.4136
 IR Inten    --      9.5967                 7.5408                 6.5710

                     73                     74                     75
                      A                      A                      A
 Frequencies --   1512.6843              1522.0981              1523.8747
 Red. masses --      1.0777                 1.0943                 1.0615
 Frc consts  --      1.4529                 1.4938                 1.4524
 IR Inten    --      0.3831                 1.4136                12.7738

                     76                     77                     78
                      A                      A                      A
 Frequencies --   1524.7594              1525.7035              1526.5715
 Red. masses --      1.0889                 1.0878                 1.1468
 Frc consts  --      1.4915                 1.4919                 1.5747
 IR Inten    --      1.8409                 3.9996                 5.4996

                     79                     80                     81
                      A                      A                      A
 Frequencies --   1538.3762              1549.3880              1551.6631
 Red. masses --      1.1143                 1.1056                 1.0706
 Frc consts  --      1.5538                 1.5638                 1.5188
 IR Inten    --     27.4826                 2.6366                 6.1675

                     82                     83                     84
                      A                      A                      A
 Frequencies --   1564.3626              1797.5014              2932.3317
 Red. masses --      1.0648                11.3943                 1.0633
 Frc consts  --      1.5352                21.6908                 5.3867
 IR Inten    --      6.7423               208.0188               100.7141

                     85                     86                     87
                      A                      A                      A
 Frequencies --   2970.1868              2979.6489              3020.7817
 Red. masses --      1.0613                 1.0648                 1.0678
 Frc consts  --      5.5162                 5.5700                 5.7411
 IR Inten    --     29.7754                67.9319                47.5446

                     88                     89                     90
                      A                      A                      A
 Frequencies --   3052.5600              3062.7264              3063.5248
 Red. masses --      1.0728                 1.0602                 1.0775
 Frc consts  --      5.8898                 5.8595                 5.9582
 IR Inten    --     67.3195                11.1610                67.3611

                     91                     92                     93
                      A                      A                      A
 Frequencies --   3067.0904              3069.4295              3071.8806
 Red. masses --      1.0768                 1.0659                 1.0721
 Frc consts  --      5.9681                 5.9169                 5.9609
 IR Inten    --     36.9757                 5.4592                51.7482

                     94                     95                     96
                      A                      A                      A
 Frequencies --   3077.9110              3081.6074              3091.3847
 Red. masses --      1.0293                 1.0665                 1.0971
 Frc consts  --      5.7454                 5.9673                 6.1774
 IR Inten    --     32.9713                31.9077                27.3396

                     97                     98                     99
                      A                      A                      A
 Frequencies --   3101.6479              3105.4599              3111.4397
 Red. masses --      1.0991                 1.1032                 1.1045
 Frc consts  --      6.2296                 6.2683                 6.3000
 IR Inten    --     21.8657                35.2206                 6.4060

                    100                    101                    102
                      A                      A                      A
 Frequencies --   3121.1576              3124.1916              3135.5185
 Red. masses --      1.1042                 1.0981                 1.1039
 Frc consts  --      6.3377                 6.3149                 6.3944
 IR Inten    --     25.8519                31.5294                48.6320

                    103                    104                    105
                      A                      A                      A
 Frequencies --   3153.6286              3185.0346              3516.1677
 Red. masses --      1.1075                 1.1075                 1.0722
 Frc consts  --      6.4898                 6.6194                 7.8102
 IR Inten    --     18.6626                16.3359                 3.8106

 - Thermochemistry -
 -------------------
 Temperature   298.150 Kelvin.  Pressure   1.00000 Atm.
 Atom     1 has atomic number  6 and mass  12.00000

 Molecular mass:   214.16813 amu.
 Principal axes and moments of inertia in atomic units:
                           1         2         3
     Eigenvalues --  1928.953614903.972775725.78327
           X            0.99997  -0.00634  -0.00371
           Y            0.00629   0.99989  -0.01345
           Z            0.00379   0.01343   0.99990
 This molecule is an asymmetric top.
 Rotational symmetry number  1.
 Warning -- assumption of classical behavior for rotation
           may cause significant error
 Rotational temperatures (Kelvin)      0.04490     0.01766     0.01513
 Rotational constants (GHZ):           0.93561     0.36802     0.31520
 Zero-point vibrational energy     875804.6 (Joules/Mol)
                                  209.32232 (Kcal/Mol)
 Warning -- explicit consideration of  25 degrees of freedom as
           vibrations may cause significant error
 Vibrational temperatures:     23.91    54.69    80.10   115.10   136.03
          (Kelvin)            157.46   179.20   203.97   225.96   250.76
                              317.40   354.32   363.74   385.20   395.97
                              420.20   476.76   508.53   549.92   573.77
                              626.01   647.10   731.66   840.73   892.99
                              992.15  1093.02  1118.61  1138.92  1185.21
                             1200.03  1232.22  1269.66  1294.85  1338.66
                             1378.55  1413.64  1427.46  1483.14  1530.15
                             1535.76  1559.31  1567.49  1575.15  1598.17
                             1641.33  1677.85  1705.02  1708.44  1719.78
                             1730.90  1753.88  1764.66  1785.46  1801.63
                             1838.99  1881.03  1888.01  1898.13  1927.12
                             1941.18  1963.49  1988.74  1990.72  2030.39
                             2053.55  2117.38  2139.12  2142.36  2160.22
                             2171.02  2175.89  2176.42  2189.96  2192.52
                             2193.79  2195.15  2196.40  2213.38  2229.22
                             2232.50  2250.77  2586.20  4218.97  4273.44
                             4287.05  4346.23  4391.95  4406.58  4407.73
                             4412.86  4416.22  4419.75  4428.43  4433.75
                             4447.81  4462.58  4468.06  4476.67  4490.65
                             4495.01  4511.31  4537.37  4582.55  5058.98

 Zero-point correction=                           0.333576 (Hartree/Particle)
 Thermal correction to Energy=                    0.350510
 Thermal correction to Enthalpy=                  0.351454
 Thermal correction to Gibbs Free Energy=         0.287768
 Sum of electronic and zero-point Energies=           -692.084291
 Sum of electronic and thermal Energies=              -692.067358
 Sum of electronic and thermal Enthalpies=            -692.066414
 Sum of electronic and thermal Free Energies=         -692.130099

                     E (Thermal)             CV                S
                      KCal/Mol        Cal/Mol-Kelvin    Cal/Mol-Kelvin
 Total                  219.948             62.122            134.037
 Electronic               0.000              0.000              0.000
 Translational            0.889              2.981             41.988
 Rotational               0.889              2.981             32.360
 Vibrational            218.171             56.160             59.689
 Vibration     1          0.593              1.986              7.002
 Vibration     2          0.594              1.982              5.360
 Vibration     3          0.596              1.975              4.605
 Vibration     4          0.600              1.963              3.891
 Vibration     5          0.603              1.953              3.564
 Vibration     6          0.606              1.942              3.279
 Vibration     7          0.610              1.928              3.029
 Vibration     8          0.615              1.911              2.780
 Vibration     9          0.621              1.895              2.585
 Vibration    10          0.627              1.874              2.389
 Vibration    11          0.647              1.810              1.954
 Vibration    12          0.661              1.769              1.757
 Vibration    13          0.664              1.758              1.711
 Vibration    14          0.673              1.732              1.611
 Vibration    15          0.677              1.719              1.563
 Vibration    16          0.687              1.689              1.462
 Vibration    17          0.714              1.613              1.253
 Vibration    18          0.730              1.568              1.151
 Vibration    19          0.752              1.508              1.030
 Vibration    20          0.765              1.473              0.967
 Vibration    21          0.796              1.394              0.842
 Vibration    22          0.809              1.361              0.797
 Vibration    23          0.864              1.231              0.637
 Vibration    24          0.941              1.065              0.477
 Vibration    25          0.981              0.988              0.415

                           ! Non-Optimized Parameters !
 Normal termination of Gaussian 16 at Thu Dec 10 16:43:00 2020.

 ----------------------------------------------------------------------
 # B3LYP/6-311++G(d,p) empiricaldispersion=gd3bj scf=xqc pop=npa geom=c
 heck
 ----------------------------------------------------------------------

 --------------------------------------
 CID_61001913_JID_5754_Energie_neutraal
 --------------------------------------
 Structure from the checkpoint file:  "JID_5754.chk"
 Charge =  0 Multiplicity = 1

 SCF Done:  E(RB3LYP) =  -692.617478738     A.U. after   14 cycles
 Normal termination of Gaussian 16 at Thu Dec 10 16:49:46 2020.

 ----------------------------------------------------------------------
 # B3LYP/6-311++G(d,p) empiricaldispersion=gd3bj scf=xqc pop=npa geom=c
 heck
 ----------------------------------------------------------------------

 ------------------------------------
 CID_61001913_JID_5754_Energie_kation
 ------------------------------------
 Structure from the checkpoint file:  "JID_5754.chk"
 Charge =  1 Multiplicity = 2

 SCF Done:  E(UB3LYP) =  -692.339432682     A.U. after   22 cycles
 Normal termination of Gaussian 16 at Thu Dec 10 17:10:51 2020.
 Gaussian 16:  ES64L-G16RevA.03 25-Dec-2016

 ----------------------------------------------------------------------
 # B3LYP/6-311++G(d,p) empiricaldispersion=gd3bj scf=xqc pop=npa geom=c
 heck
 ----------------------------------------------------------------------

 -----------------------------------
 CID_61001913_JID_5754_Energie_anion
 -----------------------------------
 Structure from the checkpoint file:  "JID_5754.chk"
 Charge = -1 Multiplicity = 2

                         Standard orientation:
 ---------------------------------------------------------------------
 Center     Atomic      Atomic             Coordinates (Angstroms)
 Number     Number       Type             X           Y           Z
 ---------------------------------------------------------------------
      1          6           0       -3.571491   -0.723843    1.235532
      2          7           0       -3.592113   -0.096804   -0.072908
      3          6           0       -3.482506    1.349867   -0.004416
      4          6           0       -2.787686   -0.717590   -1.120018
      5          6           0       -1.286141   -0.398247   -1.167467
      6          7           0       -0.578512   -0.927717    0.001516
      7          6           0        0.840512   -0.586484    0.052055
      8          6           0        1.510388   -1.258738    1.278123
      9          6           0        3.008470   -1.291025    0.943417
     10          6           0        3.073110   -1.459716   -0.598772
     11          6           0        1.641645   -1.180384   -1.126959
     12          6           0        1.010813    0.935133    0.208208
     13          8           0        0.229125    1.639235    0.816652
     14          8           0        2.138874    1.415398   -0.356559
     15          6           0        2.364693    2.823972   -0.178543
     16          1           0       -4.461289   -0.413815    1.798895
     17          1           0       -2.694909   -0.469097    1.862503
     18          1           0       -3.598915   -1.811971    1.124997
     19          1           0       -2.520852    1.707752    0.405478
     20          1           0       -3.605554    1.775884   -1.007011
     21          1           0       -4.285521    1.743731    0.630262
     22          1           0       -2.913524   -1.803176   -1.039443
     23          1           0       -3.212287   -0.410494   -2.087063
     24          1           0       -0.871960   -0.873654   -2.064919
     25          1           0       -1.148721    0.689975   -1.292007
     26          1           0       -1.005074   -0.519900    0.830673
     27          1           0        1.277350   -0.746101    2.217749
     28          1           0        1.094045   -2.270904    1.334707
     29          1           0        3.529330   -2.091170    1.478353
     30          1           0        3.480581   -0.348064    1.237624
     31          1           0        3.390334   -2.470289   -0.875326
     32          1           0        3.796601   -0.765611   -1.033826
     33          1           0        1.141973   -2.115822   -1.399657
     34          1           0        1.640424   -0.532863   -2.006862
     35          1           0        1.547562    3.398864   -0.621268
     36          1           0        2.434315    3.067890    0.884517
     37          1           0        3.305647    3.035751   -0.686341
 ---------------------------------------------------------------------

 SCF Done:  E(UB3LYP) =  -692.602715594     A.U. after   31 cycles

 The electronic state is 2-A.
 Alpha  occ. eigenvalues --  -19.07360 -19.01654 -14.21049 -14.20384 -10.20129
 Alpha  occ. eigenvalues --  -10.12112 -10.12106 -10.09936 -10.09795 -10.09257
 Alpha  occ. eigenvalues --  -10.08996 -10.07467 -10.07025 -10.06874 -10.06744
 Alpha  occ. eigenvalues --   -1.01308  -0.92501  -0.83591  -0.81571  -0.73314
 Alpha  occ. eigenvalues --   -0.65513  -0.63876  -0.61973  -0.61487  -0.59646
 Alpha  occ. eigenvalues --   -0.54746  -0.51024  -0.48738  -0.46912  -0.45605
 Alpha  occ. eigenvalues --   -0.42627  -0.40274  -0.39522  -0.38859  -0.38011
 Alpha  occ. eigenvalues --   -0.37753  -0.36284  -0.35926  -0.34615  -0.33135
 Alpha  occ. eigenvalues --   -0.32880  -0.31269  -0.30500  -0.29263  -0.28971
 Alpha  occ. eigenvalues --   -0.27768  -0.27631  -0.26829  -0.26218  -0.26064
 Alpha  occ. eigenvalues --   -0.25060  -0.24655  -0.24403  -0.23135  -0.22376
 Alpha  occ. eigenvalues --   -0.21185  -0.18484  -0.14358  -0.11597   0.04372
 Alpha virt. eigenvalues --    0.06289   0.06607   0.07200   0.08186   0.08548
 Alpha virt. eigenvalues --    0.08943   0.09107   0.09575   0.09714   0.10461
 Alpha virt. eigenvalues --    0.10667   0.10761   0.11775   0.12070   0.12583

  Beta  occ. eigenvalues --  -19.07354 -19.01645 -14.21049 -14.20378 -10.20129
  Beta  occ. eigenvalues --  -10.12112 -10.12049 -10.09925 -10.09780 -10.09245
  Beta  occ. eigenvalues --  -10.08978 -10.07456 -10.07013 -10.06856 -10.06729
  Beta  occ. eigenvalues --   -1.01295  -0.92488  -0.83582  -0.81562  -0.73296
  Beta  occ. eigenvalues --   -0.65488  -0.63825  -0.61943  -0.61460  -0.59604
  Beta  occ. eigenvalues --   -0.54713  -0.50975  -0.48701  -0.46865  -0.45570
  Beta  occ. eigenvalues --   -0.42607  -0.40242  -0.39501  -0.38832  -0.37982
  Beta  occ. eigenvalues --   -0.37732  -0.36260  -0.35896  -0.34594  -0.33103
  Beta  occ. eigenvalues --   -0.32850  -0.31246  -0.30471  -0.29242  -0.28948
  Beta  occ. eigenvalues --   -0.27745  -0.27600  -0.26806  -0.26199  -0.26040
  Beta  occ. eigenvalues --   -0.25034  -0.24625  -0.24371  -0.23113  -0.22353
  Beta  occ. eigenvalues --   -0.21165  -0.18470  -0.14339  -0.11586
  Beta virt. eigenvalues --    0.06239   0.06961   0.07376   0.07692   0.08487
  Beta virt. eigenvalues --    0.08827   0.09201   0.09488   0.09866   0.10153
  Beta virt. eigenvalues --    0.10705   0.10933   0.11263   0.12001   0.12262

 Mulliken charges and spin densities:
               1          2
     1  C   -0.021648  -0.358545
     2  N   -0.100600   0.139537
     3  C   -0.045786  -0.383437
     4  C    0.356353  -1.029528
     5  C   -0.470606   0.485036
     6  N    0.355143  -0.049046
     7  C   -1.232447   0.802420
     8  C    0.130732  -0.419014
     9  C   -0.582029   0.227937
    10  C    0.797004  -1.504488
    11  C   -0.699812   0.469604
    12  C    0.722166  -0.867169
    13  O   -0.213759   0.030976
    14  O   -0.100721   0.124982
    15  C    1.431054  -1.605083
    16  H   -0.031350   0.170045
    17  H   -0.094621   0.201831
    18  H    0.027923   0.106381
    19  H    0.179834   0.002793
    20  H   -0.215883   0.351597
    21  H    0.031569   0.090415
    22  H    0.047792   0.109057
    23  H   -0.006422   0.191249
    24  H   -0.262323   0.411928
    25  H    0.174576  -0.019260
    26  H    0.520077  -0.223734
    27  H   -0.131678   0.295771
    28  H    0.082558   0.091991
    29  H   -0.263522   0.430973
    30  H    0.000912   0.156002
    31  H   -0.025505   0.156541
    32  H    0.008553   0.174323
    33  H    0.104525   0.058124
    34  H   -0.141966   0.336991
    35  H   -0.330545   0.500556
    36  H   -0.390667   0.573775
    37  H   -0.608880   0.768471
 Sum of Mulliken charges =  -1.00000   1.00000

 Dipole moment (field-independent basis, Debye):
    X=             -3.5143    Y=             -3.8195    Z=              0.7778  Tot=              5.2482
 Quadrupole moment (field-independent basis, Debye-Ang):
   XX=           -170.5588   YY=           -146.1179   ZZ=           -131.8539
   XY=             -8.5185   XZ=             -0.5872   YZ=              2.3062

 Summary of Natural Population Analysis:

                                       Natural Population
                Natural  -----------------------------------------------
    Atom  No    Charge         Core      Valence    Rydberg      Total
 -----------------------------------------------------------------------
      C    1   -0.17148      0.99964     2.16492    0.00692     3.17148
      N    2   -0.28350      0.99974     2.77016    0.01360     3.78350
      C    3   -0.18078      0.99964     2.17381    0.00733     3.18078
      C    4   -0.08181      0.99961     2.06924    0.01297     3.08181
      C    5   -0.10207      0.99961     2.09153    0.01093     3.10207
      N    6   -0.34143      0.99972     2.83020    0.01151     3.84143
      C    7    0.02389      0.99950     1.96102    0.01558     2.97611
      C    8   -0.18593      0.99959     2.17692    0.00941     3.18593
      C    9   -0.19436      0.99964     2.18699    0.00773     3.19436
      C   10   -0.19116      0.99964     2.18393    0.00759     3.19116
      C   11   -0.19477      0.99960     2.18557    0.00960     3.19477
      C   12    0.41162      0.99959     1.56150    0.02729     2.58838
      O   13   -0.31328      0.99987     3.30726    0.00614     4.31328
      O   14   -0.27824      0.99986     3.26811    0.01027     4.27824
      C   15   -0.10365      0.99959     2.09482    0.00924     3.10365
      H   16    0.09075      0.00000     0.40814    0.00111     0.40925
      H   17    0.07683      0.00000     0.42161    0.00155     0.42317
      H   18    0.09602      0.00000     0.40290    0.00108     0.40398
      H   19    0.09229      0.00000     0.40620    0.00151     0.40771
      H   20    0.09472      0.00000     0.40413    0.00115     0.40528
      H   21    0.09154      0.00000     0.40741    0.00106     0.40846
      H   22    0.09543      0.00000     0.40335    0.00122     0.40457
      H   23    0.09365      0.00000     0.40528    0.00107     0.40635
      H   24    0.09446      0.00000     0.40384    0.00169     0.40554
      H   25    0.08457      0.00000     0.41355    0.00189     0.41543
      H   26    0.17772      0.00000     0.31648    0.00580     0.32228
      H   27    0.10447      0.00000     0.39447    0.00106     0.39553
      H   28    0.10377      0.00000     0.39475    0.00148     0.39623
      H   29    0.09937      0.00000     0.39962    0.00101     0.40063
      H   30    0.10042      0.00000     0.39793    0.00164     0.39958
      H   31    0.09516      0.00000     0.40383    0.00101     0.40484
      H   32    0.10356      0.00000     0.39504    0.00139     0.39644
      H   33    0.10307      0.00000     0.39550    0.00143     0.39693
      H   34    0.10807      0.00000     0.39041    0.00153     0.39193
      H   35    0.09306      0.00000     0.40525    0.00169     0.40694
      H   36    0.09229      0.00000     0.40604    0.00168     0.40771
      H   37    0.09571      0.00000     0.40173    0.00256     0.40429
 =======================================================================
   * Total *    0.00000     14.99485    43.80346    0.20169    59.00000

 Normal termination of Gaussian 16 at Thu Dec 10 17:37:46 2020.
