 Gaussian 16, Revision A.03,

 -----------------------------------------------------------
 # opt freq B3LYP/6-31G(d) empiricaldispersion=gd3bj scf=xqc
 -----------------------------------------------------------

 -------------------------------
 CID_109879675_JID_8410_neutraal
 -------------------------------
 Symbolic Z-matrix:
 Charge =  0 Multiplicity = 1

 SCF Done:  E(RB3LYP) =  -805.565466988     A.U. after   15 cycles
 SCF Done:  E(RB3LYP) =  -805.570468531     A.U. after   13 cycles
 SCF Done:  E(RB3LYP) =  -805.570635453     A.U. after   12 cycles
 SCF Done:  E(RB3LYP) =  -805.571910501     A.U. after   12 cycles
 SCF Done:  E(RB3LYP) =  -805.572689062     A.U. after   13 cycles
 SCF Done:  E(RB3LYP) =  -805.573326648     A.U. after   13 cycles
 SCF Done:  E(RB3LYP) =  -805.573514972     A.U. after   12 cycles
 SCF Done:  E(RB3LYP) =  -805.573590155     A.U. after   12 cycles
 SCF Done:  E(RB3LYP) =  -805.573603768     A.U. after    9 cycles
 SCF Done:  E(RB3LYP) =  -805.573619877     A.U. after   10 cycles
 SCF Done:  E(RB3LYP) =  -805.573909592     A.U. after   10 cycles
 SCF Done:  E(RB3LYP) =  -805.573911435     A.U. after    9 cycles
 SCF Done:  E(RB3LYP) =  -805.573911689     A.U. after    8 cycles
 SCF Done:  E(RB3LYP) =  -805.573911719     A.U. after    6 cycles
 Optimization completed.
    -- Stationary point found.
 Normal termination of Gaussian 16 at Fri Dec 11 20:52:28 2020.

 --------------------------------------------------------------------
 #N Geom=AllCheck Guess=TCheck SCRF=Check GenChk RB3LYP/6-31G(d) Freq
 --------------------------------------------------------------------

 Structure from the checkpoint file:  "JID_8410.chk"
 -------------------------------
 CID_109879675_JID_8410_neutraal
 -------------------------------
 Charge =  0 Multiplicity = 1

 SCF Done:  E(RB3LYP) =  -805.573911719     A.U. after    1 cycles

  Exact polarizability: 209.499  -0.948 165.142   6.188 -10.818 112.814
 Approx polarizability: 270.616   3.559 269.030  15.458 -22.512 177.674

                      1                      2                      3
                      A                      A                      A
 Frequencies --     30.0659                40.2568                55.4326
 Red. masses --      3.7986                 4.4021                 1.4565
 Frc consts  --      0.0020                 0.0042                 0.0026
 IR Inten    --      0.4522                 1.4877                 0.1165

                      4                      5                      6
                      A                      A                      A
 Frequencies --     59.4206                74.6619                93.5107
 Red. masses --      2.3978                 3.4449                 3.9489
 Frc consts  --      0.0050                 0.0113                 0.0203
 IR Inten    --      2.3785                 0.5775                 2.9354

                      7                      8                      9
                      A                      A                      A
 Frequencies --    109.0473               166.1882               179.0926
 Red. masses --      3.7617                 3.1791                 4.0830
 Frc consts  --      0.0264                 0.0517                 0.0772
 IR Inten    --      2.5240                 1.7940                 0.1956

                     10                     11                     12
                      A                      A                      A
 Frequencies --    204.2546               212.6274               229.6543
 Red. masses --      2.9816                 1.8651                 1.1798
 Frc consts  --      0.0733                 0.0497                 0.0367
 IR Inten    --      2.9071                 8.8310                 5.5695

                     13                     14                     15
                      A                      A                      A
 Frequencies --    246.8608               273.4668               308.6527
 Red. masses --      3.9783                 2.5585                 3.7245
 Frc consts  --      0.1428                 0.1127                 0.2091
 IR Inten    --      0.9236                14.4489                 5.9552

                     16                     17                     18
                      A                      A                      A
 Frequencies --    316.5848               354.5419               365.8086
 Red. masses --      1.2387                 2.7338                 3.4883
 Frc consts  --      0.0731                 0.2025                 0.2750
 IR Inten    --    143.3420                 0.1862                 7.8359

                     19                     20                     21
                      A                      A                      A
 Frequencies --    396.5159               415.7001               436.5448
 Red. masses --      4.2935                 2.9451                 3.2179
 Frc consts  --      0.3977                 0.2999                 0.3613
 IR Inten    --      3.1033                 2.2790                 0.2822

                     22                     23                     24
                      A                      A                      A
 Frequencies --    441.3147               465.6849               485.3985
 Red. masses --      2.5110                 3.5567                 3.3751
 Frc consts  --      0.2881                 0.4544                 0.4685
 IR Inten    --      6.8368                 8.2172                 8.2846

                     25                     26                     27
                      A                      A                      A
 Frequencies --    542.4761               551.8416               569.9727
 Red. masses --      3.4854                 4.6066                 3.5727
 Frc consts  --      0.6043                 0.8265                 0.6838
 IR Inten    --      2.6191                 0.1551                 2.7027

                     28                     29                     30
                      A                      A                      A
 Frequencies --    628.0264               670.9175               718.7233
 Red. masses --      4.8734                 4.5156                 3.8243
 Frc consts  --      1.1325                 1.1976                 1.1639
 IR Inten    --      8.8846                21.8717                11.1267

                     31                     32                     33
                      A                      A                      A
 Frequencies --    728.5823               769.6509               821.3962
 Red. masses --      4.1177                 1.7871                 2.4450
 Frc consts  --      1.2878                 0.6237                 0.9719
 IR Inten    --      2.7498                17.7651                 2.7327

                     34                     35                     36
                      A                      A                      A
 Frequencies --    831.3147               842.5144               879.6008
 Red. masses --      2.3388                 2.3299                 2.5891
 Frc consts  --      0.9523                 0.9744                 1.1803
 IR Inten    --      6.8376                 9.2111                 2.1650

                     37                     38                     39
                      A                      A                      A
 Frequencies --    885.5702               919.5513               930.3302
 Red. masses --      1.7527                 1.8338                 1.3851
 Frc consts  --      0.8098                 0.9136                 0.7063
 IR Inten    --      7.8590                 4.2498                 0.7735

                     40                     41                     42
                      A                      A                      A
 Frequencies --    953.3167               983.9250               993.9560
 Red. masses --      1.6989                 2.3047                 2.3003
 Frc consts  --      0.9097                 1.3146                 1.3390
 IR Inten    --      1.6990                 0.7678                 5.2065

                     43                     44                     45
                      A                      A                      A
 Frequencies --   1006.1292              1014.0653              1025.5260
 Red. masses --      1.3246                 4.1271                 1.8298
 Frc consts  --      0.7900                 2.5005                 1.1339
 IR Inten    --      0.2747                 3.4817                25.0625

                     46                     47                     48
                      A                      A                      A
 Frequencies --   1044.7200              1058.2259              1074.9854
 Red. masses --      1.9002                 1.5821                 1.5813
 Frc consts  --      1.2219                 1.0439                 1.0766
 IR Inten    --      0.3985                13.6128                 4.4701

                     49                     50                     51
                      A                      A                      A
 Frequencies --   1079.0402              1100.6898              1122.8561
 Red. masses --      4.0936                 2.2090                 2.0383
 Frc consts  --      2.8082                 1.5768                 1.5142
 IR Inten    --     80.4725                42.7948                40.8034

                     52                     53                     54
                      A                      A                      A
 Frequencies --   1124.1319              1137.0947              1160.7825
 Red. masses --      1.5503                 1.7978                 2.2551
 Frc consts  --      1.1542                 1.3696                 1.7902
 IR Inten    --     19.1447                 2.9073                38.1058

                     55                     56                     57
                      A                      A                      A
 Frequencies --   1191.9443              1204.9263              1211.7622
 Red. masses --      1.2188                 1.8089                 1.6088
 Frc consts  --      1.0203                 1.5473                 1.3919
 IR Inten    --      0.5996                42.6648                44.0623

                     58                     59                     60
                      A                      A                      A
 Frequencies --   1227.2040              1247.7564              1276.9977
 Red. masses --      1.7656                 1.6686                 1.9796
 Frc consts  --      1.5667                 1.5306                 1.9020
 IR Inten    --      5.8147                 4.7804                22.7520

                     61                     62                     63
                      A                      A                      A
 Frequencies --   1286.7603              1321.2266              1326.4560
 Red. masses --      2.2412                 3.7709                 1.2865
 Frc consts  --      2.1863                 3.8784                 1.3337
 IR Inten    --      7.3609                40.2423                12.5465

                     64                     65                     66
                      A                      A                      A
 Frequencies --   1331.7207              1348.8615              1369.2227
 Red. masses --      1.7820                 1.3578                 1.4323
 Frc consts  --      1.8620                 1.4556                 1.5821
 IR Inten    --     64.4351                13.4662                30.2341

                     67                     68                     69
                      A                      A                      A
 Frequencies --   1391.8881              1401.3621              1406.7960
 Red. masses --      1.3315                 1.4893                 1.2668
 Frc consts  --      1.5199                 1.7232                 1.4771
 IR Inten    --     20.3422                32.6592                 6.3504

                     70                     71                     72
                      A                      A                      A
 Frequencies --   1410.3572              1427.1947              1432.9480
 Red. masses --      1.4683                 1.5265                 1.3051
 Frc consts  --      1.7208                 1.8320                 1.5789
 IR Inten    --     15.5104                14.3278                 7.5911

                     73                     74                     75
                      A                      A                      A
 Frequencies --   1437.8471              1442.7943              1460.4665
 Red. masses --      1.3070                 1.3079                 2.5583
 Frc consts  --      1.5920                 1.6041                 3.2151
 IR Inten    --      3.4572                40.0041                 8.9965

                     76                     77                     78
                      A                      A                      A
 Frequencies --   1479.4086              1502.3353              1507.2114
 Red. masses --      2.4568                 2.1202                 1.0534
 Frc consts  --      3.1681                 2.8194                 1.4099
 IR Inten    --    147.4002                53.9279                 7.6561

                     79                     80                     81
                      A                      A                      A
 Frequencies --   1509.8894              1513.3875              1524.7144
 Red. masses --      1.0833                 1.1160                 1.2070
 Frc consts  --      1.4551                 1.5059                 1.6532
 IR Inten    --      1.6736                12.5206                 8.5037

                     82                     83                     84
                      A                      A                      A
 Frequencies --   1525.2503              1529.6775              1532.9077
 Red. masses --      1.1182                 1.0699                 1.0771
 Frc consts  --      1.5326                 1.4749                 1.4912
 IR Inten    --      1.8997                 2.6504                 1.1977

                     85                     86                     87
                      A                      A                      A
 Frequencies --   1539.3050              1635.3883              1645.1988
 Red. masses --      1.0695                 6.6793                 5.3307
 Frc consts  --      1.4931                10.5250                 8.5011
 IR Inten    --     14.4646                29.0177                54.6899

                     88                     89                     90
                      A                      A                      A
 Frequencies --   1721.8657              2974.1518              3010.5292
 Red. masses --     11.0520                 1.0720                 1.0715
 Frc consts  --     19.3059                 5.5868                 5.7220
 IR Inten    --    261.1768                46.5085                31.1536

                     91                     92                     93
                      A                      A                      A
 Frequencies --   3028.0170              3041.1643              3046.0156
 Red. masses --      1.0658                 1.0630                 1.0799
 Frc consts  --      5.7578                 5.7927                 5.9036
 IR Inten    --     16.5879                17.1787                41.3249

                     94                     95                     96
                      A                      A                      A
 Frequencies --   3056.7226              3059.4273              3074.1655
 Red. masses --      1.0362                 1.0392                 1.0965
 Frc consts  --      5.7046                 5.7310                 6.1055
 IR Inten    --     14.5334                26.9435                36.5699

                     97                     98                     99
                      A                      A                      A
 Frequencies --   3086.9144              3096.8386              3115.7595
 Red. masses --      1.1029                 1.0926                 1.1008
 Frc consts  --      6.1922                 6.1736                 6.2963
 IR Inten    --     49.6139                55.0529                11.4005

                    100                    101                    102
                      A                      A                      A
 Frequencies --   3119.3208              3139.6964              3152.4132
 Red. masses --      1.1001                 1.1029                 1.0903
 Frc consts  --      6.3065                 6.4058                 6.3836
 IR Inten    --     27.4535                18.5148                11.0994

                    103                    104                    105
                      A                      A                      A
 Frequencies --   3153.4400              3166.9172              3194.7262
 Red. masses --      1.1003                 1.0866                 1.0878
 Frc consts  --      6.4468                 6.4207                 6.5413
 IR Inten    --     11.7113                15.1778                 8.4463

                    106                    107                    108
                      A                      A                      A
 Frequencies --   3211.0893              3244.5380              3756.6841
 Red. masses --      1.0948                 1.0935                 1.0661
 Frc consts  --      6.6512                 6.7821                 8.8645
 IR Inten    --     21.5347                 1.3680                10.5180

 - Thermochemistry -
 -------------------
 Temperature   298.150 Kelvin.  Pressure   1.00000 Atm.
 Atom     1 has atomic number  6 and mass  12.00000

 Molecular mass:   248.15248 amu.
 Principal axes and moments of inertia in atomic units:
                           1         2         3
     Eigenvalues --  2121.082077779.881539074.13962
           X            1.00000  -0.00013  -0.00157
           Y            0.00011   0.99987  -0.01633
           Z            0.00157   0.01633   0.99987
 This molecule is an asymmetric top.
 Rotational symmetry number  1.
 Warning -- assumption of classical behavior for rotation
           may cause significant error
 Rotational temperatures (Kelvin)      0.04083     0.01113     0.00955
 Rotational constants (GHZ):           0.85086     0.23198     0.19889
 Zero-point vibrational energy     862404.4 (Joules/Mol)
                                  206.11961 (Kcal/Mol)
 Warning -- explicit consideration of  27 degrees of freedom as
           vibrations may cause significant error
 Vibrational temperatures:     43.26    57.92    79.76    85.49   107.42
          (Kelvin)            134.54   156.89   239.11   257.67   293.88
                              305.92   330.42   355.18   393.46   444.08
                              455.49   510.11   526.32   570.50   598.10
                              628.09   634.95   670.02   698.38   780.50
                              793.98   820.06   903.59   965.30  1034.08
                             1048.27  1107.36  1181.81  1196.08  1212.19
                             1265.55  1274.14  1323.03  1338.54  1371.61
                             1415.65  1430.08  1447.60  1459.01  1475.50
                             1503.12  1522.55  1546.66  1552.50  1583.65
                             1615.54  1617.38  1636.03  1670.11  1714.94
                             1733.62  1743.46  1765.67  1795.24  1837.31
                             1851.36  1900.95  1908.47  1916.05  1940.71
                             1970.01  2002.62  2016.25  2024.07  2029.19
                             2053.41  2061.69  2068.74  2075.86  2101.29
                             2128.54  2161.53  2168.54  2172.39  2177.43
                             2193.72  2194.49  2200.86  2205.51  2214.72
                             2352.96  2367.07  2477.38  4279.14  4331.48
                             4356.64  4375.56  4382.54  4397.94  4401.83
                             4423.04  4441.38  4455.66  4482.88  4488.01
                             4517.32  4535.62  4537.10  4556.49  4596.50
                             4620.04  4668.17  5405.03

 Zero-point correction=                           0.328473 (Hartree/Particle)
 Thermal correction to Energy=                    0.346106
 Thermal correction to Enthalpy=                  0.347050
 Thermal correction to Gibbs Free Energy=         0.281980
 Sum of electronic and zero-point Energies=           -805.245439
 Sum of electronic and thermal Energies=              -805.227806
 Sum of electronic and thermal Enthalpies=            -805.226862
 Sum of electronic and thermal Free Energies=         -805.291932

                     E (Thermal)             CV                S
                      KCal/Mol        Cal/Mol-Kelvin    Cal/Mol-Kelvin
 Total                  217.185             66.909            136.952
 Electronic               0.000              0.000              0.000
 Translational            0.889              2.981             42.427
 Rotational               0.889              2.981             33.370
 Vibrational            215.407             60.948             61.154
 Vibration     1          0.594              1.984              5.825
 Vibration     2          0.594              1.981              5.246
 Vibration     3          0.596              1.975              4.614
 Vibration     4          0.597              1.974              4.476
 Vibration     5          0.599              1.966              4.027
 Vibration     6          0.603              1.954              3.585
 Vibration     7          0.606              1.942              3.286
 Vibration     8          0.624              1.884              2.478
 Vibration     9          0.629              1.868              2.338
 Vibration    10          0.640              1.834              2.094
 Vibration    11          0.644              1.822              2.021
 Vibration    12          0.652              1.796              1.882
 Vibration    13          0.661              1.768              1.753
 Vibration    14          0.676              1.722              1.574
 Vibration    15          0.698              1.657              1.370
 Vibration    16          0.703              1.642              1.328
 Vibration    17          0.730              1.566              1.146
 Vibration    18          0.739              1.543              1.097
 Vibration    19          0.763              1.478              0.976
 Vibration    20          0.779              1.436              0.907
 Vibration    21          0.797              1.391              0.838
 Vibration    22          0.801              1.380              0.822
 Vibration    23          0.823              1.326              0.750
 Vibration    24          0.841              1.282              0.696
 Vibration    25          0.898              1.156              0.560
 Vibration    26          0.907              1.136              0.540
 Vibration    27          0.926              1.096              0.504

                           ! Non-Optimized Parameters !
 Normal termination of Gaussian 16 at Fri Dec 11 21:10:00 2020.

 ----------------------------------------------------------------------
 # B3LYP/6-311++G(d,p) empiricaldispersion=gd3bj scf=xqc pop=npa geom=c
 heck
 ----------------------------------------------------------------------

 ---------------------------------------
 CID_109879675_JID_8410_Energie_neutraal
 ---------------------------------------
 Structure from the checkpoint file:  "JID_8410.chk"
 Charge =  0 Multiplicity = 1

 SCF Done:  E(RB3LYP) =  -805.801914884     A.U. after   16 cycles
 Normal termination of Gaussian 16 at Fri Dec 11 21:18:58 2020.

 ----------------------------------------------------------------------
 # B3LYP/6-311++G(d,p) empiricaldispersion=gd3bj scf=xqc pop=npa geom=c
 heck
 ----------------------------------------------------------------------

 -------------------------------------
 CID_109879675_JID_8410_Energie_kation
 -------------------------------------
 Structure from the checkpoint file:  "JID_8410.chk"
 Charge =  1 Multiplicity = 2

 SCF Done:  E(UB3LYP) =  -805.495326200     A.U. after   33 cycles
 SCF Done:  E(UB3LYP) =  -805.495326200     a.u. after    1 cycles
 Normal termination of Gaussian 16 at Fri Dec 11 21:44:44 2020.
 Gaussian 16:  ES64L-G16RevA.03 25-Dec-2016

 ----------------------------------------------------------------------
 # B3LYP/6-311++G(d,p) empiricaldispersion=gd3bj scf=xqc pop=npa geom=c
 heck
 ----------------------------------------------------------------------

 ------------------------------------
 CID_109879675_JID_8410_Energie_anion
 ------------------------------------
 Structure from the checkpoint file:  "JID_8410.chk"
 Charge = -1 Multiplicity = 2

                         Standard orientation:
 ---------------------------------------------------------------------
 Center     Atomic      Atomic             Coordinates (Angstroms)
 Number     Number       Type             X           Y           Z
 ---------------------------------------------------------------------
      1          6           0       -0.335514    2.355985   -0.803876
      2          6           0       -0.397326    1.305829    0.309961
      3          6           0       -1.439353    1.620686    1.400477
      4          6           0       -2.882431    1.402962    0.935716
      5          6           0       -3.064026   -0.024191    0.405390
      6          6           0       -2.023883   -0.302803   -0.686291
      7          7           0       -0.657097   -0.039070   -0.236293
      8          6           0        0.233826   -1.076404   -0.278074
      9          8           0       -0.099623   -2.227903   -0.567384
     10          6           0        1.697251   -0.824064    0.010598
     11          6           0        2.418963   -1.857264    0.617954
     12          6           0        3.781955   -1.674295    0.819643
     13          6           0        4.376652   -0.489791    0.386878
     14          6           0        3.585353    0.482130   -0.234229
     15          7           0        2.264473    0.314106   -0.409049
     16          6           0        4.165101    1.774522   -0.747940
     17          6           0       -4.483819   -0.254013   -0.117872
     18          8           0       -4.753854   -1.605799   -0.464184
     19          1           0       -0.120488    3.342423   -0.377424
     20          1           0       -1.275332    2.431971   -1.359996
     21          1           0        0.466482    2.093212   -1.497596
     22          1           0        0.581262    1.275796    0.783241
     23          1           0       -1.243158    0.968284    2.261308
     24          1           0       -1.293091    2.653434    1.739048
     25          1           0       -3.137226    2.122407    0.144284
     26          1           0       -3.576156    1.592241    1.764313
     27          1           0       -2.890100   -0.735044    1.224863
     28          1           0       -2.239861    0.328296   -1.561877
     29          1           0       -2.046309   -1.346915   -0.998187
     30          1           0        1.906704   -2.768856    0.900386
     31          1           0        4.377462   -2.445383    1.300238
     32          1           0        5.440151   -0.318499    0.522543
     33          1           0        4.041640    1.841812   -1.834795
     34          1           0        3.637768    2.629721   -0.311526
     35          1           0        5.229898    1.861797   -0.513927
     36          1           0       -5.206893   -0.002433    0.664993
     37          1           0       -4.677353    0.422770   -0.968703
     38          1           0       -4.195710   -1.838394   -1.221261
 ---------------------------------------------------------------------

 SCF Done:  E(UB3LYP) =  -805.801241094     A.U. after   33 cycles
 SCF Done:  E(UB3LYP) =  -805.801241094     a.u. after    1 cycles

 The electronic state is 2-A.
 Alpha  occ. eigenvalues --  -19.03088 -18.94310 -14.20997 -14.15608 -10.12508
 Alpha  occ. eigenvalues --  -10.11967 -10.09362 -10.08547 -10.08229 -10.07175
 Alpha  occ. eigenvalues --  -10.06994 -10.06658 -10.05856 -10.05694 -10.04805
 Alpha  occ. eigenvalues --  -10.04500 -10.04174 -10.03644  -0.93135  -0.89980
 Alpha  occ. eigenvalues --   -0.81478  -0.80443  -0.70723  -0.67565  -0.66563
 Alpha  occ. eigenvalues --   -0.65764  -0.60782  -0.59040  -0.57565  -0.54240
 Alpha  occ. eigenvalues --   -0.50978  -0.50125  -0.47948  -0.46683  -0.43309
 Alpha  occ. eigenvalues --   -0.40429  -0.39821  -0.37209  -0.36091  -0.35920
 Alpha  occ. eigenvalues --   -0.35071  -0.34722  -0.32809  -0.31737  -0.31449
 Alpha  occ. eigenvalues --   -0.31054  -0.30407  -0.29625  -0.28976  -0.28665
 Alpha  occ. eigenvalues --   -0.27919  -0.27192  -0.26789  -0.25915  -0.24985
 Alpha  occ. eigenvalues --   -0.24036  -0.23402  -0.23321  -0.22438  -0.22312
 Alpha  occ. eigenvalues --   -0.21461  -0.18190  -0.15755  -0.14015  -0.12520
 Alpha  occ. eigenvalues --   -0.11819  -0.10871   0.04621
 Alpha virt. eigenvalues --    0.06372   0.07436   0.07742   0.08252   0.08950
 Alpha virt. eigenvalues --    0.09166   0.09973   0.10375   0.10924   0.11225
 Alpha virt. eigenvalues --    0.11463   0.11808   0.12542   0.12940   0.13234

  Beta  occ. eigenvalues --  -19.03082 -18.94128 -14.20959 -14.15251 -10.12408
  Beta  occ. eigenvalues --  -10.11949 -10.09363 -10.08538 -10.08307 -10.07172
  Beta  occ. eigenvalues --  -10.06978 -10.06653 -10.05690 -10.05587 -10.04796
  Beta  occ. eigenvalues --  -10.04324 -10.04232 -10.03433  -0.93120  -0.89676
  Beta  occ. eigenvalues --   -0.81313  -0.79946  -0.70683  -0.67540  -0.66141
  Beta  occ. eigenvalues --   -0.65499  -0.60749  -0.58880  -0.57423  -0.54160
  Beta  occ. eigenvalues --   -0.50549  -0.50022  -0.47738  -0.46593  -0.43250
  Beta  occ. eigenvalues --   -0.40318  -0.39697  -0.37137  -0.35949  -0.35848
  Beta  occ. eigenvalues --   -0.34992  -0.34583  -0.32694  -0.31530  -0.31353
  Beta  occ. eigenvalues --   -0.30984  -0.30350  -0.29537  -0.28895  -0.28544
  Beta  occ. eigenvalues --   -0.27861  -0.27105  -0.26228  -0.25677  -0.24889
  Beta  occ. eigenvalues --   -0.23565  -0.23280  -0.23217  -0.22259  -0.22172
  Beta  occ. eigenvalues --   -0.21291  -0.18162  -0.14130  -0.13613  -0.11834
  Beta  occ. eigenvalues --   -0.11351  -0.10308
  Beta virt. eigenvalues --    0.06690   0.07513   0.07906   0.08342   0.09043
  Beta virt. eigenvalues --    0.09125   0.09840   0.09991   0.10441   0.11014
  Beta virt. eigenvalues --    0.11293   0.11422   0.11829   0.12584   0.12853

 Mulliken charges and spin densities:
               1          2
     1  C    0.018300  -0.630303
     2  C   -0.544511   0.348284
     3  C   -0.538398   0.200057
     4  C    0.152403  -0.620725
     5  C   -0.674364   1.293919
     6  C    0.072007  -0.879656
     7  N    0.221200   0.030344
     8  C   -0.071495   0.005857
     9  O   -0.342235   0.057160
    10  C   -0.241074   0.196097
    11  C    0.300070   0.023861
    12  C   -0.637655   0.077867
    13  C   -0.136168   0.220280
    14  C    0.004444  -0.034656
    15  N    0.099405   0.167476
    16  C   -0.433923  -0.075976
    17  C    0.286443  -0.886093
    18  O   -0.243098   0.008238
    19  H   -0.002750   0.117057
    20  H   -0.024012   0.144209
    21  H    0.246301  -0.037463
    22  H    0.199768   0.039635
    23  H    0.152637  -0.013920
    24  H   -0.056654   0.221536
    25  H   -0.035545   0.191389
    26  H   -0.062193   0.214760
    27  H    0.179418   0.030352
    28  H   -0.016176   0.204326
    29  H    0.234900  -0.093984
    30  H    0.188325   0.009227
    31  H    0.122504  -0.010344
    32  H    0.098588  -0.001498
    33  H    0.142551  -0.003171
    34  H    0.110331   0.027512
    35  H    0.117192   0.012159
    36  H    0.045876   0.120565
    37  H   -0.108613   0.262977
    38  H    0.176198   0.062643
 Sum of Mulliken charges =  -1.00000   1.00000

 Dipole moment (field-independent basis, Debye):
    X=              0.7559    Y=              2.5104    Z=              1.2555  Tot=              2.9068
 Quadrupole moment (field-independent basis, Debye-Ang):
   XX=           -173.9966   YY=           -143.3338   ZZ=           -124.5774
   XY=              2.4240   XZ=             -0.0483   YZ=             -1.3574

 Summary of Natural Population Analysis:

                                       Natural Population
                Natural  -----------------------------------------------
    Atom  No    Charge         Core      Valence    Rydberg      Total
 -----------------------------------------------------------------------
      C    1   -0.29362      0.99964     2.28796    0.00602     3.29362
      C    2   -0.00610      0.99958     1.99530    0.01121     3.00610
      C    3   -0.18971      0.99961     2.18120    0.00890     3.18971
      C    4   -0.19286      0.99961     2.18378    0.00947     3.19286
      C    5   -0.12865      0.99958     2.11971    0.00935     3.12865
      C    6   -0.09561      0.99959     2.08266    0.01336     3.09561
      N    7   -0.25307      0.99963     2.74255    0.01089     3.75307
      C    8    0.35173      0.99960     1.62761    0.02106     2.64827
      O    9   -0.32192      0.99988     3.31691    0.00513     4.32192
      C   10    0.10931      0.99949     1.87867    0.01253     2.89069
      C   11   -0.11949      0.99953     2.11185    0.00811     3.11949
      C   12   -0.06060      0.99958     2.05205    0.00897     3.06060
      C   13   -0.09283      0.99951     2.08532    0.00800     3.09283
      C   14    0.08738      0.99955     1.90074    0.01233     2.91262
      N   15   -0.20854      0.99965     2.69725    0.01164     3.70854
      C   16   -0.29356      0.99964     2.28845    0.00547     3.29356
      C   17   -0.00434      0.99956     1.99154    0.01324     3.00434
      O   18   -0.36897      0.99990     3.36256    0.00650     4.36897
      H   19    0.09402      0.00000     0.40509    0.00089     0.40598
      H   20    0.09335      0.00000     0.40572    0.00093     0.40665
      H   21    0.11400      0.00000     0.38481    0.00120     0.38600
      H   22    0.11673      0.00000     0.38146    0.00181     0.38327
      H   23    0.09709      0.00000     0.40182    0.00109     0.40291
      H   24    0.09807      0.00000     0.40109    0.00084     0.40193
      H   25    0.09610      0.00000     0.40244    0.00146     0.40390
      H   26    0.09716      0.00000     0.40182    0.00102     0.40284
      H   27    0.09900      0.00000     0.39927    0.00172     0.40100
      H   28    0.08900      0.00000     0.40978    0.00122     0.41100
      H   29    0.11654      0.00000     0.38177    0.00169     0.38346
      H   30    0.10717      0.00000     0.39173    0.00110     0.39283
      H   31    0.08882      0.00000     0.40957    0.00162     0.41118
      H   32    0.09010      0.00000     0.40890    0.00100     0.40990
      H   33    0.10097      0.00000     0.39757    0.00146     0.39903
      H   34    0.10144      0.00000     0.39721    0.00135     0.39856
      H   35    0.09346      0.00000     0.40567    0.00086     0.40654
      H   36    0.08453      0.00000     0.41429    0.00118     0.41547
      H   37    0.07565      0.00000     0.42293    0.00142     0.42435
      H   38    0.22826      0.00000     0.26901    0.00273     0.27174
 =======================================================================
   * Total *   -0.00000     17.99312    48.79806    0.20881    67.00000

 Normal termination of Gaussian 16 at Fri Dec 11 22:10:52 2020.
