 Gaussian 16, Revision A.03,

 -----------------------------------------------------------
 # opt freq B3LYP/6-31G(d) empiricaldispersion=gd3bj scf=xqc
 -----------------------------------------------------------

 -------------------------------
 CID_116832096_JID_8676_neutraal
 -------------------------------
 Symbolic Z-matrix:
 Charge =  0 Multiplicity = 1

 SCF Done:  E(RB3LYP) =  -817.980749719     A.U. after   15 cycles
 SCF Done:  E(RB3LYP) =  -817.986813354     A.U. after   13 cycles
 SCF Done:  E(RB3LYP) =  -817.988109715     A.U. after   12 cycles
 SCF Done:  E(RB3LYP) =  -817.988429369     A.U. after   11 cycles
 SCF Done:  E(RB3LYP) =  -817.988539652     A.U. after   11 cycles
 SCF Done:  E(RB3LYP) =  -817.988565548     A.U. after   10 cycles
 SCF Done:  E(RB3LYP) =  -817.988576815     A.U. after    9 cycles
 SCF Done:  E(RB3LYP) =  -817.988581002     A.U. after    9 cycles
 SCF Done:  E(RB3LYP) =  -817.988585422     A.U. after    9 cycles
 SCF Done:  E(RB3LYP) =  -817.988588731     A.U. after    9 cycles
 SCF Done:  E(RB3LYP) =  -817.988590831     A.U. after    9 cycles
 SCF Done:  E(RB3LYP) =  -817.988591632     A.U. after    9 cycles
 SCF Done:  E(RB3LYP) =  -817.988591965     A.U. after    7 cycles
 SCF Done:  E(RB3LYP) =  -817.988592285     A.U. after    7 cycles
 SCF Done:  E(RB3LYP) =  -817.988592378     A.U. after    7 cycles
 Optimization completed.
    -- Stationary point found.
 Normal termination of Gaussian 16 at Fri Dec 11 21:30:47 2020.

 --------------------------------------------------------------------
 #N Geom=AllCheck Guess=TCheck SCRF=Check GenChk RB3LYP/6-31G(d) Freq
 --------------------------------------------------------------------

 Structure from the checkpoint file:  "JID_8676.chk"
 -------------------------------
 CID_116832096_JID_8676_neutraal
 -------------------------------
 Charge =  0 Multiplicity = 1

 SCF Done:  E(RB3LYP) =  -817.988592378     A.U. after    1 cycles

  Exact polarizability: 281.597   0.207 161.856   4.559  13.701  82.154
 Approx polarizability: 392.161   4.111 270.529  10.851  33.955 129.726

                      1                      2                      3
                      A                      A                      A
 Frequencies --     21.7521                59.2197                61.7111
 Red. masses --      3.3522                 2.7714                 5.2254
 Frc consts  --      0.0009                 0.0057                 0.0117
 IR Inten    --      0.2445                 0.0616                 0.0700

                      4                      5                      6
                      A                      A                      A
 Frequencies --     91.3824               115.7859               133.4620
 Red. masses --      3.9215                 1.2059                 2.9308
 Frc consts  --      0.0193                 0.0095                 0.0308
 IR Inten    --      0.3840                 0.7063                 0.5925

                      7                      8                      9
                      A                      A                      A
 Frequencies --    148.9948               184.7977               218.0259
 Red. masses --      3.2242                 2.1893                 4.9156
 Frc consts  --      0.0422                 0.0441                 0.1377
 IR Inten    --      3.2610                 1.5294                 6.1012

                     10                     11                     12
                      A                      A                      A
 Frequencies --    231.2763               249.1131               272.4114
 Red. masses --      3.2111                 1.6567                 4.7259
 Frc consts  --      0.1012                 0.0606                 0.2066
 IR Inten    --      2.8241                 2.1866                 5.3492

                     13                     14                     15
                      A                      A                      A
 Frequencies --    289.2557               312.3790               330.4027
 Red. masses --      5.1086                 1.2017                 3.2703
 Frc consts  --      0.2518                 0.0691                 0.2103
 IR Inten    --      0.2346                33.0030                 2.4136

                     16                     17                     18
                      A                      A                      A
 Frequencies --    355.5136               378.1167               426.9568
 Red. masses --      4.2331                 4.0369                 3.6094
 Frc consts  --      0.3152                 0.3401                 0.3877
 IR Inten    --      0.9935                 1.4307                 2.7528

                     19                     20                     21
                      A                      A                      A
 Frequencies --    452.8615               494.7642               547.0354
 Red. masses --      3.5326                 4.5151                 4.8880
 Frc consts  --      0.4268                 0.6512                 0.8618
 IR Inten    --      9.2626                 5.8460                 7.3357

                     22                     23                     24
                      A                      A                      A
 Frequencies --    561.7664               585.8648               626.4070
 Red. masses --      4.4919                 1.7338                 2.8378
 Frc consts  --      0.8352                 0.3506                 0.6561
 IR Inten    --      2.9776               336.9618                40.7919

                     25                     26                     27
                      A                      A                      A
 Frequencies --    651.6905               664.0649               690.3548
 Red. masses --      3.9282                 4.9590                 4.6531
 Frc consts  --      0.9829                 1.2884                 1.3066
 IR Inten    --      3.9725                 0.7719                 7.3632

                     28                     29                     30
                      A                      A                      A
 Frequencies --    696.5768               717.9238               739.5093
 Red. masses --      5.8019                 6.4175                 8.5233
 Frc consts  --      1.6587                 1.9488                 2.7463
 IR Inten    --      6.0434                 2.7570                54.4122

                     31                     32                     33
                      A                      A                      A
 Frequencies --    763.4898               794.3800               815.2880
 Red. masses --      4.9340                 3.7342                 1.4090
 Frc consts  --      1.6945                 1.3884                 0.5518
 IR Inten    --      0.7761                15.4936                 2.3445

                     34                     35                     36
                      A                      A                      A
 Frequencies --    840.8825               869.5382               881.6076
 Red. masses --      1.5131                 5.6686                 1.4438
 Frc consts  --      0.6304                 2.5252                 0.6612
 IR Inten    --     28.3596                37.2166                16.9348

                     37                     38                     39
                      A                      A                      A
 Frequencies --    917.5630               945.0377               957.0858
 Red. masses --      4.5800                 5.7062                 1.3555
 Frc consts  --      2.2719                 3.0026                 0.7316
 IR Inten    --     11.7896                36.6700                 1.0037

                     40                     41                     42
                      A                      A                      A
 Frequencies --    986.8793              1010.1503              1043.3955
 Red. masses --      2.3999                 4.7631                 2.0534
 Frc consts  --      1.3771                 2.8636                 1.3171
 IR Inten    --     10.7511                 3.6689                 1.1529

                     43                     44                     45
                      A                      A                      A
 Frequencies --   1051.6068              1062.5963              1078.8889
 Red. masses --      2.2485                 2.5045                 1.5221
 Frc consts  --      1.4650                 1.6661                 1.0439
 IR Inten    --     37.9677                 3.1412                 3.4939

                     46                     47                     48
                      A                      A                      A
 Frequencies --   1099.7070              1118.6275              1152.1750
 Red. masses --      2.4491                 1.9411                 1.8703
 Frc consts  --      1.7451                 1.4311                 1.4628
 IR Inten    --     17.7040                13.2720                 1.4912

                     49                     50                     51
                      A                      A                      A
 Frequencies --   1155.4440              1188.4159              1251.7480
 Red. masses --      2.1432                 2.3849                 2.1233
 Frc consts  --      1.6859                 1.9845                 1.9602
 IR Inten    --      3.2681                10.1867                19.2405

                     52                     53                     54
                      A                      A                      A
 Frequencies --   1282.3058              1301.8611              1309.3171
 Red. masses --      3.8197                 2.4735                 1.9798
 Frc consts  --      3.7005                 2.4700                 1.9997
 IR Inten    --    106.8448                 3.4245                23.8634

                     55                     56                     57
                      A                      A                      A
 Frequencies --   1330.7228              1360.8891              1375.1625
 Red. masses --      1.9661                 1.9914                 4.8874
 Frc consts  --      2.0513                 2.1730                 5.4455
 IR Inten    --     56.2930                 8.8354                 2.5886

                     58                     59                     60
                      A                      A                      A
 Frequencies --   1392.0076              1434.8415              1437.6149
 Red. masses --      2.6018                 1.2597                 1.3523
 Frc consts  --      2.9704                 1.5280                 1.6467
 IR Inten    --      0.8875                 2.7695                 1.8164

                     61                     62                     63
                      A                      A                      A
 Frequencies --   1458.1048              1483.0240              1502.7706
 Red. masses --      4.1750                 3.4351                 1.0435
 Frc consts  --      5.2298                 4.4512                 1.3884
 IR Inten    --     79.9675                44.5022                 8.4224

                     64                     65                     66
                      A                      A                      A
 Frequencies --   1508.3236              1511.0350              1521.9104
 Red. masses --      1.1308                 1.0853                 1.9392
 Frc consts  --      1.5157                 1.4599                 2.6464
 IR Inten    --      5.8985                 0.5053                14.3440

                     67                     68                     69
                      A                      A                      A
 Frequencies --   1524.2676              1539.1757              1618.5373
 Red. masses --      1.2504                 1.1009                 4.8857
 Frc consts  --      1.7116                 1.5366                 7.5409
 IR Inten    --     21.0426                13.9861                47.5569

                     70                     71                     72
                      A                      A                      A
 Frequencies --   1627.2145              1658.5183              1668.5978
 Red. masses --      1.7986                 8.5452                 9.0098
 Frc consts  --      2.8059                13.8488                14.7798
 IR Inten    --     54.0664                22.7991                69.9004

                     73                     74                     75
                      A                      A                      A
 Frequencies --   1684.7372              1705.2134              3025.8789
 Red. masses --      6.9739                 3.0098                 1.0704
 Frc consts  --     11.6624                 5.1564                 5.7742
 IR Inten    --     72.0877               469.4947                22.8583

                     76                     77                     78
                      A                      A                      A
 Frequencies --   3059.0257              3061.2182              3097.2173
 Red. masses --      1.0363                 1.0385                 1.0910
 Frc consts  --      5.7134                 5.7337                 6.1664
 IR Inten    --     40.3628                19.4070                10.5982

                     79                     80                     81
                      A                      A                      A
 Frequencies --   3115.2839              3122.9832              3149.4653
 Red. masses --      1.1011                 1.1033                 1.1014
 Frc consts  --      6.2960                 6.3397                 6.4365
 IR Inten    --      8.4246                39.7925                20.2766

                     82                     83                     84
                      A                      A                      A
 Frequencies --   3175.9771              3216.6068              3233.5755
 Red. masses --      1.1003                 1.0886                 1.0935
 Frc consts  --      6.5392                 6.6362                 6.7362
 IR Inten    --      3.3357                 5.1512                 9.4751

                     85                     86                     87
                      A                      A                      A
 Frequencies --   3243.4574              3570.2084              3679.3395
 Red. masses --      1.0918                 1.0472                 1.0999
 Frc consts  --      6.7674                 7.8641                 8.7732
 IR Inten    --      0.9727                51.1077                36.0195

 - Thermochemistry -
 -------------------
 Temperature   298.150 Kelvin.  Pressure   1.00000 Atm.
 Atom     1 has atomic number  6 and mass  12.00000

 Molecular mass:   243.10078 amu.
 Principal axes and moments of inertia in atomic units:
                           1         2         3
     Eigenvalues --  1916.354578779.47639**********
           X            0.99987   0.01565  -0.00289
           Y           -0.01565   0.99988  -0.00029
           Z            0.00288   0.00033   1.00000
 This molecule is an asymmetric top.
 Rotational symmetry number  1.
 Warning -- assumption of classical behavior for rotation
           may cause significant error
 Rotational temperatures (Kelvin)      0.04520     0.00987     0.00840
 Rotational constants (GHZ):           0.94176     0.20556     0.17502
 Zero-point vibrational energy     647659.9 (Joules/Mol)
                                  154.79442 (Kcal/Mol)
 Warning -- explicit consideration of  23 degrees of freedom as
           vibrations may cause significant error
 Vibrational temperatures:     31.30    85.20    88.79   131.48   166.59
          (Kelvin)            192.02   214.37   265.88   313.69   332.76
                              358.42   391.94   416.17   449.44   475.38
                              511.50   544.03   614.30   651.57   711.86
                              787.06   808.26   842.93   901.26   937.64
                              955.44   993.27  1002.22  1032.93  1063.99
                             1098.49  1142.94  1173.02  1209.84  1251.07
                             1268.44  1320.17  1359.70  1377.03  1419.90
                             1453.38  1501.21  1513.03  1528.84  1552.28
                             1582.23  1609.46  1657.72  1662.43  1709.87
                             1800.99  1844.95  1873.09  1883.82  1914.61
                             1958.02  1978.55  2002.79  2064.42  2068.41
                             2097.89  2133.74  2162.15  2170.14  2174.04
                             2189.69  2193.08  2214.53  2328.71  2341.20
                             2386.24  2400.74  2423.96  2453.42  4353.56
                             4401.26  4404.41  4456.20  4482.20  4493.28
                             4531.38  4569.52  4627.98  4652.39  4666.61
                             5136.73  5293.75

 Zero-point correction=                           0.246681 (Hartree/Particle)
 Thermal correction to Energy=                    0.262464
 Thermal correction to Enthalpy=                  0.263408
 Thermal correction to Gibbs Free Energy=         0.202543
 Sum of electronic and zero-point Energies=           -817.741912
 Sum of electronic and thermal Energies=              -817.726128
 Sum of electronic and thermal Enthalpies=            -817.725184
 Sum of electronic and thermal Free Energies=         -817.786049

                     E (Thermal)             CV                S
                      KCal/Mol        Cal/Mol-Kelvin    Cal/Mol-Kelvin
 Total                  164.699             60.375            128.101
 Electronic               0.000              0.000              0.000
 Translational            0.889              2.981             42.366
 Rotational               0.889              2.981             33.517
 Vibrational            162.921             54.413             52.218
 Vibration     1          0.593              1.985              6.467
 Vibration     2          0.597              1.974              4.483
 Vibration     3          0.597              1.973              4.402
 Vibration     4          0.602              1.955              3.630
 Vibration     5          0.608              1.936              3.170
 Vibration     6          0.613              1.920              2.896
 Vibration     7          0.618              1.904              2.685
 Vibration     8          0.631              1.861              2.279
 Vibration     9          0.646              1.814              1.975
 Vibration    10          0.653              1.793              1.869
 Vibration    11          0.662              1.764              1.737
 Vibration    12          0.675              1.724              1.581
 Vibration    13          0.686              1.694              1.478
 Vibration    14          0.701              1.650              1.350
 Vibration    15          0.713              1.615              1.258
 Vibration    16          0.731              1.564              1.142
 Vibration    17          0.748              1.517              1.047
 Vibration    18          0.789              1.412              0.869
 Vibration    19          0.811              1.355              0.787
 Vibration    20          0.850              1.262              0.671
 Vibration    21          0.902              1.146              0.550
 Vibration    22          0.917              1.114              0.520
 Vibration    23          0.943              1.062              0.475

                           ! Non-Optimized Parameters !
 Normal termination of Gaussian 16 at Fri Dec 11 21:42:17 2020.

 ----------------------------------------------------------------------
 # B3LYP/6-311++G(d,p) empiricaldispersion=gd3bj scf=xqc pop=npa geom=c
 heck
 ----------------------------------------------------------------------

 ---------------------------------------
 CID_116832096_JID_8676_Energie_neutraal
 ---------------------------------------
 Structure from the checkpoint file:  "JID_8676.chk"
 Charge =  0 Multiplicity = 1

 SCF Done:  E(RB3LYP) =  -818.209126246     A.U. after   16 cycles
 Normal termination of Gaussian 16 at Fri Dec 11 21:48:03 2020.

 ----------------------------------------------------------------------
 # B3LYP/6-311++G(d,p) empiricaldispersion=gd3bj scf=xqc pop=npa geom=c
 heck
 ----------------------------------------------------------------------

 -------------------------------------
 CID_116832096_JID_8676_Energie_kation
 -------------------------------------
 Structure from the checkpoint file:  "JID_8676.chk"
 Charge =  1 Multiplicity = 2

 SCF Done:  E(UB3LYP) =  -817.949057879     A.U. after   21 cycles
 Normal termination of Gaussian 16 at Fri Dec 11 21:59:02 2020.
 Gaussian 16:  ES64L-G16RevA.03 25-Dec-2016

 ----------------------------------------------------------------------
 # B3LYP/6-311++G(d,p) empiricaldispersion=gd3bj scf=xqc pop=npa geom=c
 heck
 ----------------------------------------------------------------------

 ------------------------------------
 CID_116832096_JID_8676_Energie_anion
 ------------------------------------
 Structure from the checkpoint file:  "JID_8676.chk"
 Charge = -1 Multiplicity = 2

                         Standard orientation:
 ---------------------------------------------------------------------
 Center     Atomic      Atomic             Coordinates (Angstroms)
 Number     Number       Type             X           Y           Z
 ---------------------------------------------------------------------
      1          6           0       -4.017854   -2.282214    1.126833
      2          6           0       -2.959017   -1.977846    0.058135
      3          6           0       -2.698265   -0.509644   -0.088523
      4          6           0       -1.514982    0.168210   -0.199368
      5          8           0       -1.838307    1.534874   -0.235707
      6          6           0       -3.187106    1.564541   -0.157587
      7          7           0       -3.759752    0.399962   -0.067163
      8          7           0       -3.786667    2.793938   -0.250716
      9          6           0       -0.103262   -0.167094   -0.244684
     10          6           0        0.851052    0.781918    0.173693
     11          6           0        2.173669    0.389302    0.115113
     12          6           0        2.604352   -0.871999   -0.320668
     13          6           0        1.660432   -1.807468   -0.746355
     14          6           0        0.319742   -1.437293   -0.712956
     15          7           0        3.999641   -0.923242   -0.241924
     16          6           0        4.343172    0.239380    0.213260
     17          8           0        3.294779    1.107560    0.460579
     18          6           0        5.706372    0.751856    0.501095
     19          1           0       -3.683993   -1.940946    2.112739
     20          1           0       -4.208597   -3.359220    1.182980
     21          1           0       -4.955019   -1.769956    0.894982
     22          1           0       -2.022857   -2.487933    0.306297
     23          1           0       -3.292605   -2.387807   -0.906280
     24          1           0       -3.238179    3.568630    0.099979
     25          1           0       -4.746735    2.792073    0.067994
     26          1           0        0.553346    1.761892    0.525097
     27          1           0        1.967338   -2.782218   -1.110340
     28          1           0       -0.425609   -2.129388   -1.086199
     29          1           0        5.921466    1.643496   -0.098586
     30          1           0        5.801709    1.032279    1.556169
     31          1           0        6.435577   -0.024886    0.266886
 ---------------------------------------------------------------------

 SCF Done:  E(UB3LYP) =  -818.208144268     A.U. after   28 cycles

 The electronic state is 2-A.
 Alpha  occ. eigenvalues --  -19.07469 -19.06984 -14.22438 -14.19574 -14.17985
 Alpha  occ. eigenvalues --  -10.17113 -10.14404 -10.11165 -10.10134 -10.08996
 Alpha  occ. eigenvalues --  -10.07732 -10.07552 -10.07054 -10.06457 -10.05918
 Alpha  occ. eigenvalues --  -10.05894 -10.05645 -10.05097  -1.01109  -1.00845
 Alpha  occ. eigenvalues --   -0.82536  -0.80942  -0.79215  -0.74209  -0.68514
 Alpha  occ. eigenvalues --   -0.67052  -0.64361  -0.62705  -0.58882  -0.54308
 Alpha  occ. eigenvalues --   -0.51308  -0.50577  -0.48694  -0.47489  -0.46123
 Alpha  occ. eigenvalues --   -0.42039  -0.40570  -0.39919  -0.38083  -0.37474
 Alpha  occ. eigenvalues --   -0.36834  -0.36236  -0.34154  -0.33032  -0.31918
 Alpha  occ. eigenvalues --   -0.31888  -0.31733  -0.31428  -0.29933  -0.29389
 Alpha  occ. eigenvalues --   -0.27638  -0.26222  -0.25348  -0.24901  -0.24467
 Alpha  occ. eigenvalues --   -0.23707  -0.22794  -0.21245  -0.18523  -0.17995
 Alpha  occ. eigenvalues --   -0.17447  -0.14153  -0.13363  -0.08054   0.04129
 Alpha virt. eigenvalues --    0.06180   0.06785   0.07448   0.09049   0.09522
 Alpha virt. eigenvalues --    0.10120   0.10217   0.10497   0.10810   0.11225
 Alpha virt. eigenvalues --    0.11893   0.12266   0.12735   0.13336   0.13568

  Beta  occ. eigenvalues --  -19.07412 -19.06936 -14.22361 -14.19632 -14.18017
  Beta  occ. eigenvalues --  -10.17025 -10.14114 -10.11218 -10.10142 -10.09022
  Beta  occ. eigenvalues --  -10.07598 -10.07424 -10.07064 -10.06290 -10.05941
  Beta  occ. eigenvalues --  -10.05901 -10.05549 -10.04925  -1.01019  -1.00699
  Beta  occ. eigenvalues --   -0.82426  -0.80828  -0.79136  -0.73973  -0.68318
  Beta  occ. eigenvalues --   -0.66917  -0.64171  -0.62529  -0.58743  -0.54226
  Beta  occ. eigenvalues --   -0.51155  -0.50337  -0.48597  -0.47382  -0.45951
  Beta  occ. eigenvalues --   -0.41913  -0.40414  -0.39804  -0.37954  -0.36962
  Beta  occ. eigenvalues --   -0.36652  -0.36076  -0.34072  -0.32922  -0.31818
  Beta  occ. eigenvalues --   -0.31739  -0.31672  -0.31338  -0.29825  -0.29288
  Beta  occ. eigenvalues --   -0.27570  -0.26121  -0.25126  -0.24790  -0.24163
  Beta  occ. eigenvalues --   -0.23639  -0.22489  -0.20816  -0.18313  -0.18015
  Beta  occ. eigenvalues --   -0.17429  -0.13404  -0.12743  -0.07431
  Beta virt. eigenvalues --    0.06726   0.07042   0.07673   0.08406   0.08991
  Beta virt. eigenvalues --    0.10019   0.10161   0.10294   0.10662   0.10998
  Beta virt. eigenvalues --    0.11261   0.11753   0.12348   0.13366   0.13545

 Mulliken charges and spin densities:
               1          2
     1  C   -0.372189  -0.243021
     2  C   -0.523462  -0.088905
     3  C    0.397380  -0.193900
     4  C    0.061246  -0.297232
     5  O   -0.027487  -0.030806
     6  C    0.553376  -0.047333
     7  N   -0.090716  -0.067851
     8  N   -0.518317   0.164622
     9  C    0.868493   0.084496
    10  C   -0.311840   0.055519
    11  C   -0.113907  -0.080412
    12  C    0.082472   0.041408
    13  C   -0.664895   0.140271
    14  C   -0.881256  -0.023578
    15  N   -0.101935  -0.034945
    16  C    0.284461   0.183013
    17  O   -0.113241   0.011060
    18  C   -0.198331  -0.009679
    19  H    0.079325   0.059371
    20  H    0.045124   0.071258
    21  H    0.119914   0.038245
    22  H    0.105855  -0.003271
    23  H    0.087879   0.065237
    24  H   -0.314100   0.579697
    25  H   -0.213029   0.487591
    26  H    0.068185   0.094519
    27  H    0.138226   0.004288
    28  H    0.124984  -0.005385
    29  H    0.124128   0.034581
    30  H    0.147798   0.009185
    31  H    0.155859   0.001956
 Sum of Mulliken charges =  -1.00000   1.00000

 Dipole moment (field-independent basis, Debye):
    X=              4.6212    Y=             -3.0007    Z=              0.2101  Tot=              5.5140
 Quadrupole moment (field-independent basis, Debye-Ang):
   XX=           -178.6046   YY=           -140.9151   ZZ=           -119.3085
   XY=             21.9730   XZ=              3.9054   YZ=             -0.0154

 Summary of Natural Population Analysis:

                                       Natural Population
                Natural  -----------------------------------------------
    Atom  No    Charge         Core      Valence    Rydberg      Total
 -----------------------------------------------------------------------
      C    1   -0.28064      0.99967     2.27654    0.00443     3.28064
      C    2   -0.20308      0.99961     2.19628    0.00719     3.20308
      C    3    0.07788      0.99948     1.90875    0.01389     2.92212
      C    4    0.11546      0.99935     1.87190    0.01330     2.88454
      O    5   -0.24675      0.99985     3.24023    0.00666     4.24675
      C    6    0.36403      0.99962     1.61612    0.02023     2.63597
      N    7   -0.30108      0.99967     2.79160    0.00982     3.80108
      N    8   -0.40136      0.99970     2.89150    0.01016     3.90136
      C    9   -0.01906      0.99951     2.01035    0.00920     3.01906
      C   10   -0.08797      0.99949     2.07942    0.00905     3.08797
      C   11    0.13169      0.99934     1.85704    0.01193     2.86831
      C   12    0.05133      0.99944     1.93419    0.01505     2.94867
      C   13   -0.08787      0.99954     2.08019    0.00815     3.08787
      C   14   -0.11058      0.99956     2.10372    0.00730     3.11058
      N   15   -0.26900      0.99967     2.76085    0.00848     3.76900
      C   16    0.31775      0.99962     1.66524    0.01739     2.68225
      O   17   -0.24835      0.99986     3.24143    0.00707     4.24835
      C   18   -0.31465      0.99963     2.31105    0.00398     3.31465
      H   19    0.09662      0.00000     0.40239    0.00099     0.40338
      H   20    0.09106      0.00000     0.40791    0.00103     0.40894
      H   21    0.10421      0.00000     0.39430    0.00149     0.39579
      H   22    0.10321      0.00000     0.39526    0.00153     0.39679
      H   23    0.09796      0.00000     0.40056    0.00147     0.40204
      H   24    0.19571      0.00000     0.29850    0.00580     0.30429
      H   25    0.19614      0.00000     0.29996    0.00390     0.30386
      H   26    0.10800      0.00000     0.39064    0.00136     0.39200
      H   27    0.09763      0.00000     0.40099    0.00138     0.40237
      H   28    0.09748      0.00000     0.40104    0.00148     0.40252
      H   29    0.10747      0.00000     0.39148    0.00106     0.39253
      H   30    0.10705      0.00000     0.39191    0.00104     0.39295
      H   31    0.10974      0.00000     0.38947    0.00079     0.39026
 =======================================================================
   * Total *    0.00000     17.99260    45.80081    0.20659    64.00000

 Normal termination of Gaussian 16 at Fri Dec 11 22:14:03 2020.
