 Gaussian 16, Revision A.03,

 -----------------------------------------------------------
 # opt freq B3LYP/6-31G(d) empiricaldispersion=gd3bj scf=xqc
 -----------------------------------------------------------

 -------------------------------
 CID_150439030_JID_8995_neutraal
 -------------------------------
 Symbolic Z-matrix:
 Charge =  0 Multiplicity = 1

 SCF Done:  E(RB3LYP) =  -1197.67759505     A.U. after   16 cycles
 SCF Done:  E(RB3LYP) =  -1197.70164477     A.U. after   13 cycles
 SCF Done:  E(RB3LYP) =  -1197.70884838     A.U. after   13 cycles
 SCF Done:  E(RB3LYP) =  -1197.71142334     A.U. after   12 cycles
 SCF Done:  E(RB3LYP) =  -1197.71265720     A.U. after   13 cycles
 SCF Done:  E(RB3LYP) =  -1197.71226604     A.U. after   14 cycles
 SCF Done:  E(RB3LYP) =  -1197.71298327     A.U. after   13 cycles
 SCF Done:  E(RB3LYP) =  -1197.71301811     A.U. after   11 cycles
 SCF Done:  E(RB3LYP) =  -1197.71302295     A.U. after    9 cycles
 SCF Done:  E(RB3LYP) =  -1197.71302430     A.U. after    8 cycles
 SCF Done:  E(RB3LYP) =  -1197.71302460     A.U. after    8 cycles
 Optimization completed.
    -- Stationary point found.
 Normal termination of Gaussian 16 at Fri Dec 11 23:18:41 2020.

 --------------------------------------------------------------------
 #N Geom=AllCheck Guess=TCheck SCRF=Check GenChk RB3LYP/6-31G(d) Freq
 --------------------------------------------------------------------

 Structure from the checkpoint file:  "JID_8995.chk"
 -------------------------------
 CID_150439030_JID_8995_neutraal
 -------------------------------
 Charge =  0 Multiplicity = 1

 SCF Done:  E(RB3LYP) =  -1197.71302460     A.U. after    1 cycles

  Exact polarizability: 196.732 -14.087 157.278 -28.846  -9.664 126.750
 Approx polarizability: 294.535 -28.316 275.653 -73.504 -25.737 224.501

                      1                      2                      3
                      A                      A                      A
 Frequencies --     38.7280                41.0475                60.6391
 Red. masses --      5.9928                 5.9449                 5.6055
 Frc consts  --      0.0053                 0.0059                 0.0121
 IR Inten    --      0.1999                 4.3064                 0.3395

                      4                      5                      6
                      A                      A                      A
 Frequencies --    106.6244               152.0831               160.1643
 Red. masses --      5.4747                 6.6507                 4.4497
 Frc consts  --      0.0367                 0.0906                 0.0673
 IR Inten    --      1.6293                 4.6129                 0.0848

                      7                      8                      9
                      A                      A                      A
 Frequencies --    186.5074               227.7997               240.8912
 Red. masses --      1.0387                 4.0382                 3.6564
 Frc consts  --      0.0213                 0.1235                 0.1250
 IR Inten    --      0.1811                 2.3751                 1.8954

                     10                     11                     12
                      A                      A                      A
 Frequencies --    259.5345               292.4381               341.9462
 Red. masses --      4.0598                 3.7048                 2.8780
 Frc consts  --      0.1611                 0.1867                 0.1983
 IR Inten    --      4.3115                 1.1833                 2.8311

                     13                     14                     15
                      A                      A                      A
 Frequencies --    346.7047               366.5903               411.0291
 Red. masses --      2.4771                 4.7146                 5.7372
 Frc consts  --      0.1754                 0.3733                 0.5711
 IR Inten    --      1.7622                 3.1496                 1.7792

                     16                     17                     18
                      A                      A                      A
 Frequencies --    425.6478               462.1908               474.3153
 Red. masses --      5.0709                 5.2591                 6.2494
 Frc consts  --      0.5413                 0.6619                 0.8284
 IR Inten    --      3.2995                 1.7281                17.7202

                     19                     20                     21
                      A                      A                      A
 Frequencies --    485.4489               509.6523               522.6477
 Red. masses --      5.7876                 5.5951                 4.9037
 Frc consts  --      0.8036                 0.8563                 0.7892
 IR Inten    --     27.6215                18.6154                49.6297

                     22                     23                     24
                      A                      A                      A
 Frequencies --    554.2086               567.8531               619.2035
 Red. masses --      4.7650                 3.9492                 5.4095
 Frc consts  --      0.8623                 0.7503                 1.2220
 IR Inten    --     61.4203                23.6836                37.6471

                     25                     26                     27
                      A                      A                      A
 Frequencies --    631.9436               645.8922               668.2402
 Red. masses --      4.8544                 8.4081                 5.8861
 Frc consts  --      1.1422                 2.0667                 1.5486
 IR Inten    --     32.7320               327.6884                53.5247

                     28                     29                     30
                      A                      A                      A
 Frequencies --    699.2718               726.7402               744.2069
 Red. masses --      3.9168                 3.7003                 1.8553
 Frc consts  --      1.1284                 1.1515                 0.6054
 IR Inten    --     18.2168                51.4230                24.4633

                     31                     32                     33
                      A                      A                      A
 Frequencies --    767.4085               768.7818               777.5455
 Red. masses --      1.7418                 4.7821                 3.7021
 Frc consts  --      0.6044                 1.6652                 1.3187
 IR Inten    --     15.1803               130.1824                36.8344

                     34                     35                     36
                      A                      A                      A
 Frequencies --    810.6127               837.9050               855.3333
 Red. masses --      2.7050                 2.9298                 4.2999
 Frc consts  --      1.0472                 1.2119                 1.8534
 IR Inten    --     61.1797                63.6423                 1.5312

                     37                     38                     39
                      A                      A                      A
 Frequencies --    877.0991               903.7133               931.7994
 Red. masses --      1.3233                 1.4052                 7.0000
 Frc consts  --      0.5998                 0.6762                 3.5809
 IR Inten    --      3.3555                 1.1616                 8.2391

                     40                     41                     42
                      A                      A                      A
 Frequencies --    955.4619               964.3930              1002.2858
 Red. masses --      1.7542                 1.2690                 1.3322
 Frc consts  --      0.9435                 0.6954                 0.7885
 IR Inten    --      5.7502                 0.4477                 0.6958

                     43                     44                     45
                      A                      A                      A
 Frequencies --   1008.3446              1032.0861              1051.1926
 Red. masses --      1.4768                 1.6110                 3.0919
 Frc consts  --      0.8847                 1.0110                 2.0130
 IR Inten    --     45.3544                20.0300                 5.7918

                     46                     47                     48
                      A                      A                      A
 Frequencies --   1072.3972              1080.0127              1116.4135
 Red. masses --      2.9591                 1.6811                 2.0961
 Frc consts  --      2.0051                 1.1553                 1.5392
 IR Inten    --      8.8602                 8.7236                 6.8025

                     49                     50                     51
                      A                      A                      A
 Frequencies --   1136.2786              1156.8172              1200.0791
 Red. masses --      1.7871                 8.6419                 1.4043
 Frc consts  --      1.3595                 6.8138                 1.1916
 IR Inten    --      2.3928               177.8584                 3.3754

                     52                     53                     54
                      A                      A                      A
 Frequencies --   1213.1685              1234.1179              1253.8896
 Red. masses --      1.8409                 1.3712                 2.3987
 Frc consts  --      1.5963                 1.2304                 2.2220
 IR Inten    --     26.4791                 9.7189                 9.2753

                     55                     56                     57
                      A                      A                      A
 Frequencies --   1285.4099              1301.4708              1332.1072
 Red. masses --      2.5348                 2.3177                 1.5947
 Frc consts  --      2.4676                 2.3130                 1.6673
 IR Inten    --     17.7609                18.4507                 1.3969

                     58                     59                     60
                      A                      A                      A
 Frequencies --   1341.0097              1349.1162              1377.6812
 Red. masses --      1.3422                 8.2811                 4.2826
 Frc consts  --      1.4221                 8.8805                 4.7891
 IR Inten    --     20.8532               169.5162                13.6979

                     61                     62                     63
                      A                      A                      A
 Frequencies --   1382.1823              1386.2852              1412.0652
 Red. masses --      1.2121                 1.2957                 4.7251
 Frc consts  --      1.3644                 1.4671                 5.5510
 IR Inten    --     12.7539                 1.3247                 0.2774

                     64                     65                     66
                      A                      A                      A
 Frequencies --   1445.9751              1481.8214              1487.3882
 Red. masses --      2.3294                 1.0527                 1.0484
 Frc consts  --      2.8696                 1.3620                 1.3665
 IR Inten    --     14.9678                 5.1401                 6.0941

                     67                     68                     69
                      A                      A                      A
 Frequencies --   1503.2528              1531.1615              1581.6027
 Red. masses --      1.1094                 3.0603                 5.5347
 Frc consts  --      1.4771                 4.2273                 8.1571
 IR Inten    --      0.8927                 4.8239                26.7689

                     70                     71                     72
                      A                      A                      A
 Frequencies --   1633.4497              1643.0463              1655.4236
 Red. masses --      6.5374                 5.5123                 5.7438
 Frc consts  --     10.2771                 8.7676                 9.2739
 IR Inten    --      2.0220                12.7292                14.0727

                     73                     74                     75
                      A                      A                      A
 Frequencies --   3094.9295              3111.2628              3138.2149
 Red. masses --      1.0292                 1.0643                 1.0885
 Frc consts  --      5.8085                 6.0701                 6.3159
 IR Inten    --      0.0735                24.8869                 7.9087

                     76                     77                     78
                      A                      A                      A
 Frequencies --   3147.9337              3186.0314              3187.4212
 Red. masses --      1.0867                 1.1038                 1.0860
 Frc consts  --      6.3446                 6.6015                 6.5010
 IR Inten    --     20.6190                 4.6570                 2.2168

                     79                     80                     81
                      A                      A                      A
 Frequencies --   3194.5851              3200.1300              3206.3317
 Red. masses --      1.1064                 1.0911                 1.1086
 Frc consts  --      6.6529                 6.5836                 6.7152
 IR Inten    --      0.0387                17.4125                 0.0266

                     82                     83                     84
                      A                      A                      A
 Frequencies --   3211.3411              3265.4281              3307.5519
 Red. masses --      1.0959                 1.0933                 1.1013
 Frc consts  --      6.6586                 6.8688                 7.0987
 IR Inten    --     29.4088                 4.5387                 2.6490

 - Thermochemistry -
 -------------------
 Temperature   298.150 Kelvin.  Pressure   1.00000 Atm.
 Atom     1 has atomic number  6 and mass  12.00000

 Molecular mass:   264.05686 amu.
 Principal axes and moments of inertia in atomic units:
                           1         2         3
     Eigenvalues --  2422.545916117.269796809.94008
           X            0.99997  -0.00653   0.00412
           Y            0.00650   0.99996   0.00668
           Z           -0.00417  -0.00665   0.99997
 This molecule is an asymmetric top.
 Rotational symmetry number  1.
 Warning -- assumption of classical behavior for rotation
           may cause significant error
 Rotational temperatures (Kelvin)      0.03575     0.01416     0.01272
 Rotational constants (GHZ):           0.74498     0.29502     0.26502
 Zero-point vibrational energy     600279.8 (Joules/Mol)
                                  143.47030 (Kcal/Mol)
 Warning -- explicit consideration of  24 degrees of freedom as
           vibrations may cause significant error
 Vibrational temperatures:     55.72    59.06    87.25   153.41   218.81
          (Kelvin)            230.44   268.34   327.75   346.59   373.41
                              420.75   491.98   498.83   527.44   591.38
                              612.41   664.99   682.43   698.45   733.28
                              751.97   797.38   817.01   890.90   909.23
                              929.29   961.45  1006.10  1045.62  1070.75
                             1104.13  1106.11  1118.71  1166.29  1205.56
                             1230.63  1261.95  1300.24  1340.65  1374.70
                             1387.55  1442.07  1450.78  1484.94  1512.43
                             1542.94  1553.90  1606.27  1634.85  1664.40
                             1726.65  1745.48  1775.62  1804.07  1849.42
                             1872.53  1916.61  1929.41  1941.08  1982.18
                             1988.65  1994.56  2031.65  2080.44  2132.01
                             2140.02  2162.85  2203.00  2275.57  2350.17
                             2363.98  2381.79  4452.91  4476.41  4515.19
                             4529.17  4583.99  4585.99  4596.30  4604.27
                             4613.20  4620.40  4698.22  4758.83

 Zero-point correction=                           0.228634 (Hartree/Particle)
 Thermal correction to Energy=                    0.243685
 Thermal correction to Enthalpy=                  0.244629
 Thermal correction to Gibbs Free Energy=         0.186078
 Sum of electronic and zero-point Energies=          -1197.484390
 Sum of electronic and thermal Energies=             -1197.469339
 Sum of electronic and thermal Enthalpies=           -1197.468395
 Sum of electronic and thermal Free Energies=        -1197.526946

                     E (Thermal)             CV                S
                      KCal/Mol        Cal/Mol-Kelvin    Cal/Mol-Kelvin
 Total                  152.915             60.250            123.231
 Electronic               0.000              0.000              0.000
 Translational            0.889              2.981             42.612
 Rotational               0.889              2.981             32.978
 Vibrational            151.137             54.288             47.640
 Vibration     1          0.594              1.981              5.323
 Vibration     2          0.594              1.981              5.208
 Vibration     3          0.597              1.973              4.436
 Vibration     4          0.605              1.944              3.329
 Vibration     5          0.619              1.900              2.646
 Vibration     6          0.622              1.891              2.548
 Vibration     7          0.632              1.858              2.262
 Vibration     8          0.651              1.799              1.896
 Vibration     9          0.658              1.778              1.796
 Vibration    10          0.668              1.747              1.665
 Vibration    11          0.688              1.688              1.460
 Vibration    12          0.721              1.592              1.203
 Vibration    13          0.725              1.582              1.181
 Vibration    14          0.739              1.541              1.094
 Vibration    15          0.775              1.446              0.923
 Vibration    16          0.787              1.414              0.873
 Vibration    17          0.820              1.334              0.760
 Vibration    18          0.831              1.307              0.726
 Vibration    19          0.842              1.282              0.696
 Vibration    20          0.865              1.229              0.634
 Vibration    21          0.878              1.200              0.604
 Vibration    22          0.910              1.130              0.536
 Vibration    23          0.924              1.101              0.508
 Vibration    24          0.979              0.991              0.418

                           ! Non-Optimized Parameters !
 Normal termination of Gaussian 16 at Fri Dec 11 23:31:02 2020.

 ----------------------------------------------------------------------
 # B3LYP/6-311++G(d,p) empiricaldispersion=gd3bj scf=xqc pop=npa geom=c
 heck
 ----------------------------------------------------------------------

 ---------------------------------------
 CID_150439030_JID_8995_Energie_neutraal
 ---------------------------------------
 Structure from the checkpoint file:  "JID_8995.chk"
 Charge =  0 Multiplicity = 1

 SCF Done:  E(RB3LYP) =  -1197.95238644     A.U. after   16 cycles
 Normal termination of Gaussian 16 at Fri Dec 11 23:36:52 2020.

 ----------------------------------------------------------------------
 # B3LYP/6-311++G(d,p) empiricaldispersion=gd3bj scf=xqc pop=npa geom=c
 heck
 ----------------------------------------------------------------------

 -------------------------------------
 CID_150439030_JID_8995_Energie_kation
 -------------------------------------
 Structure from the checkpoint file:  "JID_8995.chk"
 Charge =  1 Multiplicity = 2

 SCF Done:  E(UB3LYP) =  -1197.66691960     A.U. after   30 cycles
 Normal termination of Gaussian 16 at Fri Dec 11 23:52:03 2020.
 Gaussian 16:  ES64L-G16RevA.03 25-Dec-2016

 ----------------------------------------------------------------------
 # B3LYP/6-311++G(d,p) empiricaldispersion=gd3bj scf=xqc pop=npa geom=c
 heck
 ----------------------------------------------------------------------

 ------------------------------------
 CID_150439030_JID_8995_Energie_anion
 ------------------------------------
 Structure from the checkpoint file:  "JID_8995.chk"
 Charge = -1 Multiplicity = 2

                         Standard orientation:
 ---------------------------------------------------------------------
 Center     Atomic      Atomic             Coordinates (Angstroms)
 Number     Number       Type             X           Y           Z
 ---------------------------------------------------------------------
      1          6           0        2.926653    0.396258    2.156793
      2         16           0        2.732034    0.358009    0.372674
      3          8           0        2.591728    1.718733   -0.135658
      4          8           0        3.705094   -0.556803   -0.218589
      5          8           0        1.244868   -0.390785    0.406561
      6          7           0        0.761533   -0.451840   -1.007226
      7          6           0        0.691890   -1.939242   -1.334088
      8          6           0       -0.690044   -2.357663   -0.958465
      9          6           0       -1.101614   -2.190268    0.316213
     10          6           0       -2.089246   -1.095058    0.448036
     11          6           0       -3.274022   -0.973718    1.172253
     12          6           0       -3.991443    0.234785    1.164458
     13          6           0       -3.534333    1.351547    0.467024
     14          6           0       -2.319540    1.277944   -0.231886
     15          6           0       -1.626070    0.046406   -0.236075
     16          7           0       -0.444373    0.238543   -1.019769
     17          6           0       -0.411457    1.581459   -1.413199
     18          6           0       -1.535157    2.222557   -0.993705
     19          1           0        3.895784    0.859137    2.353809
     20          1           0        2.905957   -0.626310    2.535079
     21          1           0        2.119880    0.994574    2.581276
     22          1           0        1.516778   -2.388883   -0.783557
     23          1           0        0.892844   -2.006159   -2.405883
     24          1           0       -1.421572   -2.112871   -1.728441
     25          1           0       -0.428058   -2.383604    1.151584
     26          1           0       -3.650693   -1.828456    1.726040
     27          1           0       -4.925642    0.297858    1.715064
     28          1           0       -4.105846    2.275405    0.475150
     29          1           0        0.451121    1.932271   -1.957907
     30          1           0       -1.790444    3.252777   -1.198699
 ---------------------------------------------------------------------

 SCF Done:  E(UB3LYP) =  -1197.96289158     A.U. after   31 cycles

 The electronic state is 2-A.
 Alpha  occ. eigenvalues --  -88.97248 -19.07142 -19.02556 -19.02523 -14.28834
 Alpha  occ. eigenvalues --  -14.26403 -10.12184 -10.08509 -10.07623 -10.07536
 Alpha  occ. eigenvalues --  -10.05105 -10.05038 -10.04849 -10.04487 -10.04449
 Alpha  occ. eigenvalues --  -10.03791 -10.00190  -9.99542  -8.03428  -5.99768
 Alpha  occ. eigenvalues --   -5.99611  -5.99505  -1.04409  -0.96487  -0.91743
 Alpha  occ. eigenvalues --   -0.87494  -0.76078  -0.71791  -0.68541  -0.65705
 Alpha  occ. eigenvalues --   -0.64886  -0.60147  -0.57556  -0.55281  -0.52287
 Alpha  occ. eigenvalues --   -0.48976  -0.46593  -0.44620  -0.43294  -0.42328
 Alpha  occ. eigenvalues --   -0.40528  -0.38924  -0.37601  -0.36741  -0.35663
 Alpha  occ. eigenvalues --   -0.35369  -0.35022  -0.34319  -0.33616  -0.31674
 Alpha  occ. eigenvalues --   -0.30340  -0.28951  -0.28576  -0.27595  -0.27305
 Alpha  occ. eigenvalues --   -0.25952  -0.25336  -0.24271  -0.22639  -0.22615
 Alpha  occ. eigenvalues --   -0.22017  -0.21173  -0.20274  -0.19364  -0.15728
 Alpha  occ. eigenvalues --   -0.15494  -0.11132  -0.10190  -0.08381   0.04161
 Alpha virt. eigenvalues --    0.06199   0.08343   0.09174   0.09367   0.09816
 Alpha virt. eigenvalues --    0.10350   0.10818   0.11337   0.11719   0.12115
 Alpha virt. eigenvalues --    0.12255   0.13190   0.13346   0.14032   0.14404

  Beta  occ. eigenvalues --  -88.97226 -19.07096 -19.02555 -19.02516 -14.28679
  Beta  occ. eigenvalues --  -14.26410 -10.12151 -10.08489 -10.07560 -10.07465
  Beta  occ. eigenvalues --  -10.05095 -10.05039 -10.04894 -10.04407 -10.04313
  Beta  occ. eigenvalues --  -10.03691  -9.99868  -9.99135  -8.03402  -5.99726
  Beta  occ. eigenvalues --   -5.99593  -5.99485  -1.04330  -0.96332  -0.91728
  Beta  occ. eigenvalues --   -0.87410  -0.75865  -0.71532  -0.68420  -0.65302
  Beta  occ. eigenvalues --   -0.64667  -0.59971  -0.57226  -0.54948  -0.52198
  Beta  occ. eigenvalues --   -0.48880  -0.46381  -0.44478  -0.42913  -0.42210
  Beta  occ. eigenvalues --   -0.40276  -0.38864  -0.37391  -0.36616  -0.35593
  Beta  occ. eigenvalues --   -0.35274  -0.34953  -0.34271  -0.33520  -0.31482
  Beta  occ. eigenvalues --   -0.30170  -0.28686  -0.28380  -0.27437  -0.27095
  Beta  occ. eigenvalues --   -0.25794  -0.25259  -0.24121  -0.22585  -0.22536
  Beta  occ. eigenvalues --   -0.21804  -0.20907  -0.20021  -0.19263  -0.15370
  Beta  occ. eigenvalues --   -0.15212  -0.10773  -0.09308  -0.06440
  Beta virt. eigenvalues --    0.06484   0.08275   0.09136   0.09419   0.09734
  Beta virt. eigenvalues --    0.09933   0.10473   0.10866   0.11319   0.11793
  Beta virt. eigenvalues --    0.12145   0.12788   0.13171   0.13372   0.14194

 Mulliken charges and spin densities:
               1          2
     1  C   -0.240525  -0.262877
     2  S    0.068122   0.054570
     3  O   -0.177694   0.007293
     4  O   -0.159399   0.005633
     5  O    0.167581  -0.000698
     6  N   -0.016495   0.019762
     7  C   -0.520621  -0.011082
     8  C    0.036748   0.282144
     9  C   -0.099797   0.216860
    10  C    0.141511   0.077505
    11  C    0.024644   0.048727
    12  C   -0.344085  -0.039518
    13  C   -0.726157   0.124597
    14  C    0.274484  -0.011028
    15  C   -0.868591  -0.007183
    16  N    0.219028   0.039110
    17  C    0.165828   0.020150
    18  C   -0.340238   0.009721
    19  H   -0.004570   0.203649
    20  H    0.157185   0.052437
    21  H    0.155453   0.060608
    22  H    0.140554   0.003776
    23  H    0.090596   0.048923
    24  H    0.119279   0.003478
    25  H    0.111280   0.007544
    26  H    0.081877   0.050260
    27  H    0.108627   0.004163
    28  H    0.113264  -0.009116
    29  H    0.191404  -0.001339
    30  H    0.130707   0.001930
 Sum of Mulliken charges =  -1.00000   1.00000

 Dipole moment (field-independent basis, Debye):
    X=              1.6241    Y=              3.5004    Z=              1.8817  Tot=              4.2932
 Quadrupole moment (field-independent basis, Debye-Ang):
   XX=           -156.6934   YY=           -143.3274   ZZ=           -123.5232
   XY=             -7.7297   XZ=              5.3147   YZ=             -3.6864

 Summary of Natural Population Analysis:

                                       Natural Population
                Natural  -----------------------------------------------
    Atom  No    Charge         Core      Valence    Rydberg      Total
 -----------------------------------------------------------------------
      C    1   -0.39297      0.99960     2.38598    0.00739     3.39297
      S    2    1.12315      4.99942     1.77652    0.10092     6.87685
      O    3   -0.45136      0.99990     3.44500    0.00645     4.45136
      O    4   -0.45469      0.99990     3.44953    0.00526     4.45469
      O    5   -0.30970      0.99993     3.30053    0.00924     4.30970
      N    6   -0.01362      0.99975     2.49819    0.01568     3.51362
      C    7   -0.09938      0.99957     2.08679    0.01302     3.09938
      C    8   -0.04236      0.99941     2.02890    0.01405     3.04236
      C    9   -0.05004      0.99940     2.03835    0.01229     3.05004
      C   10   -0.02493      0.99943     2.01329    0.01221     3.02493
      C   11   -0.08602      0.99952     2.07825    0.00825     3.08602
      C   12   -0.12135      0.99959     2.11277    0.00899     3.12135
      C   13   -0.08218      0.99954     2.07415    0.00849     3.08218
      C   14   -0.04863      0.99947     2.04094    0.00821     3.04863
      C   15    0.10596      0.99938     1.88396    0.01070     2.89404
      N   16   -0.13549      0.99959     2.62367    0.01223     3.63549
      C   17    0.01664      0.99956     1.97261    0.01118     2.98336
      C   18   -0.14407      0.99953     2.13603    0.00851     3.14407
      H   19    0.11510      0.00000     0.38344    0.00147     0.38490
      H   20    0.11827      0.00000     0.38084    0.00089     0.38173
      H   21    0.12037      0.00000     0.37879    0.00084     0.37963
      H   22    0.10551      0.00000     0.39335    0.00114     0.39449
      H   23    0.09647      0.00000     0.40238    0.00115     0.40353
      H   24    0.08048      0.00000     0.41785    0.00167     0.41952
      H   25    0.08910      0.00000     0.40972    0.00118     0.41090
      H   26    0.09573      0.00000     0.40286    0.00142     0.40427
      H   27    0.09109      0.00000     0.40789    0.00103     0.40891
      H   28    0.09098      0.00000     0.40765    0.00137     0.40902
      H   29    0.10694      0.00000     0.39213    0.00093     0.39306
      H   30    0.10101      0.00000     0.39829    0.00070     0.39899
 =======================================================================
   * Total *    0.00001     21.99249    46.72062    0.28688    68.99999

 Normal termination of Gaussian 16 at Sat Dec 12 00:07:54 2020.
