 Gaussian 16, Revision A.03,

 -----------------------------------------------------------
 # opt freq B3LYP/6-31G(d) empiricaldispersion=gd3bj scf=xqc
 -----------------------------------------------------------

 ------------------------------
 CID_80153111_JID_6322_neutraal
 ------------------------------
 Symbolic Z-matrix:
 Charge =  0 Multiplicity = 1

 SCF Done:  E(RB3LYP) =  -673.534410798     A.U. after   14 cycles
 SCF Done:  E(RB3LYP) =  -673.538318430     A.U. after   12 cycles
 SCF Done:  E(RB3LYP) =  -673.538821166     A.U. after   11 cycles
 SCF Done:  E(RB3LYP) =  -673.538975969     A.U. after   11 cycles
 SCF Done:  E(RB3LYP) =  -673.539012799     A.U. after   10 cycles
 SCF Done:  E(RB3LYP) =  -673.539030270     A.U. after   10 cycles
 SCF Done:  E(RB3LYP) =  -673.539033076     A.U. after    9 cycles
 SCF Done:  E(RB3LYP) =  -673.539034608     A.U. after    9 cycles
 SCF Done:  E(RB3LYP) =  -673.539035365     A.U. after    8 cycles
 SCF Done:  E(RB3LYP) =  -673.539035513     A.U. after    7 cycles
 SCF Done:  E(RB3LYP) =  -673.539035578     A.U. after    7 cycles
 SCF Done:  E(RB3LYP) =  -673.539035599     A.U. after    6 cycles
 Optimization completed.
    -- Stationary point found.
 Normal termination of Gaussian 16 at Thu Dec 10 22:09:34 2020.

 --------------------------------------------------------------------
 #N Geom=AllCheck Guess=TCheck SCRF=Check GenChk RB3LYP/6-31G(d) Freq
 --------------------------------------------------------------------

 Structure from the checkpoint file:  "JID_6322.chk"
 ------------------------------
 CID_80153111_JID_6322_neutraal
 ------------------------------
 Charge =  0 Multiplicity = 1

 SCF Done:  E(RB3LYP) =  -673.539035599     A.U. after    1 cycles

  Exact polarizability: 193.931 -13.003 135.112   1.503   6.212 141.959
 Approx polarizability: 253.177 -24.407 183.520   2.747  14.331 238.552

                      1                      2                      3
                      A                      A                      A
 Frequencies --     18.3753                25.0412                36.7351
 Red. masses --      3.5785                 2.7949                 2.6266
 Frc consts  --      0.0007                 0.0010                 0.0021
 IR Inten    --      0.3101                 0.2739                 0.1115

                      4                      5                      6
                      A                      A                      A
 Frequencies --     49.6468                67.8434                69.3376
 Red. masses --      4.0912                 3.7203                 3.0217
 Frc consts  --      0.0059                 0.0101                 0.0086
 IR Inten    --      0.7287                 0.0216                 0.6539

                      7                      8                      9
                      A                      A                      A
 Frequencies --    120.9396               162.2141               182.5039
 Red. masses --      2.6127                 3.6580                 2.7521
 Frc consts  --      0.0225                 0.0567                 0.0540
 IR Inten    --      0.5914                 1.0840                 3.5061

                     10                     11                     12
                      A                      A                      A
 Frequencies --    204.6124               231.2213               257.1410
 Red. masses --      3.1818                 1.1078                 1.1371
 Frc consts  --      0.0785                 0.0349                 0.0443
 IR Inten    --      0.5408                 0.2593                 0.2808

                     13                     14                     15
                      A                      A                      A
 Frequencies --    259.7668               267.1550               301.2675
 Red. masses --      1.1855                 1.1182                 2.7084
 Frc consts  --      0.0471                 0.0470                 0.1448
 IR Inten    --      0.8183                 1.2072                 0.0767

                     16                     17                     18
                      A                      A                      A
 Frequencies --    317.3917               331.2316               362.2216
 Red. masses --      2.7980                 2.5213                 2.3748
 Frc consts  --      0.1661                 0.1630                 0.1836
 IR Inten    --      1.2146                 0.8640                 0.7206

                     19                     20                     21
                      A                      A                      A
 Frequencies --    382.1285               402.7557               412.7994
 Red. masses --      2.2069                 1.9763                 2.4599
 Frc consts  --      0.1899                 0.1889                 0.2470
 IR Inten    --      6.1003                 2.1855                 0.6745

                     22                     23                     24
                      A                      A                      A
 Frequencies --    420.6725               443.6495               457.2614
 Red. masses --      3.2955                 2.2718                 2.4706
 Frc consts  --      0.3436                 0.2635                 0.3044
 IR Inten    --      2.8590                 2.2400                 0.2249

                     25                     26                     27
                      A                      A                      A
 Frequencies --    505.4687               525.9788               643.8662
 Red. masses --      3.0306                 4.0704                 3.0801
 Frc consts  --      0.4562                 0.6635                 0.7523
 IR Inten    --      0.7933                 1.5035                 8.9128

                     28                     29                     30
                      A                      A                      A
 Frequencies --    664.0960               742.6591               781.8744
 Red. masses --      5.6702                 3.9103                 1.8159
 Frc consts  --      1.4734                 1.2707                 0.6541
 IR Inten    --      5.3743                 0.8347                95.5895

                     31                     32                     33
                      A                      A                      A
 Frequencies --    831.0189               834.1200               851.0328
 Red. masses --      2.4232                 2.3724                 2.5313
 Frc consts  --      0.9860                 0.9725                 1.0801
 IR Inten    --     32.0014                 9.6926                41.7249

                     34                     35                     36
                      A                      A                      A
 Frequencies --    878.2900               893.6127               917.2976
 Red. masses --      3.6369                 2.7496                 1.7784
 Frc consts  --      1.6529                 1.2936                 0.8817
 IR Inten    --     17.9548                 4.2924                 6.1280

                     37                     38                     39
                      A                      A                      A
 Frequencies --    939.6192               942.6322               958.3090
 Red. masses --      1.4058                 1.1876                 1.4878
 Frc consts  --      0.7313                 0.6217                 0.8050
 IR Inten    --     11.6982                 2.1456                 4.5847

                     40                     41                     42
                      A                      A                      A
 Frequencies --    979.2956               983.2981               988.6143
 Red. masses --      1.4898                 1.3704                 1.8604
 Frc consts  --      0.8418                 0.7807                 1.0713
 IR Inten    --      0.2276                 0.7901                 0.4965

                     43                     44                     45
                      A                      A                      A
 Frequencies --   1000.3517              1051.2457              1061.6458
 Red. masses --      1.7722                 3.1722                 2.3322
 Frc consts  --      1.0449                 2.0654                 1.5487
 IR Inten    --      1.8217                16.0216                43.0598

                     46                     47                     48
                      A                      A                      A
 Frequencies --   1062.9137              1078.8770              1135.4680
 Red. masses --      2.0831                 1.5548                 1.2505
 Frc consts  --      1.3866                 1.0663                 0.9499
 IR Inten    --      7.2732                10.9899                 5.3752

                     49                     50                     51
                      A                      A                      A
 Frequencies --   1143.0810              1157.4862              1170.7200
 Red. masses --      3.5660                 1.7008                 1.5275
 Frc consts  --      2.7453                 1.3426                 1.2335
 IR Inten    --     48.0883                 6.1792                 8.3186

                     52                     53                     54
                      A                      A                      A
 Frequencies --   1182.9778              1186.0306              1207.5796
 Red. masses --      1.3424                 1.6689                 1.7039
 Frc consts  --      1.1068                 1.3831                 1.4640
 IR Inten    --      9.5023                 5.5449                 3.8523

                     55                     56                     57
                      A                      A                      A
 Frequencies --   1217.0295              1235.1061              1255.4730
 Red. masses --      1.9193                 4.4695                 1.5570
 Frc consts  --      1.6750                 4.0171                 1.4459
 IR Inten    --     18.4220                 2.8087                 0.4412

                     58                     59                     60
                      A                      A                      A
 Frequencies --   1266.8980              1299.7974              1312.9930
 Red. masses --      1.8389                 2.4300                 2.4034
 Frc consts  --      1.7390                 2.4189                 2.4412
 IR Inten    --      4.2046                13.5254                 5.3436

                     61                     62                     63
                      A                      A                      A
 Frequencies --   1324.4195              1336.2701              1351.1833
 Red. masses --      1.4336                 2.0856                 1.3927
 Frc consts  --      1.4816                 2.1942                 1.4981
 IR Inten    --      9.3113                 2.9038                 0.4757

                     64                     65                     66
                      A                      A                      A
 Frequencies --   1361.7953              1384.2017              1392.3906
 Red. masses --      1.3355                 1.2879                 1.3274
 Frc consts  --      1.4593                 1.4539                 1.5163
 IR Inten    --      5.8238                15.9057                 2.5064

                     67                     68                     69
                      A                      A                      A
 Frequencies --   1419.5675              1421.4893              1431.3967
 Red. masses --      1.5220                 1.3705                 1.3238
 Frc consts  --      1.8071                 1.6316                 1.5981
 IR Inten    --     36.2637                 4.2751                 5.2521

                     70                     71                     72
                      A                      A                      A
 Frequencies --   1444.6360              1451.4627              1467.2501
 Red. masses --      2.3244                 1.2641                 1.1612
 Frc consts  --      2.8581                 1.5691                 1.4729
 IR Inten    --      7.9339                 6.7405                 4.3781

                     73                     74                     75
                      A                      A                      A
 Frequencies --   1497.1890              1500.6772              1511.8510
 Red. masses --      1.1878                 1.1012                 1.0477
 Frc consts  --      1.5687                 1.4612                 1.4109
 IR Inten    --      0.3677                 3.5596                11.1921

                     76                     77                     78
                      A                      A                      A
 Frequencies --   1513.7897              1514.2718              1517.9534
 Red. masses --      1.0903                 1.1440                 1.0529
 Frc consts  --      1.4721                 1.5456                 1.4294
 IR Inten    --      1.5946                16.4088                 0.6332

                     79                     80                     81
                      A                      A                      A
 Frequencies --   1528.1066              1528.7742              1529.1059
 Red. masses --      1.0877                 1.0653                 1.0697
 Frc consts  --      1.4964                 1.4669                 1.4736
 IR Inten    --      7.7421                10.2592                10.8785

                     82                     83                     84
                      A                      A                      A
 Frequencies --   1535.1020              1536.4722              1541.2305
 Red. masses --      2.4173                 1.0702                 1.0615
 Frc consts  --      3.3562                 1.4886                 1.4856
 IR Inten    --     11.7043                 4.6087                 2.7572

                     85                     86                     87
                      A                      A                      A
 Frequencies --   1541.7831              1549.4664              1625.6789
 Red. masses --      1.0828                 1.0556                 5.6643
 Frc consts  --      1.5165                 1.4931                 8.8200
 IR Inten    --     16.4557                 8.4168                15.2724

                     88                     89                     90
                      A                      A                      A
 Frequencies --   1655.7258              2911.1603              2916.7266
 Red. masses --      5.9779                 1.0715                 1.0630
 Frc consts  --      9.6555                 5.3501                 5.3283
 IR Inten    --     19.1305                34.2758                44.6312

                     91                     92                     93
                      A                      A                      A
 Frequencies --   2932.1534              2943.6620              3036.4928
 Red. masses --      1.0644                 1.0709                 1.0632
 Frc consts  --      5.3918                 5.4674                 5.7757
 IR Inten    --    202.2512                44.8664                22.0432

                     94                     95                     96
                      A                      A                      A
 Frequencies --   3036.8399              3042.8643              3047.5741
 Red. masses --      1.0463                 1.0464                 1.0710
 Frc consts  --      5.6851                 5.7082                 5.8607
 IR Inten    --     12.9833                23.8212                 7.3132

                     97                     98                     99
                      A                      A                      A
 Frequencies --   3049.9282              3078.0621              3087.6210
 Red. masses --      1.0767                 1.0689                 1.0692
 Frc consts  --      5.9009                 5.9668                 6.0054
 IR Inten    --     74.3822                35.3887                34.9456

                    100                    101                    102
                      A                      A                      A
 Frequencies --   3092.0336              3095.1195              3100.8491
 Red. masses --      1.1061                 1.0866                 1.1008
 Frc consts  --      6.2304                 6.1329                 6.2364
 IR Inten    --     19.4294                14.6416                14.0199

                    103                    104                    105
                      A                      A                      A
 Frequencies --   3106.7044              3111.5522              3114.3750
 Red. masses --      1.1005                 1.1022                 1.1014
 Frc consts  --      6.2580                 6.2874                 6.2944
 IR Inten    --     62.4590                20.7263                66.5852

                    106                    107                    108
                      A                      A                      A
 Frequencies --   3123.8141              3134.5410              3140.4390
 Red. masses --      1.1040                 1.1029                 1.0895
 Frc consts  --      6.3473                 6.3844                 6.3308
 IR Inten    --     30.5535                37.7440                34.6237

                    109                    110                    111
                      A                      A                      A
 Frequencies --   3179.9184              3201.6607              3492.7099
 Red. masses --      1.0883                 1.0943                 1.0732
 Frc consts  --      6.4836                 6.6091                 7.7135
 IR Inten    --     13.9473                13.5842                 0.6620

 - Thermochemistry -
 -------------------
 Temperature   298.150 Kelvin.  Pressure   1.00000 Atm.
 Atom     1 has atomic number  6 and mass  12.00000

 Molecular mass:   221.18920 amu.
 Principal axes and moments of inertia in atomic units:
                           1         2         3
     Eigenvalues --  2260.489327677.253238773.37526
           X            1.00000   0.00039  -0.00146
           Y           -0.00038   1.00000   0.00301
           Z            0.00146  -0.00301   0.99999
 This molecule is an asymmetric top.
 Rotational symmetry number  1.
 Warning -- assumption of classical behavior for rotation
           may cause significant error
 Rotational temperatures (Kelvin)      0.03832     0.01128     0.00987
 Rotational constants (GHZ):           0.79839     0.23508     0.20571
 Zero-point vibrational energy     921487.7 (Joules/Mol)
                                  220.24085 (Kcal/Mol)
 Warning -- explicit consideration of  26 degrees of freedom as
           vibrations may cause significant error
 Vibrational temperatures:     26.44    36.03    52.85    71.43    97.61
          (Kelvin)             99.76   174.01   233.39   262.58   294.39
                              332.68   369.97   373.75   384.38   433.46
                              456.66   476.57   521.16   549.80   579.48
                              593.93   605.25   638.31   657.90   727.26
                              756.77   926.38   955.49  1068.52  1124.94
                             1195.65  1200.11  1224.45  1263.66  1285.71
                             1319.79  1351.90  1356.24  1378.79  1408.99
                             1414.75  1422.40  1439.28  1512.51  1527.47
                             1529.30  1552.26  1633.69  1644.64  1665.36
                             1684.40  1702.04  1706.43  1737.44  1751.03
                             1777.04  1806.35  1822.78  1870.12  1889.10
                             1905.54  1922.59  1944.05  1959.32  1991.56
                             2003.34  2042.44  2045.21  2059.46  2078.51
                             2088.33  2111.05  2154.12  2159.14  2175.22
                             2178.01  2178.70  2184.00  2198.60  2199.57
                             2200.04  2208.67  2210.64  2217.49  2218.28
                             2229.34  2338.99  2382.22  4188.51  4196.52
                             4218.71  4235.27  4368.84  4369.34  4378.00
                             4384.78  4388.17  4428.64  4442.40  4448.75
                             4453.19  4461.43  4469.85  4476.83  4480.89
                             4494.47  4509.91  4518.39  4575.19  4606.48
                             5025.23

 Zero-point correction=                           0.350976 (Hartree/Particle)
 Thermal correction to Energy=                    0.368588
 Thermal correction to Enthalpy=                  0.369532
 Thermal correction to Gibbs Free Energy=         0.303124
 Sum of electronic and zero-point Energies=           -673.188059
 Sum of electronic and thermal Energies=              -673.170447
 Sum of electronic and thermal Enthalpies=            -673.169503
 Sum of electronic and thermal Free Energies=         -673.235911

                     E (Thermal)             CV                S
                      KCal/Mol        Cal/Mol-Kelvin    Cal/Mol-Kelvin
 Total                  231.293             65.458            139.768
 Electronic               0.000              0.000              0.000
 Translational            0.889              2.981             42.084
 Rotational               0.889              2.981             33.387
 Vibrational            229.515             59.496             64.296
 Vibration     1          0.593              1.986              6.802
 Vibration     2          0.593              1.985              6.188
 Vibration     3          0.594              1.982              5.428
 Vibration     4          0.595              1.978              4.831
 Vibration     5          0.598              1.970              4.215
 Vibration     6          0.598              1.969              4.172
 Vibration     7          0.609              1.932              3.085
 Vibration     8          0.622              1.889              2.524
 Vibration     9          0.630              1.864              2.303
 Vibration    10          0.640              1.833              2.091
 Vibration    11          0.653              1.793              1.869
 Vibration    12          0.667              1.751              1.681
 Vibration    13          0.668              1.746              1.663
 Vibration    14          0.672              1.733              1.615
 Vibration    15          0.693              1.671              1.410
 Vibration    16          0.704              1.640              1.324
 Vibration    17          0.714              1.613              1.254
 Vibration    18          0.736              1.550              1.113
 Vibration    19          0.752              1.508              1.031
 Vibration    20          0.768              1.464              0.953
 Vibration    21          0.777              1.442              0.917
 Vibration    22          0.783              1.425              0.890
 Vibration    23          0.803              1.375              0.815
 Vibration    24          0.815              1.345              0.774
 Vibration    25          0.861              1.238              0.645
 Vibration    26          0.881              1.192              0.596

 Optimization completed.
    -- Stationary point found.
 Normal termination of Gaussian 16 at Thu Dec 10 22:21:17 2020.

 ----------------------------------------------------------------------
 # B3LYP/6-311++G(d,p) empiricaldispersion=gd3bj scf=xqc pop=npa geom=c
 heck
 ----------------------------------------------------------------------

 --------------------------------------
 CID_80153111_JID_6322_Energie_neutraal
 --------------------------------------
 Structure from the checkpoint file:  "JID_6322.chk"
 Charge =  0 Multiplicity = 1

 SCF Done:  E(RB3LYP) =  -673.724529898     A.U. after   15 cycles
 Normal termination of Gaussian 16 at Thu Dec 10 22:26:56 2020.

 ----------------------------------------------------------------------
 # B3LYP/6-311++G(d,p) empiricaldispersion=gd3bj scf=xqc pop=npa geom=c
 heck
 ----------------------------------------------------------------------

 ------------------------------------
 CID_80153111_JID_6322_Energie_kation
 ------------------------------------
 Structure from the checkpoint file:  "JID_6322.chk"
 Charge =  1 Multiplicity = 2

 SCF Done:  E(UB3LYP) =  -673.441126937     A.U. after   30 cycles
 Normal termination of Gaussian 16 at Thu Dec 10 22:42:59 2020.
 Gaussian 16:  ES64L-G16RevA.03 25-Dec-2016

 ----------------------------------------------------------------------
 # B3LYP/6-311++G(d,p) empiricaldispersion=gd3bj scf=xqc pop=npa geom=c
 heck
 ----------------------------------------------------------------------

 -----------------------------------
 CID_80153111_JID_6322_Energie_anion
 -----------------------------------
 Structure from the checkpoint file:  "JID_6322.chk"
 Charge = -1 Multiplicity = 2

                         Standard orientation:
 ---------------------------------------------------------------------
 Center     Atomic      Atomic             Coordinates (Angstroms)
 Number     Number       Type             X           Y           Z
 ---------------------------------------------------------------------
      1          6           0        3.637343    1.654932   -1.428200
      2          6           0        4.004575    1.028569   -0.076484
      3          6           0        4.188342    2.113549    0.991164
      4          6           0        2.952859    0.012276    0.386621
      5          7           0        2.835939   -1.116497   -0.534266
      6          6           0        1.924803   -2.172741   -0.076711
      7          6           0        0.483346   -1.739050    0.097885
      8          6           0       -0.387632   -1.697770   -0.999669
      9          7           0       -1.645692   -1.258357   -0.957440
     10          6           0       -2.118542   -0.821061    0.222112
     11          6           0       -1.341597   -0.835212    1.383686
     12          6           0       -0.028439   -1.296960    1.318841
     13          6           0       -3.538405   -0.301204    0.226336
     14          7           0       -3.645549    1.025637   -0.378936
     15          6           0       -5.036345    1.383710   -0.605102
     16          6           0       -2.959410    2.043117    0.400776
     17          1           0        2.655581    2.144319   -1.378247
     18          1           0        3.606973    0.909723   -2.230859
     19          1           0        4.372573    2.413595   -1.719314
     20          1           0        4.951296    0.484587   -0.194775
     21          1           0        3.258015    2.675961    1.142780
     22          1           0        4.478768    1.680833    1.955807
     23          1           0        4.963945    2.829095    0.696161
     24          1           0        3.254623   -0.395261    1.361372
     25          1           0        1.994932    0.540802    0.553318
     26          1           0        2.504874   -0.777560   -1.436006
     27          1           0        1.978509   -2.990349   -0.805068
     28          1           0        2.314772   -2.560121    0.872532
     29          1           0       -0.041778   -2.053045   -1.971758
     30          1           0       -1.763511   -0.485087    2.321338
     31          1           0        0.594441   -1.317289    2.210151
     32          1           0       -4.151578   -0.985651   -0.368388
     33          1           0       -3.933404   -0.310690    1.263099
     34          1           0       -5.627389    1.457804    0.330359
     35          1           0       -5.086720    2.352847   -1.112795
     36          1           0       -5.510073    0.635233   -1.248835
     37          1           0       -3.378089    2.163279    1.421376
     38          1           0       -1.899511    1.791249    0.497001
     39          1           0       -3.035525    3.007307   -0.112283
 ---------------------------------------------------------------------

 SCF Done:  E(UB3LYP) =  -673.714557792     A.U. after   33 cycles
 SCF Done:  E(UB3LYP) =  -673.714557792     a.u. after    1 cycles

 The electronic state is 2-A.
 Alpha  occ. eigenvalues --  -14.20924 -14.19891 -14.18516 -10.09744 -10.09491
 Alpha  occ. eigenvalues --  -10.09357 -10.09226 -10.09056 -10.08776 -10.08587
 Alpha  occ. eigenvalues --  -10.07669 -10.06884 -10.06724 -10.06573 -10.06419
 Alpha  occ. eigenvalues --  -10.06397  -0.83750  -0.82011  -0.80778  -0.70776
 Alpha  occ. eigenvalues --   -0.68916  -0.67007  -0.61673  -0.61074  -0.59188
 Alpha  occ. eigenvalues --   -0.58077  -0.54102  -0.52288  -0.50130  -0.47588
 Alpha  occ. eigenvalues --   -0.46738  -0.40810  -0.39586  -0.38737  -0.37907
 Alpha  occ. eigenvalues --   -0.36591  -0.36398  -0.35961  -0.34501  -0.33875
 Alpha  occ. eigenvalues --   -0.32479  -0.31372  -0.30312  -0.29756  -0.29625
 Alpha  occ. eigenvalues --   -0.29153  -0.28720  -0.28062  -0.27318  -0.27267
 Alpha  occ. eigenvalues --   -0.26817  -0.26006  -0.24607  -0.23768  -0.23351
 Alpha  occ. eigenvalues --   -0.22940  -0.17662  -0.15236  -0.14425  -0.12607
 Alpha  occ. eigenvalues --   -0.12226   0.04323
 Alpha virt. eigenvalues --    0.06163   0.06474   0.07186   0.07682   0.08004
 Alpha virt. eigenvalues --    0.08413   0.08986   0.09097   0.09403   0.09920
 Alpha virt. eigenvalues --    0.10145   0.10363   0.11041   0.11587   0.12050

  Beta  occ. eigenvalues --  -14.20915 -14.19873 -14.18300 -10.09737 -10.09474
  Beta  occ. eigenvalues --  -10.09303 -10.09225 -10.09047 -10.08769 -10.08559
  Beta  occ. eigenvalues --  -10.07661 -10.06860 -10.06733 -10.06397 -10.06385
  Beta  occ. eigenvalues --  -10.06374  -0.83600  -0.81880  -0.80712  -0.70698
  Beta  occ. eigenvalues --   -0.68693  -0.66878  -0.61608  -0.61032  -0.59142
  Beta  occ. eigenvalues --   -0.58020  -0.54043  -0.52043  -0.50072  -0.47452
  Beta  occ. eigenvalues --   -0.46682  -0.40746  -0.39520  -0.38675  -0.37829
  Beta  occ. eigenvalues --   -0.36530  -0.36353  -0.35907  -0.34438  -0.33805
  Beta  occ. eigenvalues --   -0.32450  -0.31302  -0.30254  -0.29698  -0.29593
  Beta  occ. eigenvalues --   -0.29119  -0.28477  -0.27997  -0.27271  -0.27086
  Beta  occ. eigenvalues --   -0.26766  -0.25838  -0.24535  -0.23716  -0.23311
  Beta  occ. eigenvalues --   -0.22915  -0.16742  -0.14952  -0.14151  -0.12499
  Beta  occ. eigenvalues --   -0.12192
  Beta virt. eigenvalues --    0.06265   0.06626   0.07516   0.07703   0.08185
  Beta virt. eigenvalues --    0.08362   0.08626   0.09199   0.09206   0.09633
  Beta virt. eigenvalues --    0.10137   0.10235   0.10581   0.11084   0.11649

 Mulliken charges and spin densities:
               1          2
     1  C    0.069311  -0.672365
     2  C   -0.744448   1.004926
     3  C    0.300901  -0.898087
     4  C   -0.138493  -0.508889
     5  N    0.108751   0.012820
     6  C    0.265482  -1.077944
     7  C    0.738734   0.138838
     8  C   -1.307970   0.874832
     9  N    0.021631   0.118134
    10  C    0.289174   0.016553
    11  C    0.148393  -0.273186
    12  C   -0.027266  -0.009304
    13  C   -0.506147  -0.664157
    14  N    0.094939   0.084118
    15  C    0.022814  -0.366945
    16  C    0.018400  -0.441759
    17  H    0.036473   0.114983
    18  H   -0.071134   0.185956
    19  H   -0.136459   0.281684
    20  H   -0.020197   0.193145
    21  H   -0.070647   0.210694
    22  H   -0.147465   0.271020
    23  H   -0.158755   0.301094
    24  H    0.073521   0.071777
    25  H    0.497434  -0.343932
    26  H    0.209702  -0.016279
    27  H    0.177675   0.008813
    28  H   -0.181564   0.336377
    29  H   -0.025656   0.186862
    30  H   -0.286977   0.463852
    31  H   -0.282943   0.432412
    32  H    0.061084   0.101174
    33  H    0.075974   0.007700
    34  H   -0.067677   0.166777
    35  H    0.042530   0.075201
    36  H    0.012250   0.123249
    37  H   -0.047784   0.152690
    38  H    0.004913   0.167814
    39  H   -0.048503   0.169354
 Sum of Mulliken charges =  -1.00000   1.00000

 Dipole moment (field-independent basis, Debye):
    X=             -1.8949    Y=             -1.1045    Z=             -0.9200  Tot=              2.3784
 Quadrupole moment (field-independent basis, Debye-Ang):
   XX=           -184.3674   YY=           -139.5178   ZZ=           -136.0850
   XY=             -4.5055   XZ=             -2.3787   YZ=              0.8837

 Summary of Natural Population Analysis:

                                       Natural Population
                Natural  -----------------------------------------------
    Atom  No    Charge         Core      Valence    Rydberg      Total
 -----------------------------------------------------------------------
      C    1   -0.28658      0.99965     2.28182    0.00511     3.28658
      C    2   -0.11943      0.99962     2.10789    0.01193     3.11943
      C    3   -0.28253      0.99965     2.27794    0.00495     3.28253
      C    4   -0.08621      0.99959     2.07684    0.00978     3.08621
      N    5   -0.33359      0.99975     2.82260    0.01125     3.83359
      C    6   -0.09203      0.99959     2.08090    0.01154     3.09203
      C    7   -0.04777      0.99949     2.03823    0.01005     3.04777
      C    8    0.02982      0.99953     1.95706    0.01360     2.97018
      N    9   -0.20794      0.99968     2.69646    0.01181     3.70794
      C   10    0.10448      0.99953     1.88172    0.01428     2.89552
      C   11   -0.12457      0.99950     2.11549    0.00957     3.12457
      C   12   -0.05300      0.99951     2.04328    0.01021     3.05300
      C   13   -0.09439      0.99957     2.08360    0.01121     3.09439
      N   14   -0.26997      0.99972     2.75784    0.01240     3.76997
      C   15   -0.17313      0.99965     2.16683    0.00665     3.17313
      C   16   -0.18060      0.99964     2.17133    0.00962     3.18060
      H   17    0.09804      0.00000     0.40092    0.00104     0.40196
      H   18    0.09806      0.00000     0.40092    0.00101     0.40194
      H   19    0.09866      0.00000     0.40031    0.00103     0.40134
      H   20    0.09409      0.00000     0.40379    0.00212     0.40591
      H   21    0.09715      0.00000     0.40162    0.00123     0.40285
      H   22    0.09891      0.00000     0.39992    0.00117     0.40109
      H   23    0.09780      0.00000     0.40113    0.00106     0.40220
      H   24    0.09138      0.00000     0.40693    0.00169     0.40862
      H   25    0.08392      0.00000     0.41406    0.00202     0.41608
      H   26    0.17075      0.00000     0.32588    0.00338     0.32925
      H   27    0.09524      0.00000     0.40372    0.00103     0.40476
      H   28    0.09488      0.00000     0.40386    0.00125     0.40512
      H   29    0.08337      0.00000     0.41503    0.00160     0.41663
      H   30    0.10116      0.00000     0.39762    0.00122     0.39884
      H   31    0.09728      0.00000     0.40096    0.00176     0.40272
      H   32    0.10280      0.00000     0.39541    0.00179     0.39720
      H   33    0.07905      0.00000     0.41923    0.00171     0.42095
      H   34    0.07595      0.00000     0.42171    0.00234     0.42405
      H   35    0.09242      0.00000     0.40637    0.00121     0.40758
      H   36    0.09388      0.00000     0.40481    0.00131     0.40612
      H   37    0.07727      0.00000     0.42112    0.00161     0.42273
      H   38    0.10230      0.00000     0.39599    0.00171     0.39770
      H   39    0.09305      0.00000     0.40599    0.00096     0.40695
 =======================================================================
   * Total *   -0.00000     15.99368    44.80714    0.19918    61.00000

 Normal termination of Gaussian 16 at Thu Dec 10 23:04:01 2020.
