 Gaussian 16, Revision A.03,

 -----------------------------------------------------------
 # opt freq B3LYP/6-31G(d) empiricaldispersion=gd3bj scf=xqc
 -----------------------------------------------------------

 ------------------------------
 CID_96657409_JID_5775_neutraal
 ------------------------------
 Symbolic Z-matrix:
 Charge =  0 Multiplicity = 1

 SCF Done:  E(RB3LYP) =  -602.168874288     A.U. after   13 cycles
 SCF Done:  E(RB3LYP) =  -602.171728158     A.U. after   11 cycles
 SCF Done:  E(RB3LYP) =  -602.172035987     A.U. after   12 cycles
 SCF Done:  E(RB3LYP) =  -602.172018821     A.U. after   11 cycles
 SCF Done:  E(RB3LYP) =  -602.172144843     A.U. after   11 cycles
 SCF Done:  E(RB3LYP) =  -602.172202721     A.U. after   10 cycles
 SCF Done:  E(RB3LYP) =  -602.172224655     A.U. after   10 cycles
 SCF Done:  E(RB3LYP) =  -602.172231043     A.U. after    9 cycles
 SCF Done:  E(RB3LYP) =  -602.172232677     A.U. after    9 cycles
 SCF Done:  E(RB3LYP) =  -602.172233374     A.U. after    7 cycles
 SCF Done:  E(RB3LYP) =  -602.172233946     A.U. after    7 cycles
 SCF Done:  E(RB3LYP) =  -602.172234073     A.U. after    7 cycles
 SCF Done:  E(RB3LYP) =  -602.172234118     A.U. after    7 cycles
 SCF Done:  E(RB3LYP) =  -602.172234116     A.U. after    6 cycles
 Optimization completed.
    -- Stationary point found.
 Normal termination of Gaussian 16 at Thu Dec 10 16:54:26 2020.

 --------------------------------------------------------------------
 #N Geom=AllCheck Guess=TCheck SCRF=Check GenChk RB3LYP/6-31G(d) Freq
 --------------------------------------------------------------------

 Structure from the checkpoint file:  "JID_5775.chk"
 ------------------------------
 CID_96657409_JID_5775_neutraal
 ------------------------------
 Charge =  0 Multiplicity = 1

 SCF Done:  E(RB3LYP) =  -602.172234116     A.U. after    1 cycles

  Exact polarizability: 173.027 -13.305 170.168 -10.173 -10.929 113.412
 Approx polarizability: 245.761 -16.920 237.962 -25.502 -28.574 178.915

                      1                      2                      3
                      A                      A                      A
 Frequencies --     21.5678                38.7136                56.6276
 Red. masses --      3.1107                 2.8512                 3.5180
 Frc consts  --      0.0009                 0.0025                 0.0066
 IR Inten    --      0.1085                 0.0906                 0.0710

                      4                      5                      6
                      A                      A                      A
 Frequencies --     87.2605               102.1313               115.3516
 Red. masses --      2.8352                 2.4181                 2.2902
 Frc consts  --      0.0127                 0.0149                 0.0180
 IR Inten    --      2.1484                 0.1772                 0.6874

                      7                      8                      9
                      A                      A                      A
 Frequencies --    135.5973               137.1034               193.7066
 Red. masses --      1.4060                 2.0180                 2.5404
 Frc consts  --      0.0152                 0.0223                 0.0562
 IR Inten    --      0.4885                 0.4081                 0.1964

                     10                     11                     12
                      A                      A                      A
 Frequencies --    196.5217               236.9448               253.2206
 Red. masses --      2.6710                 1.0921                 1.4605
 Frc consts  --      0.0608                 0.0361                 0.0552
 IR Inten    --      0.3193                 0.0138                 0.2577

                     13                     14                     15
                      A                      A                      A
 Frequencies --    263.2093               286.0585               289.2887
 Red. masses --      1.0805                 2.1853                 2.0442
 Frc consts  --      0.0441                 0.1054                 0.1008
 IR Inten    --      0.2089                 1.9913                 2.4337

                     16                     17                     18
                      A                      A                      A
 Frequencies --    295.2375               344.0301               379.5588
 Red. masses --      2.7936                 2.2896                 2.7450
 Frc consts  --      0.1435                 0.1597                 0.2330
 IR Inten    --      0.2302                 0.3977                 0.7700

                     19                     20                     21
                      A                      A                      A
 Frequencies --    391.8542               415.9449               471.8172
 Red. masses --      3.3551                 2.5027                 2.8864
 Frc consts  --      0.3035                 0.2551                 0.3786
 IR Inten    --      0.3890                 0.2912                 0.1403

                     22                     23                     24
                      A                      A                      A
 Frequencies --    479.2318               498.1247               539.3204
 Red. masses --      2.9560                 2.6168                 2.8480
 Frc consts  --      0.4000                 0.3826                 0.4881
 IR Inten    --      4.7722                 0.6923                 0.6625

                     25                     26                     27
                      A                      A                      A
 Frequencies --    582.0882               659.7179               704.3123
 Red. masses --      3.4223                 3.4467                 3.6460
 Frc consts  --      0.6832                 0.8838                 1.0656
 IR Inten    --      1.1867                 2.2262                 0.5766

                     28                     29                     30
                      A                      A                      A
 Frequencies --    741.3199               748.3727               775.1155
 Red. masses --      2.4695                 3.0526                 1.6021
 Frc consts  --      0.7996                 1.0073                 0.5671
 IR Inten    --      3.2061                 1.8255                75.8599

                     31                     32                     33
                      A                      A                      A
 Frequencies --    817.8741               840.0717               872.9194
 Red. masses --      1.6426                 1.3721                 2.5157
 Frc consts  --      0.6474                 0.5705                 1.1294
 IR Inten    --     17.9956                13.3096                 5.9230

                     34                     35                     36
                      A                      A                      A
 Frequencies --    894.4126               906.4336               941.8417
 Red. masses --      2.4708                 1.5563                 1.1835
 Frc consts  --      1.1646                 0.7534                 0.6185
 IR Inten    --      3.0025                11.0271                 0.4959

                     37                     38                     39
                      A                      A                      A
 Frequencies --    947.7023               950.0163               951.7731
 Red. masses --      2.0960                 1.8487                 1.3191
 Frc consts  --      1.1092                 0.9830                 0.7040
 IR Inten    --      0.7958                 6.3771                 0.3703

                     40                     41                     42
                      A                      A                      A
 Frequencies --    973.7881              1026.5479              1040.0162
 Red. masses --      1.4953                 1.4967                 1.7078
 Frc consts  --      0.8354                 0.9293                 1.0884
 IR Inten    --      0.1156                 6.7126                 8.8724

                     43                     44                     45
                      A                      A                      A
 Frequencies --   1046.6149              1072.0930              1092.5224
 Red. masses --      1.8042                 1.5580                 2.0840
 Frc consts  --      1.1644                 1.0551                 1.4656
 IR Inten    --      2.4417                 4.2213                 1.4201

                     46                     47                     48
                      A                      A                      A
 Frequencies --   1104.2494              1135.4665              1142.5636
 Red. masses --      1.6898                 2.2928                 1.6106
 Frc consts  --      1.2140                 1.7417                 1.2388
 IR Inten    --      7.0757                 0.7254                 4.3696

                     49                     50                     51
                      A                      A                      A
 Frequencies --   1156.4085              1162.1378              1171.9834
 Red. masses --      2.7868                 1.4402                 1.8606
 Frc consts  --      2.1957                 1.1460                 1.5058
 IR Inten    --     21.2865                16.3921                 8.1970

                     52                     53                     54
                      A                      A                      A
 Frequencies --   1182.7582              1209.9918              1233.3370
 Red. masses --      1.5882                 1.6652                 1.4261
 Frc consts  --      1.3090                 1.4364                 1.2781
 IR Inten    --      2.5098                 3.2805                 1.6951

                     55                     56                     57
                      A                      A                      A
 Frequencies --   1244.6490              1266.4881              1276.9009
 Red. masses --      1.8532                 1.6036                 2.3282
 Frc consts  --      1.6915                 1.5155                 2.2366
 IR Inten    --      0.3098                 0.0338                 1.5651

                     58                     59                     60
                      A                      A                      A
 Frequencies --   1324.7301              1334.4841              1346.2670
 Red. masses --      1.4440                 1.2282                 3.2390
 Frc consts  --      1.4930                 1.2887                 3.4588
 IR Inten    --      2.7522                 9.4453                 2.3075

                     61                     62                     63
                      A                      A                      A
 Frequencies --   1362.6590              1371.2008              1394.2505
 Red. masses --      1.3261                 1.4921                 1.7452
 Frc consts  --      1.4507                 1.6529                 1.9988
 IR Inten    --      3.0651                 1.2473                 6.3898

                     64                     65                     66
                      A                      A                      A
 Frequencies --   1398.5655              1425.0607              1425.8142
 Red. masses --      1.4579                 1.3448                 1.2529
 Frc consts  --      1.6802                 1.6091                 1.5006
 IR Inten    --      4.2644                 7.4156                 3.3846

                     67                     68                     69
                      A                      A                      A
 Frequencies --   1445.0917              1446.2434              1470.4022
 Red. masses --      1.2556                 1.2400                 2.3415
 Frc consts  --      1.5449                 1.5281                 2.9827
 IR Inten    --      2.1173                 0.0343                 4.9640

                     70                     71                     72
                      A                      A                      A
 Frequencies --   1483.4545              1500.1696              1508.8691
 Red. masses --      1.1808                 1.1266                 1.1682
 Frc consts  --      1.5310                 1.4939                 1.5670
 IR Inten    --      1.1626                 2.7130                20.6202

                     73                     74                     75
                      A                      A                      A
 Frequencies --   1515.4830              1518.3299              1518.9296
 Red. masses --      1.0514                 1.0589                 1.0560
 Frc consts  --      1.4227                 1.4382                 1.4355
 IR Inten    --      0.4367                 4.8530                 4.9338

                     76                     77                     78
                      A                      A                      A
 Frequencies --   1521.3985              1524.1304              1532.5821
 Red. masses --      1.0502                 1.1113                 1.0538
 Frc consts  --      1.4322                 1.5209                 1.4583
 IR Inten    --      4.5401                14.4625                 4.5807

                     79                     80                     81
                      A                      A                      A
 Frequencies --   1536.1797              1537.8613              1544.6875
 Red. masses --      1.0955                 1.0912                 1.1046
 Frc consts  --      1.5231                 1.5206                 1.5529
 IR Inten    --      3.2586                 7.7366                 8.9099

                     82                     83                     84
                      A                      A                      A
 Frequencies --   1551.0654              1555.5663              1633.7324
 Red. masses --      1.0824                 2.2983                 5.8524
 Frc consts  --      1.5342                 3.2767                 9.2033
 IR Inten    --      3.2691                22.7294                 2.9610

                     85                     86                     87
                      A                      A                      A
 Frequencies --   1675.5210              2951.2703              2956.7356
 Red. masses --      5.9155                 1.0644                 1.0683
 Frc consts  --      9.7846                 5.4625                 5.5028
 IR Inten    --      3.0387                24.3096               112.2364

                     88                     89                     90
                      A                      A                      A
 Frequencies --   3033.3975              3043.2646              3043.6151
 Red. masses --      1.0843                 1.0451                 1.0347
 Frc consts  --      5.8782                 5.7027                 5.6474
 IR Inten    --     18.7901                14.8235                26.7519

                     91                     92                     93
                      A                      A                      A
 Frequencies --   3045.6607              3047.8582              3050.1628
 Red. masses --      1.0661                 1.0355                 1.0621
 Frc consts  --      5.8267                 5.6672                 5.8217
 IR Inten    --     21.4154                27.1973                29.0541

                     94                     95                     96
                      A                      A                      A
 Frequencies --   3058.3363              3070.7668              3084.9361
 Red. masses --      1.0760                 1.0730                 1.0991
 Frc consts  --      5.9294                 5.9616                 6.1629
 IR Inten    --     60.5020                64.5362                36.2326

                     97                     98                     99
                      A                      A                      A
 Frequencies --   3093.2982              3097.6812              3107.4692
 Red. masses --      1.1011                 1.1021                 1.1025
 Frc consts  --      6.2078                 6.2307                 6.2724
 IR Inten    --     24.4803                48.7865                 0.1343

                    100                    101                    102
                      A                      A                      A
 Frequencies --   3113.9211              3116.3860              3120.5342
 Red. masses --      1.1016                 1.1025                 1.1027
 Frc consts  --      6.2932                 6.3088                 6.3263
 IR Inten    --     90.5626                29.1799                24.7992

                    103                    104                    105
                      A                      A                      A
 Frequencies --   3122.4712              3126.1349              3166.9401
 Red. masses --      1.1023                 1.1006                 1.0879
 Frc consts  --      6.3320                 6.3374                 6.4286
 IR Inten    --     30.3175                18.9156                34.1278

                    106                    107                    108
                      A                      A                      A
 Frequencies --   3170.4040              3188.3292              3505.5534
 Red. masses --      1.0866                 1.0942                 1.0729
 Frc consts  --      6.4350                 6.5538                 7.7683
 IR Inten    --     11.0454                29.6221                 2.3658

 - Thermochemistry -
 -------------------
 Temperature   298.150 Kelvin.  Pressure   1.00000 Atm.
 Atom     1 has atomic number  6 and mass  12.00000

 Molecular mass:   205.18305 amu.
 Principal axes and moments of inertia in atomic units:
                           1         2         3
     Eigenvalues --  3050.688303515.149545797.48112
           X            0.99209  -0.12541   0.00521
           Y            0.12540   0.99210   0.00333
           Z           -0.00558  -0.00265   0.99998
 This molecule is an asymmetric top.
 Rotational symmetry number  1.
 Warning -- assumption of classical behavior for rotation
           may cause significant error
 Rotational temperatures (Kelvin)      0.02839     0.02464     0.01494
 Rotational constants (GHZ):           0.59158     0.51342     0.31130
 Zero-point vibrational energy     908077.9 (Joules/Mol)
                                  217.03582 (Kcal/Mol)
 Warning -- explicit consideration of  25 degrees of freedom as
           vibrations may cause significant error
 Vibrational temperatures:     31.03    55.70    81.47   125.55   146.94
          (Kelvin)            165.97   195.09   197.26   278.70   282.75
                              340.91   364.33   378.70   411.57   416.22
                              424.78   494.98   546.10   563.79   598.45
                              678.84   689.51   716.69   775.96   837.50
                              949.19  1013.35  1066.59  1076.74  1115.22
                             1176.74  1208.68  1255.94  1286.86  1304.16
                             1355.10  1363.53  1366.86  1369.39  1401.06
                             1476.97  1496.35  1505.85  1542.50  1571.90
                             1588.77  1633.68  1643.89  1663.81  1672.06
                             1686.22  1701.73  1740.91  1774.50  1790.77
                             1822.19  1837.18  1905.99  1920.02  1936.98
                             1960.56  1972.85  2006.02  2012.22  2050.34
                             2051.43  2079.16  2080.82  2115.58  2134.36
                             2158.41  2170.93  2180.44  2184.54  2185.40
                             2188.95  2192.88  2205.04  2210.22  2212.64
                             2222.46  2231.64  2238.11  2350.58  2410.70
                             4246.22  4254.08  4364.38  4378.58  4379.08
                             4382.03  4385.19  4388.50  4400.26  4418.15
                             4438.53  4450.57  4456.87  4470.96  4480.24
                             4483.78  4489.75  4492.54  4497.81  4556.52
                             4561.50  4587.29  5043.71

 Zero-point correction=                           0.345869 (Hartree/Particle)
 Thermal correction to Energy=                    0.362654
 Thermal correction to Enthalpy=                  0.363599
 Thermal correction to Gibbs Free Energy=         0.300855
 Sum of electronic and zero-point Energies=           -601.826366
 Sum of electronic and thermal Energies=              -601.809580
 Sum of electronic and thermal Enthalpies=            -601.808636
 Sum of electronic and thermal Free Energies=         -601.871379

                     E (Thermal)             CV                S
                      KCal/Mol        Cal/Mol-Kelvin    Cal/Mol-Kelvin
 Total                  227.569             63.095            132.056
 Electronic               0.000              0.000              0.000
 Translational            0.889              2.981             41.860
 Rotational               0.889              2.981             32.497
 Vibrational            225.792             57.133             57.698
 Vibration     1          0.593              1.985              6.484
 Vibration     2          0.594              1.981              5.324
 Vibration     3          0.596              1.975              4.571
 Vibration     4          0.601              1.958              3.721
 Vibration     5          0.604              1.947              3.413
 Vibration     6          0.608              1.937              3.177
 Vibration     7          0.613              1.918              2.865
 Vibration     8          0.614              1.916              2.844
 Vibration     9          0.635              1.849              2.192
 Vibration    10          0.636              1.845              2.165
 Vibration    11          0.656              1.784              1.826
 Vibration    12          0.664              1.757              1.708
 Vibration    13          0.670              1.740              1.640
 Vibration    14          0.684              1.700              1.497
 Vibration    15          0.686              1.694              1.478
 Vibration    16          0.689              1.683              1.444
 Vibration    17          0.723              1.587              1.193
 Vibration    18          0.750              1.514              1.041
 Vibration    19          0.759              1.488              0.993
 Vibration    20          0.779              1.436              0.906
 Vibration    21          0.829              1.313              0.732
 Vibration    22          0.836              1.296              0.712
 Vibration    23          0.854              1.254              0.663
 Vibration    24          0.894              1.163              0.567
 Vibration    25          0.939              1.070              0.482

 Optimization completed.
    -- Stationary point found.
 Normal termination of Gaussian 16 at Thu Dec 10 17:08:45 2020.

 ----------------------------------------------------------------------
 # B3LYP/6-311++G(d,p) empiricaldispersion=gd3bj scf=xqc pop=npa geom=c
 heck
 ----------------------------------------------------------------------

 --------------------------------------
 CID_96657409_JID_5775_Energie_neutraal
 --------------------------------------
 Structure from the checkpoint file:  "JID_5775.chk"
 Charge =  0 Multiplicity = 1

 SCF Done:  E(RB3LYP) =  -602.335526627     A.U. after   14 cycles
 Normal termination of Gaussian 16 at Thu Dec 10 17:15:54 2020.

 ----------------------------------------------------------------------
 # B3LYP/6-311++G(d,p) empiricaldispersion=gd3bj scf=xqc pop=npa geom=c
 heck
 ----------------------------------------------------------------------

 ------------------------------------
 CID_96657409_JID_5775_Energie_kation
 ------------------------------------
 Structure from the checkpoint file:  "JID_5775.chk"
 Charge =  1 Multiplicity = 2

 SCF Done:  E(UB3LYP) =  -602.045942537     A.U. after   22 cycles
 Normal termination of Gaussian 16 at Thu Dec 10 17:33:11 2020.
 Gaussian 16:  ES64L-G16RevA.03 25-Dec-2016

 ----------------------------------------------------------------------
 # B3LYP/6-311++G(d,p) empiricaldispersion=gd3bj scf=xqc pop=npa geom=c
 heck
 ----------------------------------------------------------------------

 -----------------------------------
 CID_96657409_JID_5775_Energie_anion
 -----------------------------------
 Structure from the checkpoint file:  "JID_5775.chk"
 Charge = -1 Multiplicity = 2

                         Standard orientation:
 ---------------------------------------------------------------------
 Center     Atomic      Atomic             Coordinates (Angstroms)
 Number     Number       Type             X           Y           Z
 ---------------------------------------------------------------------
      1          6           0       -1.452353    3.331602   -0.141786
      2          6           0       -0.357725    2.291114   -0.123278
      3          6           0       -0.529195    1.046881    0.519537
      4          6           0        0.529863    0.136007    0.524205
      5          6           0        1.752549    0.393638   -0.105336
      6          6           0        1.905362    1.626299   -0.741208
      7          6           0        0.867102    2.557453   -0.741091
      8          6           0        2.868020   -0.636740   -0.101144
      9          6           0        3.364030   -0.930790    1.324479
     10          6           0        2.439739   -1.931228   -0.813578
     11          6           0       -1.845392    0.655484    1.154044
     12          6           0       -2.865725    0.076887    0.145590
     13          6           0       -2.371170   -1.144052   -0.630912
     14          7           0       -2.131997   -2.290691    0.242445
     15          6           0       -1.610954   -3.441678   -0.484619
     16          1           0       -2.357228    2.971468   -0.645069
     17          1           0       -1.749766    3.626128    0.872551
     18          1           0       -1.120827    4.234026   -0.663991
     19          1           0        0.390743   -0.815127    1.033689
     20          1           0        2.843301    1.862873   -1.238189
     21          1           0        1.010221    3.515943   -1.234710
     22          1           0        3.708142   -0.209204   -0.664685
     23          1           0        2.568079   -1.373689    1.934613
     24          1           0        4.202667   -1.636625    1.306581
     25          1           0        3.695326   -0.013915    1.823186
     26          1           0        2.106389   -1.725856   -1.836324
     27          1           0        3.270736   -2.644902   -0.857646
     28          1           0        1.610873   -2.416530   -0.284909
     29          1           0       -1.661350   -0.082488    1.944439
     30          1           0       -2.304094    1.517372    1.651963
     31          1           0       -3.780330   -0.192909    0.687144
     32          1           0       -3.135209    0.854450   -0.579334
     33          1           0       -3.142838   -1.439508   -1.354136
     34          1           0       -1.477153   -0.868262   -1.220771
     35          1           0       -1.457093   -2.026393    0.956422
     36          1           0       -0.699851   -3.229572   -1.075383
     37          1           0       -1.385767   -4.250705    0.218230
     38          1           0       -2.375908   -3.806997   -1.180216
 ---------------------------------------------------------------------

 SCF Done:  E(UB3LYP) =  -602.320194662     A.U. after   33 cycles
 SCF Done:  E(UB3LYP) =  -602.320194662     a.u. after    1 cycles

 The electronic state is 2-A.
 Alpha  occ. eigenvalues --  -14.20521 -10.09496 -10.09407 -10.08405 -10.08365
 Alpha  occ. eigenvalues --  -10.08271 -10.07998 -10.07887 -10.07576 -10.07414
 Alpha  occ. eigenvalues --  -10.07249 -10.07206 -10.07199 -10.06305 -10.06289
 Alpha  occ. eigenvalues --   -0.81312  -0.76997  -0.71816  -0.69322  -0.66027
 Alpha  occ. eigenvalues --   -0.64743  -0.59943  -0.58901  -0.58488  -0.55459
 Alpha  occ. eigenvalues --   -0.51667  -0.50534  -0.48451  -0.45373  -0.40299
 Alpha  occ. eigenvalues --   -0.39924  -0.38399  -0.36929  -0.35492  -0.35226
 Alpha  occ. eigenvalues --   -0.34309  -0.33724  -0.33024  -0.32126  -0.31825
 Alpha  occ. eigenvalues --   -0.31262  -0.30060  -0.29313  -0.29142  -0.28577
 Alpha  occ. eigenvalues --   -0.27406  -0.26744  -0.26220  -0.25236  -0.24624
 Alpha  occ. eigenvalues --   -0.24116  -0.23631  -0.22734  -0.22288  -0.15252
 Alpha  occ. eigenvalues --   -0.14010  -0.13684   0.04280
 Alpha virt. eigenvalues --    0.05866   0.06546   0.07073   0.07658   0.07928
 Alpha virt. eigenvalues --    0.08232   0.08541   0.08932   0.09594   0.09682
 Alpha virt. eigenvalues --    0.10086   0.10555   0.11224   0.11692   0.11879

  Beta  occ. eigenvalues --  -14.20509 -10.09488 -10.09388 -10.08404 -10.08355
  Beta  occ. eigenvalues --  -10.08265 -10.08001 -10.07876 -10.07564 -10.07402
  Beta  occ. eigenvalues --  -10.07237 -10.07184 -10.07174 -10.06276 -10.06264
  Beta  occ. eigenvalues --   -0.81294  -0.76979  -0.71794  -0.69297  -0.65996
  Beta  occ. eigenvalues --   -0.64717  -0.59906  -0.58847  -0.58445  -0.55413
  Beta  occ. eigenvalues --   -0.51625  -0.50492  -0.48408  -0.45340  -0.40270
  Beta  occ. eigenvalues --   -0.39895  -0.38368  -0.36896  -0.35451  -0.35200
  Beta  occ. eigenvalues --   -0.34274  -0.33693  -0.32996  -0.32094  -0.31787
  Beta  occ. eigenvalues --   -0.31238  -0.30031  -0.29281  -0.29113  -0.28550
  Beta  occ. eigenvalues --   -0.27366  -0.26720  -0.26193  -0.25209  -0.24590
  Beta  occ. eigenvalues --   -0.24088  -0.23601  -0.22704  -0.22263  -0.15215
  Beta  occ. eigenvalues --   -0.13988  -0.13656
  Beta virt. eigenvalues --    0.06212   0.06774   0.07070   0.07405   0.08021
  Beta virt. eigenvalues --    0.08234   0.08605   0.08837   0.09209   0.09824
  Beta virt. eigenvalues --    0.09879   0.10543   0.10932   0.11490   0.11935

 Mulliken charges and spin densities:
               1          2
     1  C    2.955431  -3.550750
     2  C   -1.793853   2.083542
     3  C   -0.207939   1.161838
     4  C   -0.399164  -0.165732
     5  C    2.484499  -1.973299
     6  C   -0.349165  -0.117583
     7  C    0.886085  -1.500668
     8  C   -2.215765   2.385912
     9  C    0.698604  -1.381117
    10  C    0.417227  -1.129937
    11  C   -1.487547   1.218413
    12  C    0.448640  -0.898237
    13  C   -0.481086  -0.012441
    14  N   -0.111386   0.043252
    15  C    0.097651  -0.451777
    16  H   -0.137012   0.286626
    17  H   -0.071494   0.234585
    18  H   -0.326673   0.475816
    19  H    0.429609  -0.337647
    20  H   -0.295086   0.434230
    21  H   -0.236561   0.383456
    22  H   -0.149698   0.332455
    23  H   -0.284760   0.428183
    24  H   -0.369241   0.517833
    25  H    0.039216   0.097032
    26  H   -0.056973   0.197279
    27  H   -0.328349   0.478550
    28  H    0.037762   0.106618
    29  H   -0.200416   0.390133
    30  H   -0.109020   0.262008
    31  H    0.065976   0.094460
    32  H   -0.103154   0.216985
    33  H   -0.014389   0.190645
    34  H    0.234491  -0.132124
    35  H    0.176701   0.003002
    36  H    0.042148   0.080179
    37  H   -0.193244   0.334187
    38  H   -0.092065   0.214096
 Sum of Mulliken charges =  -1.00000   1.00000

 Dipole moment (field-independent basis, Debye):
    X=             -1.8867    Y=              0.3944    Z=             -0.4170  Tot=              1.9721
 Quadrupole moment (field-independent basis, Debye-Ang):
   XX=           -165.3382   YY=           -166.1434   ZZ=           -130.3846
   XY=             10.6278   XZ=              0.3428   YZ=              3.8943

 Summary of Natural Population Analysis:

                                       Natural Population
                Natural  -----------------------------------------------
    Atom  No    Charge         Core      Valence    Rydberg      Total
 -----------------------------------------------------------------------
      C    1   -0.29385      0.99964     2.28853    0.00568     3.29385
      C    2   -0.01910      0.99947     2.00991    0.00972     3.01910
      C    3   -0.01175      0.99947     2.00130    0.01098     3.01175
      C    4   -0.09909      0.99946     2.09091    0.00873     3.09909
      C    5   -0.00963      0.99949     1.99849    0.01164     3.00963
      C    6   -0.09967      0.99950     2.09057    0.00960     3.09967
      C    7   -0.09494      0.99952     2.08596    0.00946     3.09494
      C    8   -0.11876      0.99958     2.10835    0.01082     3.11876
      C    9   -0.27970      0.99965     2.27412    0.00594     3.27970
      C   10   -0.28022      0.99965     2.27377    0.00680     3.28022
      C   11   -0.20055      0.99960     2.19184    0.00911     3.20055
      C   12   -0.18790      0.99961     2.17932    0.00896     3.18790
      C   13   -0.08780      0.99962     2.07876    0.00941     3.08780
      N   14   -0.33871      0.99975     2.82813    0.01083     3.83871
      C   15   -0.17699      0.99967     2.17047    0.00685     3.17699
      H   16    0.10332      0.00000     0.39537    0.00131     0.39668
      H   17    0.10375      0.00000     0.39508    0.00116     0.39625
      H   18    0.10299      0.00000     0.39589    0.00112     0.39701
      H   19    0.09436      0.00000     0.40291    0.00274     0.40564
      H   20    0.09949      0.00000     0.39931    0.00120     0.40051
      H   21    0.09845      0.00000     0.40055    0.00100     0.40155
      H   22    0.09560      0.00000     0.40235    0.00206     0.40440
      H   23    0.09706      0.00000     0.40167    0.00127     0.40294
      H   24    0.09958      0.00000     0.39927    0.00115     0.40042
      H   25    0.10000      0.00000     0.39907    0.00093     0.40000
      H   26    0.10024      0.00000     0.39854    0.00121     0.39976
      H   27    0.09967      0.00000     0.39924    0.00109     0.40033
      H   28    0.09639      0.00000     0.40221    0.00140     0.40361
      H   29    0.09854      0.00000     0.40009    0.00137     0.40146
      H   30    0.10574      0.00000     0.39294    0.00132     0.39426
      H   31    0.09895      0.00000     0.39972    0.00133     0.40105
      H   32    0.09757      0.00000     0.40128    0.00115     0.40243
      H   33    0.09053      0.00000     0.40812    0.00135     0.40947
      H   34    0.08379      0.00000     0.41448    0.00173     0.41621
      H   35    0.16907      0.00000     0.32654    0.00439     0.33093
      H   36    0.08073      0.00000     0.41765    0.00162     0.41927
      H   37    0.09428      0.00000     0.40461    0.00110     0.40572
      H   38    0.08853      0.00000     0.41020    0.00127     0.41147
 =======================================================================
   * Total *   -0.00000     14.99367    41.83753    0.16880    57.00000

 Normal termination of Gaussian 16 at Thu Dec 10 17:57:22 2020.
