 Gaussian 16, Revision A.03,

 -----------------------------------------------------------
 # opt freq B3LYP/6-31G(d) empiricaldispersion=gd3bj scf=xqc
 -----------------------------------------------------------

 -------------------------------
 CID_116854991_JID_2217_neutraal
 -------------------------------
 Symbolic Z-matrix:
 Charge =  0 Multiplicity = 1

 SCF Done:  E(RB3LYP) =  -917.243499381     A.U. after   15 cycles
 SCF Done:  E(RB3LYP) =  -917.248242073     A.U. after   13 cycles
 SCF Done:  E(RB3LYP) =  -917.249150598     A.U. after   12 cycles
 SCF Done:  E(RB3LYP) =  -917.249594963     A.U. after   12 cycles
 SCF Done:  E(RB3LYP) =  -917.250367327     A.U. after   14 cycles
 SCF Done:  E(RB3LYP) =  -917.251112363     A.U. after   12 cycles
 SCF Done:  E(RB3LYP) =  -917.251757830     A.U. after   13 cycles
 SCF Done:  E(RB3LYP) =  -917.251813084     A.U. after   11 cycles
 SCF Done:  E(RB3LYP) =  -917.251813509     A.U. after   11 cycles
 SCF Done:  E(RB3LYP) =  -917.251848816     A.U. after   11 cycles
 SCF Done:  E(RB3LYP) =  -917.251851536     A.U. after    9 cycles
 SCF Done:  E(RB3LYP) =  -917.251851827     A.U. after    8 cycles
 SCF Done:  E(RB3LYP) =  -917.251851877     A.U. after    7 cycles
 Optimization completed.
    -- Stationary point found.
 Normal termination of Gaussian 16 at Wed Dec  9 16:59:29 2020.

 --------------------------------------------------------------------
 #N Geom=AllCheck Guess=TCheck SCRF=Check GenChk RB3LYP/6-31G(d) Freq
 --------------------------------------------------------------------

 Structure from the checkpoint file:  "JID_2217.chk"
 -------------------------------
 CID_116854991_JID_2217_neutraal
 -------------------------------
 Charge =  0 Multiplicity = 1

 SCF Done:  E(RB3LYP) =  -917.251851877     A.U. after    1 cycles

  Exact polarizability: 133.279   2.341 100.425   3.338   1.323  95.054
 Approx polarizability: 176.591  10.336 152.948   7.931   4.171 156.864

                      1                      2                      3
                      A                      A                      A
 Frequencies --     46.1371                50.2260                66.0218
 Red. masses --      5.1314                 3.0161                 3.2696
 Frc consts  --      0.0064                 0.0045                 0.0084
 IR Inten    --      0.1321                 1.4313                 1.0840

                      4                      5                      6
                      A                      A                      A
 Frequencies --    128.4933               174.0768               187.7930
 Red. masses --      7.1241                 4.0517                 3.2602
 Frc consts  --      0.0693                 0.0723                 0.0677
 IR Inten    --      1.3528                 4.1651                 1.2596

                      7                      8                      9
                      A                      A                      A
 Frequencies --    202.5170               219.6689               237.3919
 Red. masses --      2.9976                 3.5721                 1.0390
 Frc consts  --      0.0724                 0.1016                 0.0345
 IR Inten    --      1.6020                 0.6284                 0.0269

                     10                     11                     12
                      A                      A                      A
 Frequencies --    238.7948               262.1622               275.1170
 Red. masses --      1.2091                 1.3202                 1.0556
 Frc consts  --      0.0406                 0.0535                 0.0471
 IR Inten    --      0.3068                 0.3797                 0.2517

                     13                     14                     15
                      A                      A                      A
 Frequencies --    285.7107               298.4915               317.8390
 Red. masses --      3.6657                 3.5961                 2.4678
 Frc consts  --      0.1763                 0.1888                 0.1469
 IR Inten    --      1.4290                 5.0677                 1.5097

                     16                     17                     18
                      A                      A                      A
 Frequencies --    347.5392               377.2585               387.0354
 Red. masses --      3.3729                 3.3078                 3.4762
 Frc consts  --      0.2400                 0.2774                 0.3068
 IR Inten    --      7.0072                 1.6172                 4.6693

                     19                     20                     21
                      A                      A                      A
 Frequencies --    412.6637               436.1046               508.1073
 Red. masses --      2.2576                 2.8927                 9.4371
 Frc consts  --      0.2265                 0.3241                 1.4355
 IR Inten    --      2.1645                 1.6532                23.9148

                     22                     23                     24
                      A                      A                      A
 Frequencies --    560.0195               583.3778               621.4689
 Red. masses --      5.6991                 5.7132                 4.4847
 Frc consts  --      1.0531                 1.1456                 1.0205
 IR Inten    --     68.2305                 3.5355                 1.2806

                     25                     26                     27
                      A                      A                      A
 Frequencies --    736.3487               794.7387               838.3525
 Red. masses --      4.8955                 2.9548                 2.6524
 Frc consts  --      1.5639                 1.0996                 1.0984
 IR Inten    --     36.3371                 6.1782                29.4197

                     28                     29                     30
                      A                      A                      A
 Frequencies --    872.1794               945.6444               961.8977
 Red. masses --      1.7028                 1.2038                 2.2299
 Frc consts  --      0.7632                 0.6343                 1.2156
 IR Inten    --     11.3815                 3.7572                 2.4520

                     31                     32                     33
                      A                      A                      A
 Frequencies --    972.2004               972.7527               982.5212
 Red. masses --      1.5898                 1.6830                 1.5289
 Frc consts  --      0.8853                 0.9383                 0.8696
 IR Inten    --      0.6616                 0.0575                 0.0888

                     34                     35                     36
                      A                      A                      A
 Frequencies --   1045.6592              1089.2432              1128.0029
 Red. masses --      1.2740                 2.3893                 2.4660
 Frc consts  --      0.8208                 1.6702                 1.8487
 IR Inten    --      0.1934                43.5183                87.2518

                     37                     38                     39
                      A                      A                      A
 Frequencies --   1149.0354              1186.0882              1191.2547
 Red. masses --      1.9944                 1.9104                 3.8344
 Frc consts  --      1.5515                 1.5835                 3.2060
 IR Inten    --      0.7731                12.1628                 0.6152

                     40                     41                     42
                      A                      A                      A
 Frequencies --   1208.5772              1247.8165              1255.2214
 Red. masses --      1.7773                 1.5923                 2.0152
 Frc consts  --      1.5295                 1.4607                 1.8707
 IR Inten    --     11.5813                 4.0148                 5.3197

                     43                     44                     45
                      A                      A                      A
 Frequencies --   1284.9959              1317.9254              1366.7381
 Red. masses --      1.6569                 4.2220                 1.4537
 Frc consts  --      1.6119                 4.3207                 1.5999
 IR Inten    --     29.6310               132.2932                 2.8150

                     46                     47                     48
                      A                      A                      A
 Frequencies --   1395.9022              1428.9452              1431.4460
 Red. masses --      1.3514                 1.2050                 1.2420
 Frc consts  --      1.5514                 1.4496                 1.4995
 IR Inten    --      7.2111                 2.8794                 6.4940

                     49                     50                     51
                      A                      A                      A
 Frequencies --   1447.0689              1451.4742              1483.2662
 Red. masses --      1.2011                 1.2231                 1.0851
 Frc consts  --      1.4818                 1.5183                 1.4065
 IR Inten    --      4.5561                 7.1078                 5.4654

                     52                     53                     54
                      A                      A                      A
 Frequencies --   1513.4346              1516.9328              1519.5419
 Red. masses --      1.0447                 1.0498                 1.0481
 Frc consts  --      1.4098                 1.4233                 1.4259
 IR Inten    --      1.3478                 1.7550                 1.9849

                     55                     56                     57
                      A                      A                      A
 Frequencies --   1523.6448              1528.9961              1534.4478
 Red. masses --      1.0488                 1.0434                 1.0521
 Frc consts  --      1.4346                 1.4372                 1.4595
 IR Inten    --      4.9434                11.0603                 4.3891

                     58                     59                     60
                      A                      A                      A
 Frequencies --   1536.9980              1547.1599              2367.1286
 Red. masses --      1.0516                 1.0457                12.6943
 Frc consts  --      1.4637                 1.4748                41.9084
 IR Inten    --     16.7944                10.9858                 3.0875

                     61                     62                     63
                      A                      A                      A
 Frequencies --   3042.0802              3048.6648              3069.0161
 Red. masses --      1.0361                 1.0422                 1.0681
 Frc consts  --      5.6495                 5.7073                 5.9276
 IR Inten    --     22.6489                24.2436                 7.5117

                     64                     65                     66
                      A                      A                      A
 Frequencies --   3072.0855              3075.4082              3086.2120
 Red. masses --      1.0415                 1.0425                 1.0589
 Frc consts  --      5.7914                 5.8093                 5.9425
 IR Inten    --      4.0971                12.4238                 6.6867

                     67                     68                     69
                      A                      A                      A
 Frequencies --   3106.4632              3113.8847              3123.2051
 Red. masses --      1.1015                 1.1003                 1.1009
 Frc consts  --      6.2628                 6.2857                 6.3272
 IR Inten    --     31.2658                18.6990                42.9462

                     70                     71                     72
                      A                      A                      A
 Frequencies --   3136.1097              3140.1650              3144.6615
 Red. masses --      1.1046                 1.1031                 1.1023
 Frc consts  --      6.4007                 6.4087                 6.4222
 IR Inten    --     15.6666                 0.8192                19.9175

                     73                     74                     75
                      A                      A                      A
 Frequencies --   3158.0529              3167.6662              3174.4498
 Red. masses --      1.0999                 1.1038                 1.1029
 Frc consts  --      6.4632                 6.5256                 6.5482
 IR Inten    --      6.4260                 3.7737                 2.5890

 - Thermochemistry -
 -------------------
 Temperature   298.150 Kelvin.  Pressure   1.00000 Atm.
 Atom     1 has atomic number  6 and mass  12.00000

 Molecular mass:   189.08235 amu.
 Principal axes and moments of inertia in atomic units:
                           1         2         3
     Eigenvalues --  1293.973723301.074763577.11751
           X            0.99984  -0.01183  -0.01305
           Y            0.01229   0.99929   0.03562
           Z            0.01262  -0.03578   0.99928
 This molecule is an asymmetric top.
 Rotational symmetry number  1.
 Warning -- assumption of classical behavior for rotation
           may cause significant error
 Rotational temperatures (Kelvin)      0.06694     0.02624     0.02421
 Rotational constants (GHZ):           1.39473     0.54671     0.50452
 Zero-point vibrational energy     596073.6 (Joules/Mol)
                                  142.46501 (Kcal/Mol)
 Warning -- explicit consideration of  23 degrees of freedom as
           vibrations may cause significant error
 Vibrational temperatures:     66.38    72.26    94.99   184.87   250.46
          (Kelvin)            270.19   291.38   316.05   341.55   343.57
                              377.19   395.83   411.07   429.46   457.30
                              500.03   542.79   556.86   593.73   627.46
                              731.05   805.74   839.35   894.16  1059.44
                             1143.45  1206.20  1254.87  1360.57  1383.96
                             1398.78  1399.57  1413.63  1504.47  1567.18
                             1622.94  1653.21  1706.52  1713.95  1738.87
                             1795.33  1805.98  1848.82  1896.20  1966.43
                             2008.39  2055.93  2059.53  2082.01  2088.35
                             2134.09  2177.49  2182.53  2186.28  2192.19
                             2199.88  2207.73  2211.40  2226.02  3405.77
                             4376.87  4386.35  4415.63  4420.05  4424.83
                             4440.37  4469.51  4480.19  4493.60  4512.16
                             4518.00  4524.47  4543.73  4557.57  4567.33

 Zero-point correction=                           0.227032 (Hartree/Particle)
 Thermal correction to Energy=                    0.241592
 Thermal correction to Enthalpy=                  0.242537
 Thermal correction to Gibbs Free Energy=         0.186169
 Sum of electronic and zero-point Energies=           -917.024819
 Sum of electronic and thermal Energies=              -917.010260
 Sum of electronic and thermal Enthalpies=            -917.009315
 Sum of electronic and thermal Free Energies=         -917.065683

                     E (Thermal)             CV                S
                      KCal/Mol        Cal/Mol-Kelvin    Cal/Mol-Kelvin
 Total                  151.601             53.300            118.636
 Electronic               0.000              0.000              0.000
 Translational            0.889              2.981             41.617
 Rotational               0.889              2.981             31.103
 Vibrational            149.824             47.338             45.916
 Vibration     1          0.595              1.979              4.976
 Vibration     2          0.595              1.978              4.808
 Vibration     3          0.597              1.970              4.269
 Vibration     4          0.611              1.925              2.968
 Vibration     5          0.627              1.874              2.391
 Vibration     6          0.632              1.857              2.250
 Vibration     7          0.639              1.836              2.110
 Vibration     8          0.647              1.811              1.962
 Vibration     9          0.656              1.783              1.822
 Vibration    10          0.657              1.781              1.812
 Vibration    11          0.669              1.742              1.647
 Vibration    12          0.677              1.719              1.564
 Vibration    13          0.683              1.700              1.499
 Vibration    14          0.692              1.677              1.425
 Vibration    15          0.704              1.640              1.321
 Vibration    16          0.725              1.580              1.177
 Vibration    17          0.748              1.519              1.050
 Vibration    18          0.755              1.498              1.012
 Vibration    19          0.776              1.443              0.917
 Vibration    20          0.797              1.392              0.839
 Vibration    21          0.863              1.232              0.638
 Vibration    22          0.916              1.118              0.524
 Vibration    23          0.940              1.067              0.479

 Optimization completed.
    -- Stationary point found.
 Normal termination of Gaussian 16 at Wed Dec  9 17:06:30 2020.

 ----------------------------------------------------------------------
 # B3LYP/6-311++G(d,p) empiricaldispersion=gd3bj scf=xqc pop=npa geom=c
 heck
 ----------------------------------------------------------------------

 ---------------------------------------
 CID_116854991_JID_2217_Energie_neutraal
 ---------------------------------------
 Structure from the checkpoint file:  "JID_2217.chk"
 Charge =  0 Multiplicity = 1

 SCF Done:  E(RB3LYP) =  -917.429380550     A.U. after   15 cycles
 Normal termination of Gaussian 16 at Wed Dec  9 17:10:08 2020.

 ----------------------------------------------------------------------
 # B3LYP/6-311++G(d,p) empiricaldispersion=gd3bj scf=xqc pop=npa geom=c
 heck
 ----------------------------------------------------------------------

 -------------------------------------
 CID_116854991_JID_2217_Energie_kation
 -------------------------------------
 Structure from the checkpoint file:  "JID_2217.chk"
 Charge =  1 Multiplicity = 2

 SCF Done:  E(UB3LYP) =  -917.062069282     A.U. after   23 cycles
 Normal termination of Gaussian 16 at Wed Dec  9 17:17:35 2020.
 Gaussian 16:  ES64L-G16RevA.03 25-Dec-2016

 ----------------------------------------------------------------------
 # B3LYP/6-311++G(d,p) empiricaldispersion=gd3bj scf=xqc pop=npa geom=c
 heck
 ----------------------------------------------------------------------

 ------------------------------------
 CID_116854991_JID_2217_Energie_anion
 ------------------------------------
 Structure from the checkpoint file:  "JID_2217.chk"
 Charge = -1 Multiplicity = 2

                         Standard orientation:
 ---------------------------------------------------------------------
 Center     Atomic      Atomic             Coordinates (Angstroms)
 Number     Number       Type             X           Y           Z
 ---------------------------------------------------------------------
      1          6           0        3.324159    1.374367    0.051326
      2          6           0        2.337972    0.259945   -0.325476
      3          6           0        3.065439   -1.065743   -0.578580
      4          6           0        1.293526    0.118920    0.792266
      5         16           0       -0.257906   -0.732160    0.315045
      6          8           0       -0.058327   -1.445011   -0.955843
      7          8           0       -0.759062   -1.427116    1.510107
      8          6           0       -1.471155    0.668491   -0.048822
      9          6           0       -1.812704    1.413736    1.250016
     10          6           0       -0.891818    1.584133   -1.138328
     11          6           0       -2.666483   -0.010279   -0.556763
     12          7           0       -3.633346   -0.508657   -0.960211
     13          1           0        3.840617    1.141576    0.990575
     14          1           0        2.818497    2.339695    0.175039
     15          1           0        4.085950    1.490027   -0.726809
     16          1           0        1.824965    0.549878   -1.249435
     17          1           0        3.607471   -1.384847    0.320843
     18          1           0        2.362397   -1.852445   -0.860778
     19          1           0        3.795957   -0.951541   -1.386573
     20          1           0        1.666230   -0.493599    1.619613
     21          1           0        0.997422    1.085419    1.210298
     22          1           0       -2.157637    0.716165    2.015123
     23          1           0       -0.939848    1.955722    1.625712
     24          1           0       -2.602916    2.143307    1.049229
     25          1           0       -0.010819    2.114343   -0.765383
     26          1           0       -0.620377    1.008302   -2.025457
     27          1           0       -1.642502    2.328755   -1.419191
 ---------------------------------------------------------------------

 SCF Done:  E(UB3LYP) =  -917.426588210     A.U. after   30 cycles

 The electronic state is 2-A.
 Alpha  occ. eigenvalues --  -88.95103 -19.02539 -19.02517 -14.22653 -10.16736
 Alpha  occ. eigenvalues --  -10.12464 -10.11622 -10.09556 -10.09490 -10.09399
 Alpha  occ. eigenvalues --  -10.06530 -10.06323  -8.01675  -5.97916  -5.97823
 Alpha  occ. eigenvalues --   -5.97762  -1.01650  -0.91503  -0.82536  -0.75684
 Alpha  occ. eigenvalues --   -0.73124  -0.64610  -0.62604  -0.59332  -0.58201
 Alpha  occ. eigenvalues --   -0.52851  -0.48468  -0.43915  -0.41095  -0.39394
 Alpha  occ. eigenvalues --   -0.37766  -0.37199  -0.35888  -0.34514  -0.33253
 Alpha  occ. eigenvalues --   -0.32254  -0.32192  -0.31704  -0.29907  -0.29059
 Alpha  occ. eigenvalues --   -0.28780  -0.27892  -0.26808  -0.26058  -0.25113
 Alpha  occ. eigenvalues --   -0.24580  -0.24305  -0.23199  -0.22963  -0.21561
 Alpha  occ. eigenvalues --   -0.19178   0.03871
 Alpha virt. eigenvalues --    0.06790   0.07461   0.07691   0.08445   0.09126
 Alpha virt. eigenvalues --    0.09601   0.10171   0.11185   0.11601   0.11898
 Alpha virt. eigenvalues --    0.12107   0.12435   0.13248   0.13440   0.13848

  Beta  occ. eigenvalues --  -88.95089 -19.02535 -19.02505 -14.22596 -10.16719
  Beta  occ. eigenvalues --  -10.12461 -10.11562 -10.09546 -10.09440 -10.09351
  Beta  occ. eigenvalues --  -10.06511 -10.06256  -8.01658  -5.97904  -5.97807
  Beta  occ. eigenvalues --   -5.97747  -1.01620  -0.91480  -0.82454  -0.75614
  Beta  occ. eigenvalues --   -0.73070  -0.64510  -0.62522  -0.59250  -0.58088
  Beta  occ. eigenvalues --   -0.52761  -0.48376  -0.43871  -0.41041  -0.39341
  Beta  occ. eigenvalues --   -0.37712  -0.37139  -0.35826  -0.34465  -0.33191
  Beta  occ. eigenvalues --   -0.32204  -0.32143  -0.31620  -0.29851  -0.29011
  Beta  occ. eigenvalues --   -0.28728  -0.27800  -0.26754  -0.25915  -0.25048
  Beta  occ. eigenvalues --   -0.24533  -0.24262  -0.23109  -0.22946  -0.21545
  Beta  occ. eigenvalues --   -0.19114
  Beta virt. eigenvalues --    0.06588   0.07424   0.07925   0.08399   0.09132
  Beta virt. eigenvalues --    0.09577   0.10045   0.10772   0.11294   0.11798
  Beta virt. eigenvalues --    0.12337   0.12352   0.12645   0.13376   0.13883

 Mulliken charges and spin densities:
               1          2
     1  C    1.065312  -1.710918
     2  C   -1.322574   1.738182
     3  C    0.148604  -0.717891
     4  C    0.212248  -0.937322
     5  S    0.713723  -0.405336
     6  O   -0.153910   0.007341
     7  O   -0.155153   0.010583
     8  C   -1.204026   1.981772
     9  C    0.893504  -1.340578
    10  C    0.665655  -1.315621
    11  C    0.064415  -0.746522
    12  N   -0.284585   0.050181
    13  H   -0.267995   0.410263
    14  H   -0.582281   0.740087
    15  H   -0.472643   0.622376
    16  H    0.146146   0.053966
    17  H    0.055010   0.074897
    18  H    0.138018   0.024258
    19  H   -0.105105   0.242423
    20  H    0.088835   0.152948
    21  H    0.478289  -0.210976
    22  H    0.090317   0.109068
    23  H   -0.805933   0.983742
    24  H   -0.074938   0.244840
    25  H   -0.202963   0.418837
    26  H    0.011599   0.197984
    27  H   -0.139569   0.321416
 Sum of Mulliken charges =  -1.00000   1.00000

 Dipole moment (field-independent basis, Debye):
    X=             -1.0588    Y=             -3.2617    Z=             -0.1499  Tot=              3.4325
 Quadrupole moment (field-independent basis, Debye-Ang):
   XX=           -145.2898   YY=           -133.0645   ZZ=           -114.7783
   XY=            -16.1106   XZ=             -2.3980   YZ=             -4.4346

 Summary of Natural Population Analysis:

                                       Natural Population
                Natural  -----------------------------------------------
    Atom  No    Charge         Core      Valence    Rydberg      Total
 -----------------------------------------------------------------------
      C    1   -0.28268      0.99965     2.27635    0.00669     3.28268
      C    2   -0.12786      0.99961     2.11704    0.01121     3.12786
      C    3   -0.28574      0.99964     2.28088    0.00522     3.28574
      C    4   -0.28586      0.99954     2.27371    0.01261     3.28586
      S    5    1.02663      4.99921     1.88170    0.09246     6.97337
      O    6   -0.46311      0.99991     3.45765    0.00555     4.46311
      O    7   -0.46494      0.99991     3.45954    0.00549     4.46494
      C    8   -0.16269      0.99946     2.14665    0.01658     3.16269
      C    9   -0.28754      0.99962     2.27938    0.00855     3.28754
      C   10   -0.28967      0.99962     2.28117    0.00889     3.28967
      C   11    0.15070      0.99960     1.82794    0.02176     2.84930
      N   12   -0.15765      0.99979     2.64728    0.01058     3.65765
      H   13    0.09781      0.00000     0.40063    0.00155     0.40219
      H   14    0.10648      0.00000     0.39022    0.00329     0.39352
      H   15    0.10331      0.00000     0.39505    0.00165     0.39669
      H   16    0.10287      0.00000     0.39479    0.00234     0.39713
      H   17    0.09443      0.00000     0.40467    0.00090     0.40557
      H   18    0.11027      0.00000     0.38866    0.00107     0.38973
      H   19    0.10043      0.00000     0.39879    0.00077     0.39957
      H   20    0.12024      0.00000     0.37848    0.00128     0.37976
      H   21    0.12159      0.00000     0.37584    0.00257     0.37841
      H   22    0.11534      0.00000     0.38330    0.00136     0.38466
      H   23    0.11127      0.00000     0.38616    0.00257     0.38873
      H   24    0.10924      0.00000     0.38943    0.00133     0.39076
      H   25    0.11288      0.00000     0.38455    0.00257     0.38712
      H   26    0.11369      0.00000     0.38469    0.00162     0.38631
      H   27    0.11056      0.00000     0.38804    0.00140     0.38944
 =======================================================================
   * Total *   -0.00000     15.99556    34.77259    0.23185    51.00000

 Normal termination of Gaussian 16 at Wed Dec  9 17:27:14 2020.
