 Gaussian 16, Revision A.03,

 -----------------------------------------------------------
 # opt freq B3LYP/6-31G(d) empiricaldispersion=gd3bj scf=xqc
 -----------------------------------------------------------

 -----------------------------
 CID_142881204_JID_60_neutraal
 -----------------------------
 Symbolic Z-matrix:
 Charge =  0 Multiplicity = 1

 SCF Done:  E(RB3LYP) =  -749.578893959     A.U. after   14 cycles
 SCF Done:  E(RB3LYP) =  -749.581049088     A.U. after   11 cycles
 SCF Done:  E(RB3LYP) =  -749.581250161     A.U. after   11 cycles
 SCF Done:  E(RB3LYP) =  -749.581264662     A.U. after    8 cycles
 SCF Done:  E(RB3LYP) =  -749.581265935     A.U. after    8 cycles
 Optimization completed.
    -- Stationary point found.

 1\1\GINC-NODE318\FOpt\RB3LYP\6-31G(d)\C9H14S1\VSC10255\14-Dec-2020\0\\
 # opt freq B3LYP/6-31G(d) empiricaldispersion=gd3bj scf=xqc\\CID_14288
 1204_JID_60_neutraal\\0,1\C,0.9554830167,0.0141138164,-0.0826570451\C,
 0.4930295616,0.5252088156,-1.4134162697\C,-0.2828967349,-0.1681452,-2.
 2653236095\C,-0.7582320058,0.2835453434,-3.5675820356\C,-1.5397508324,
 -0.5564679024,-4.2994937575\C,-2.1128871989,-0.3151909744,-5.599591309
 1\C,-2.8868883156,-1.176176155,-6.2985990774\C,-3.4482025511,-0.848489
 4194,-7.6532472149\S,-3.2939869442,-2.787257685,-5.6349868322\C,-0.352

 Normal termination of Gaussian 16 at Mon Dec 14 16:23:52 2020.

 --------------------------------------------------------------------
 #N Geom=AllCheck Guess=TCheck SCRF=Check GenChk RB3LYP/6-31G(d) Freq
 --------------------------------------------------------------------

 Structure from the checkpoint file:  "JID_60.chk"
 -----------------------------
 CID_142881204_JID_60_neutraal
 -----------------------------
 Charge =  0 Multiplicity = 1

 SCF Done:  E(RB3LYP) =  -749.581265935     A.U. after    1 cycles

  Exact polarizability: 256.155  11.829 111.201  -0.000  -0.000  60.658
 Approx polarizability: 386.045  35.263 162.736  -0.000   0.000  89.292

 ******    1 imaginary frequencies (negative Signs) ******

                      1                      2                      3
                      A                      A                      A
 Frequencies --   -112.8119                58.8230                71.1213
 Red. masses --      1.2828                 3.1486                 1.9947
 Frc consts  --      0.0096                 0.0064                 0.0059
 IR Inten    --     15.7729                 0.5574                 3.7860

                      4                      5                      6
                      A                      A                      A
 Frequencies --     81.6506               143.0236               159.2072
 Red. masses --      4.5789                 1.4206                 1.0454
 Frc consts  --      0.0180                 0.0171                 0.0156
 IR Inten    --      0.6882                 0.4239                 0.0280

                      7                      8                      9
                      A                      A                      A
 Frequencies --    180.4977               183.7361               211.0044
 Red. masses --      1.7475                 4.4648                 1.4027
 Frc consts  --      0.0335                 0.0888                 0.0368
 IR Inten    --      0.0072                 0.2345                 1.6859

                     10                     11                     12
                      A                      A                      A
 Frequencies --    230.7383               251.2102               324.8750
 Red. masses --      1.4848                 3.4772                 3.4024
 Frc consts  --      0.0466                 0.1293                 0.2116
 IR Inten    --      0.0900                 0.0005                 0.1629

                     13                     14                     15
                      A                      A                      A
 Frequencies --    374.9793               380.7324               410.2144
 Red. masses --      2.8329                 3.0218                 3.6109
 Frc consts  --      0.2347                 0.2581                 0.3580
 IR Inten    --      2.3479                 0.1800                 0.2004

                     16                     17                     18
                      A                      A                      A
 Frequencies --    492.5294               507.5172               521.2306
 Red. masses --      2.2449                 2.7896                 4.3514
 Frc consts  --      0.3209                 0.4233                 0.6965
 IR Inten    --      0.8574                 1.4809                 0.4442

                     19                     20                     21
                      A                      A                      A
 Frequencies --    619.8375               674.5233               809.4365
 Red. masses --      3.6643                 3.6300                 1.4933
 Frc consts  --      0.8295                 0.9731                 0.5764
 IR Inten    --     11.1587                27.0148                 7.8282

                     22                     23                     24
                      A                      A                      A
 Frequencies --    856.0292               865.4666               917.9990
 Red. masses --      3.0423                 1.3568                 1.4193
 Frc consts  --      1.3135                 0.5988                 0.7047
 IR Inten    --      0.6017                 7.7330                 4.9350

                     25                     26                     27
                      A                      A                      A
 Frequencies --    953.7575               965.1999              1008.2710
 Red. masses --      1.1695                 1.7079                 1.1264
 Frc consts  --      0.6268                 0.9375                 0.6747
 IR Inten    --      5.1716                17.4952                27.6119

                     28                     29                     30
                      A                      A                      A
 Frequencies --   1040.6918              1050.0983              1071.5125
 Red. masses --      1.4885                 1.6738                 1.4829
 Frc consts  --      0.9498                 1.0874                 1.0032
 IR Inten    --      3.3595                 7.2213                 0.2778

                     31                     32                     33
                      A                      A                      A
 Frequencies --   1072.1642              1075.6986              1129.3255
 Red. masses --      1.4709                 1.4421                 2.6220
 Frc consts  --      0.9962                 0.9832                 1.9703
 IR Inten    --      0.5932                 1.0042                 9.7572

                     34                     35                     36
                      A                      A                      A
 Frequencies --   1150.5412              1203.2579              1276.3120
 Red. masses --      2.6142                 2.7211                 1.8289
 Frc consts  --      2.0389                 2.3212                 1.7553
 IR Inten    --     49.0572                 6.0185                 1.2694

                     37                     38                     39
                      A                      A                      A
 Frequencies --   1334.8448              1349.1366              1359.0885
 Red. masses --      1.3020                 1.4287                 1.6185
 Frc consts  --      1.3669                 1.5322                 1.7614
 IR Inten    --      8.9892                26.9136                 7.6487

                     40                     41                     42
                      A                      A                      A
 Frequencies --   1426.5452              1439.9983              1441.2375
 Red. masses --      1.3058                 1.2435                 1.2534
 Frc consts  --      1.5656                 1.5192                 1.5340
 IR Inten    --      6.6559                 8.2929                 5.4649

                     43                     44                     45
                      A                      A                      A
 Frequencies --   1453.4729              1505.2929              1507.7859
 Red. masses --      1.5102                 1.0436                 1.0456
 Frc consts  --      1.8797                 1.3932                 1.4005
 IR Inten    --      4.4444                 7.9792                 5.7211

                     46                     47                     48
                      A                      A                      A
 Frequencies --   1512.3309              1519.7099              1521.5427
 Red. masses --      1.0435                 1.0691                 1.0709
 Frc consts  --      1.4062                 1.4548                 1.4607
 IR Inten    --      7.3973                 2.5603                 4.1380

                     49                     50                     51
                      A                      A                      A
 Frequencies --   1526.5545              1654.4370              1692.5527
 Red. masses --      1.0812                 6.2361                 4.9945
 Frc consts  --      1.4845                10.0570                 8.4299
 IR Inten    --     10.9495                33.8792                12.1905

                     52                     53                     54
                      A                      A                      A
 Frequencies --   1723.6847              2699.1937              3025.6056
 Red. masses --      5.3167                 1.0386                 1.0380
 Frc consts  --      9.3069                 4.4582                 5.5985
 IR Inten    --      6.8589                17.5097                70.7908

                     55                     56                     57
                      A                      A                      A
 Frequencies --   3032.1859              3044.6530              3068.2572
 Red. masses --      1.0372                 1.0415                 1.0998
 Frc consts  --      5.6187                 5.6885                 6.1000
 IR Inten    --     60.4074                32.3985                26.7836

                     58                     59                     60
                      A                      A                      A
 Frequencies --   3081.1747              3089.7476              3115.8964
 Red. masses --      1.1011                 1.1000                 1.0990
 Frc consts  --      6.1590                 6.1873                 6.2866
 IR Inten    --     19.6446                20.5470                13.5723

                     61                     62                     63
                      A                      A                      A
 Frequencies --   3128.3511              3138.9471              3150.3328
 Red. masses --      1.0997                 1.0890                 1.0875
 Frc consts  --      6.3410                 6.3218                 6.3593
 IR Inten    --     17.3269                10.1148                14.5984

                     64                     65                     66
                      A                      A                      A
 Frequencies --   3156.0668              3168.6057              3185.3577
 Red. masses --      1.0949                 1.0875                 1.0865
 Frc consts  --      6.4256                 6.4330                 6.4955
 IR Inten    --      8.7153                27.2082                29.3367

 - Thermochemistry -
 -------------------
 Temperature   298.150 Kelvin.  Pressure   1.00000 Atm.
 Atom     1 has atomic number  6 and mass  12.00000

 Molecular mass:   154.08162 amu.
 Principal axes and moments of inertia in atomic units:
                           1         2         3
     Eigenvalues --   747.929164412.217605126.56761
           X            0.99985  -0.01740  -0.00000
           Y            0.01740   0.99985  -0.00000
           Z            0.00000   0.00000   1.00000
 This molecule is an asymmetric top.
 Rotational symmetry number  1.
 Warning -- assumption of classical behavior for rotation
           may cause significant error
 Rotational temperatures (Kelvin)      0.11580     0.01963     0.01690
 Rotational constants (GHZ):           2.41298     0.40903     0.35204
    1 imaginary frequencies ignored.
 Zero-point vibrational energy     534586.0 (Joules/Mol)
                                  127.76913 (Kcal/Mol)
 Warning -- explicit consideration of  18 degrees of freedom as
           vibrations may cause significant error
 Vibrational temperatures:     84.63   102.33   117.48   205.78   229.06
          (Kelvin)            259.70   264.36   303.59   331.98   361.44
                              467.42   539.51   547.79   590.21   708.64
                              730.20   749.93   891.81   970.49  1164.60
                             1231.64  1245.21  1320.80  1372.24  1388.71
                             1450.68  1497.32  1510.86  1541.67  1542.61
                             1547.69  1624.85  1655.37  1731.22  1836.33
                             1920.54  1941.11  1955.43  2052.48  2071.84
                             2073.62  2091.22  2165.78  2169.37  2175.91
                             2186.52  2189.16  2196.37  2380.37  2435.21
                             2480.00  3883.54  4353.17  4362.64  4380.58
                             4414.54  4433.12  4445.46  4483.08  4501.00
                             4516.24  4532.63  4540.88  4558.92  4583.02

 Zero-point correction=                           0.203613 (Hartree/Particle)
 Thermal correction to Energy=                    0.215787
 Thermal correction to Enthalpy=                  0.216732
 Thermal correction to Gibbs Free Energy=         0.164966
 Sum of electronic and zero-point Energies=           -749.377653
 Sum of electronic and thermal Energies=              -749.365479
 Sum of electronic and thermal Enthalpies=            -749.364534
 Sum of electronic and thermal Free Energies=         -749.416299

                     E (Thermal)             CV                S
                      KCal/Mol        Cal/Mol-Kelvin    Cal/Mol-Kelvin
 Total                  135.409             43.614            108.949
 Electronic               0.000              0.000              0.000
 Translational            0.889              2.981             41.007
 Rotational               0.889              2.981             31.204
 Vibrational            133.631             37.652             36.738
 Vibration     1          0.596              1.974              4.496
 Vibration     2          0.598              1.968              4.122
 Vibration     3          0.600              1.962              3.851
 Vibration     4          0.616              1.910              2.763
 Vibration     5          0.621              1.892              2.559
 Vibration     6          0.629              1.866              2.323
 Vibration     7          0.631              1.862              2.290
 Vibration     8          0.643              1.824              2.035
 Vibration     9          0.652              1.794              1.873
 Vibration    10          0.663              1.761              1.722
 Vibration    11          0.709              1.626              1.285
 Vibration    12          0.746              1.523              1.059
 Vibration    13          0.750              1.511              1.036
 Vibration    14          0.774              1.448              0.926
 Vibration    15          0.848              1.267              0.677
 Vibration    16          0.863              1.233              0.640
 Vibration    17          0.876              1.203              0.607
 Vibration    18          0.980              0.990              0.417

 Optimization completed.
    -- Stationary point found.

 1\1\GINC-NODE318\Freq\RB3LYP\6-31G(d)\C9H14S1\VSC10255\14-Dec-2020\0\\
 #N Geom=AllCheck Guess=TCheck SCRF=Check GenChk RB3LYP/6-31G(d) Freq\\
 CID_142881204_JID_60_neutraal\\0,1\C,0.9554830167,0.0141138164,-0.0826
 570451\C,0.4930295616,0.5252088156,-1.4134162697\C,-0.2828967349,-0.16
 81452,-2.2653236095\C,-0.7582320058,0.2835453434,-3.5675820356\C,-1.53
 97508324,-0.5564679024,-4.2994937575\C,-2.1128871989,-0.3151909744,-5.
 5995913091\C,-2.8868883156,-1.176176155,-6.2985990774\C,-3.4482025511,
 -0.8484894194,-7.6532472149\S,-3.2939869442,-2.787257685,-5.6349868322

 Normal termination of Gaussian 16 at Mon Dec 14 16:27:39 2020.

 ----------------------------------------------------------------------
 # B3LYP/6-311++G(d,p) empiricaldispersion=gd3bj scf=xqc pop=npa geom=c
 heck
 ----------------------------------------------------------------------

 -------------------------------------
 CID_142881204_JID_60_Energie_neutraal
 -------------------------------------
 Structure from the checkpoint file:  "JID_60.chk"
 Charge =  0 Multiplicity = 1

 SCF Done:  E(RB3LYP) =  -749.708782863     A.U. after   14 cycles
 Normal termination of Gaussian 16 at Mon Dec 14 16:29:14 2020.

 ----------------------------------------------------------------------
 # B3LYP/6-311++G(d,p) empiricaldispersion=gd3bj scf=xqc pop=npa geom=c
 heck
 ----------------------------------------------------------------------

 -----------------------------------
 CID_142881204_JID_60_Energie_kation
 -----------------------------------
 Structure from the checkpoint file:  "JID_60.chk"
 Charge =  1 Multiplicity = 2

 SCF Done:  E(UB3LYP) =  -749.453023847     A.U. after   21 cycles
 Normal termination of Gaussian 16 at Mon Dec 14 16:32:19 2020.
 Gaussian 16:  ES64L-G16RevA.03 25-Dec-2016

 ----------------------------------
 CID_142881204_JID_60_Energie_anion
 ----------------------------------
 Structure from the checkpoint file:  "JID_60.chk"
 Charge = -1 Multiplicity = 2

                         Standard orientation:
 ---------------------------------------------------------------------
 Center     Atomic      Atomic             Coordinates (Angstroms)
 Number     Number       Type             X           Y           Z
 ---------------------------------------------------------------------
      1          6           0        4.767438   -1.078040    0.000001
      2          6           0        3.652394   -0.076701    0.000000
      3          6           0        2.345795   -0.395048    0.000001
      4          6           0        1.226484    0.539291   -0.000000
      5          6           0       -0.037990    0.036108    0.000001
      6          6           0       -1.277229    0.771799    0.000001
      7          6           0       -2.518973    0.236023    0.000001
      8          6           0       -3.765897    1.074296    0.000002
      9         16           0       -2.750691   -1.538238   -0.000003
     10          6           0        1.539946    2.013476   -0.000003
     11          1           0        4.385309   -2.104313    0.000004
     12          1           0        5.414192   -0.956344    0.880092
     13          1           0        5.414191   -0.956347   -0.880090
     14          1           0        3.950682    0.970654   -0.000002
     15          1           0        2.074441   -1.451685    0.000003
     16          1           0       -0.126924   -1.049933    0.000003
     17          1           0       -1.230601    1.857552    0.000002
     18          1           0       -4.384509    0.871070   -0.884119
     19          1           0       -4.384509    0.871067    0.884122
     20          1           0       -3.511031    2.138336    0.000004
     21          1           0       -4.097926   -1.507773    0.000011
     22          1           0        2.135765    2.283012    0.881075
     23          1           0        2.135767    2.283008   -0.881081
     24          1           0        0.644387    2.636280   -0.000006
 ---------------------------------------------------------------------

 SCF Done:  E(UB3LYP) =  -749.702695823     A.U. after   27 cycles

 The electronic state is 2-A.
 Alpha  occ. eigenvalues --  -88.71665 -10.04606 -10.03817 -10.03327 -10.02222
 Alpha  occ. eigenvalues --  -10.00634 -10.00556 -10.00127 -10.00097  -9.99435
 Alpha  occ. eigenvalues --   -7.80299  -5.76678  -5.76279  -5.75741  -0.68469
 Alpha  occ. eigenvalues --   -0.66277  -0.62396  -0.58141  -0.57322  -0.54353
 Alpha  occ. eigenvalues --   -0.50904  -0.42657  -0.38237  -0.37401  -0.33087
 Alpha  occ. eigenvalues --   -0.31392  -0.29593  -0.29560  -0.28545  -0.28154
 Alpha  occ. eigenvalues --   -0.27322  -0.25795  -0.24560  -0.23989  -0.21635
 Alpha  occ. eigenvalues --   -0.20746  -0.19391  -0.18012  -0.17389  -0.14651
 Alpha  occ. eigenvalues --   -0.10688  -0.04780   0.06009
 Alpha virt. eigenvalues --    0.08081   0.08743   0.09890   0.10651   0.11578
 Alpha virt. eigenvalues --    0.11594   0.11820   0.12679   0.13270   0.14106
 Alpha virt. eigenvalues --    0.14205   0.14739   0.15616   0.16216   0.16437

  Beta  occ. eigenvalues --  -88.71668 -10.04647 -10.03845 -10.02803 -10.02242
  Beta  occ. eigenvalues --  -10.00638 -10.00559  -9.99833  -9.99750  -9.99257
  Beta  occ. eigenvalues --   -7.80303  -5.76688  -5.76294  -5.75730  -0.67908
  Beta  occ. eigenvalues --   -0.65779  -0.62003  -0.58062  -0.57067  -0.54265
  Beta  occ. eigenvalues --   -0.50679  -0.41892  -0.37860  -0.37143  -0.32814
  Beta  occ. eigenvalues --   -0.31207  -0.29484  -0.29062  -0.28198  -0.28037
  Beta  occ. eigenvalues --   -0.27043  -0.25611  -0.24473  -0.23866  -0.21488
  Beta  occ. eigenvalues --   -0.20567  -0.19231  -0.17214  -0.16883  -0.13587
  Beta  occ. eigenvalues --   -0.09718  -0.02737
  Beta virt. eigenvalues --    0.08039   0.08691   0.09773   0.10537   0.10903
  Beta virt. eigenvalues --    0.11521   0.11742   0.12610   0.12617   0.13199
  Beta virt. eigenvalues --    0.14104   0.14438   0.14686   0.15474   0.16339

 Mulliken charges and spin densities:
               1          2
     1  C   -0.724102  -0.018022
     2  C   -0.162937   0.270890
     3  C    0.008343  -0.050125
     4  C    0.942962   0.149465
     5  C   -0.216413   0.180025
     6  C   -0.310237   0.106740
     7  C    0.283923   0.191074
     8  C   -0.265495  -0.043367
     9  S   -0.489337   0.055996
    10  C   -1.011035  -0.047363
    11  H    0.118113   0.000591
    12  H    0.101838   0.012343
    13  H    0.101838   0.012343
    14  H    0.107623  -0.018323
    15  H    0.067385   0.000348
    16  H   -0.076348  -0.015268
    17  H   -0.100273  -0.003528
    18  H    0.056673   0.068416
    19  H    0.056676   0.068411
    20  H    0.141287   0.001122
    21  H    0.071142  -0.000768
    22  H    0.085497   0.040103
    23  H    0.085496   0.040104
    24  H    0.127381  -0.001209
 Sum of Mulliken charges =  -1.00000   1.00000

 Dipole moment (field-independent basis, Debye):
    X=             -1.1643    Y=              0.5444    Z=              0.0000  Tot=              1.2853
 Quadrupole moment (field-independent basis, Debye-Ang):
   XX=           -115.2024   YY=            -82.5425   ZZ=            -85.2416
   XY=             -1.0460   XZ=             -0.0001   YZ=              0.0000

 Summary of Natural Population Analysis:

                                       Natural Population
                Natural  -----------------------------------------------
    Atom  No    Charge         Core      Valence    Rydberg      Total
 -----------------------------------------------------------------------
      C    1   -0.29745      0.99967     2.29321    0.00458     3.29745
      C    2   -0.04613      0.99955     2.03691    0.00966     3.04613
      C    3   -0.10920      0.99950     2.10089    0.00880     3.10920
      C    4    0.01809      0.99950     1.97140    0.01101     2.98191
      C    5   -0.07398      0.99949     2.06613    0.00837     3.07398
      C    6   -0.13946      0.99944     2.12925    0.01076     3.13946
      C    7    0.00833      0.99944     1.98267    0.00956     2.99167
      C    8   -0.29922      0.99962     2.29469    0.00491     3.29922
      S    9   -0.01304      4.99957     2.99521    0.01826     8.01304
      C   10   -0.29889      0.99964     2.29318    0.00606     3.29889
      H   11    0.09254      0.00000     0.40637    0.00109     0.40746
      H   12    0.09212      0.00000     0.40652    0.00136     0.40788
      H   13    0.09212      0.00000     0.40652    0.00136     0.40788
      H   14    0.08011      0.00000     0.41879    0.00110     0.41989
      H   15    0.08367      0.00000     0.41492    0.00142     0.41633
      H   16    0.08787      0.00000     0.41047    0.00166     0.41213
      H   17    0.09036      0.00000     0.40851    0.00113     0.40964
      H   18    0.09649      0.00000     0.40209    0.00143     0.40351
      H   19    0.09649      0.00000     0.40209    0.00143     0.40351
      H   20    0.09930      0.00000     0.39983    0.00086     0.40070
      H   21    0.04915      0.00000     0.44816    0.00269     0.45085
      H   22    0.09766      0.00000     0.40109    0.00125     0.40234
      H   23    0.09766      0.00000     0.40109    0.00125     0.40234
      H   24    0.09543      0.00000     0.40373    0.00084     0.40457
 =======================================================================
   * Total *    0.00000     13.99543    27.89373    0.11084    42.00000

 Normal termination of Gaussian 16 at Mon Dec 14 16:36:13 2020.
