 Gaussian 16, Revision A.03,

 -----------------------------------------------------------
 # opt freq B3LYP/6-31G(d) empiricaldispersion=gd3bj scf=xqc
 -----------------------------------------------------------

 -------------------------------
 CID_115410018_JID_2081_neutraal
 -------------------------------
 Symbolic Z-matrix:
 Charge =  0 Multiplicity = 1

 SCF Done:  E(RB3LYP) =  -918.476035939     A.U. after   14 cycles
 SCF Done:  E(RB3LYP) =  -918.479120086     A.U. after   12 cycles
 SCF Done:  E(RB3LYP) =  -918.479280324     A.U. after   12 cycles
 SCF Done:  E(RB3LYP) =  -918.479380084     A.U. after   12 cycles
 SCF Done:  E(RB3LYP) =  -918.479685585     A.U. after   11 cycles
 SCF Done:  E(RB3LYP) =  -918.479781630     A.U. after   12 cycles
 SCF Done:  E(RB3LYP) =  -918.479881516     A.U. after   11 cycles
 SCF Done:  E(RB3LYP) =  -918.479919054     A.U. after   11 cycles
 SCF Done:  E(RB3LYP) =  -918.479953232     A.U. after   11 cycles
 SCF Done:  E(RB3LYP) =  -918.479962935     A.U. after    9 cycles
 SCF Done:  E(RB3LYP) =  -918.479968773     A.U. after    7 cycles
 SCF Done:  E(RB3LYP) =  -918.479968902     A.U. after    7 cycles
 SCF Done:  E(RB3LYP) =  -918.479969112     A.U. after    8 cycles
 SCF Done:  E(RB3LYP) =  -918.479969251     A.U. after    7 cycles
 SCF Done:  E(RB3LYP) =  -918.479969337     A.U. after    7 cycles
 Optimization completed.
    -- Stationary point found.
 Normal termination of Gaussian 16 at Wed Dec  9 16:51:41 2020.

 --------------------------------------------------------------------
 #N Geom=AllCheck Guess=TCheck SCRF=Check GenChk RB3LYP/6-31G(d) Freq
 --------------------------------------------------------------------

 Structure from the checkpoint file:  "JID_2081.chk"
 -------------------------------
 CID_115410018_JID_2081_neutraal
 -------------------------------
 Charge =  0 Multiplicity = 1

 SCF Done:  E(RB3LYP) =  -918.479969337     A.U. after    1 cycles

  Exact polarizability: 139.790  -3.850 108.819  -0.099  -3.819  96.450
 Approx polarizability: 165.969  -9.992 163.572  -2.438  -0.309 148.973

                      1                      2                      3
                      A                      A                      A
 Frequencies --     12.3805                28.6672                44.0929
 Red. masses --      4.0429                 3.3679                 4.0380
 Frc consts  --      0.0004                 0.0016                 0.0046
 IR Inten    --      0.0993                 0.1794                 0.7157

                      4                      5                      6
                      A                      A                      A
 Frequencies --     54.6791                62.3769               109.9273
 Red. masses --      3.7624                 3.3800                 3.6508
 Frc consts  --      0.0066                 0.0077                 0.0260
 IR Inten    --      0.4765                 3.1707                 2.0177

                      7                      8                      9
                      A                      A                      A
 Frequencies --    148.3678               172.3990               201.3576
 Red. masses --      5.1777                 3.3453                 1.0585
 Frc consts  --      0.0672                 0.0586                 0.0253
 IR Inten    --      1.7210                 1.9825                 0.4317

                     10                     11                     12
                      A                      A                      A
 Frequencies --    222.1594               229.7843               265.0269
 Red. masses --      3.1183                 1.0729                 2.8975
 Frc consts  --      0.0907                 0.0334                 0.1199
 IR Inten    --      1.3779                 0.1593                 2.8326

                     13                     14                     15
                      A                      A                      A
 Frequencies --    273.1433               280.5058               326.9077
 Red. masses --      1.2002                 2.1466                 3.1700
 Frc consts  --      0.0528                 0.0995                 0.1996
 IR Inten    --      0.6406                 2.6868                 3.2121

                     16                     17                     18
                      A                      A                      A
 Frequencies --    377.9292               400.8917               420.8352
 Red. masses --      2.8048                 2.7590                 1.9211
 Frc consts  --      0.2360                 0.2612                 0.2005
 IR Inten    --      2.2789                 7.3886                 0.9290

                     19                     20                     21
                      A                      A                      A
 Frequencies --    492.3790               533.9488               576.3352
 Red. masses --      1.9139                 3.4214                 3.4617
 Frc consts  --      0.2734                 0.5747                 0.6775
 IR Inten    --     72.8751                15.8004                33.0131

                     22                     23                     24
                      A                      A                      A
 Frequencies --    592.7349               651.0833               698.0119
 Red. masses --      4.2061                 3.6579                 2.1966
 Frc consts  --      0.8707                 0.9136                 0.6306
 IR Inten    --      7.2284                43.3056               117.6426

                     25                     26                     27
                      A                      A                      A
 Frequencies --    728.4542               777.6340               823.1605
 Red. masses --      5.2804                 2.7725                 2.6695
 Frc consts  --      1.6509                 0.9878                 1.0657
 IR Inten    --     11.8195                14.2435                 3.2314

                     28                     29                     30
                      A                      A                      A
 Frequencies --    912.6826               928.7470               942.1199
 Red. masses --      1.7346                 1.4555                 1.3181
 Frc consts  --      0.8513                 0.7397                 0.6893
 IR Inten    --      0.5252                 5.5609                 1.0121

                     31                     32                     33
                      A                      A                      A
 Frequencies --    952.2370               962.0635               981.7178
 Red. masses --      1.8086                 2.0401                 1.5704
 Frc consts  --      0.9663                 1.1125                 0.8917
 IR Inten    --     15.1202                13.9617                 3.1077

                     34                     35                     36
                      A                      A                      A
 Frequencies --    993.3999              1008.5928              1028.3839
 Red. masses --      1.2111                 2.7968                 1.4635
 Frc consts  --      0.7042                 1.6762                 0.9119
 IR Inten    --      8.7614                35.1543                22.5914

                     37                     38                     39
                      A                      A                      A
 Frequencies --   1064.1141              1116.6635              1154.3560
 Red. masses --      2.8046                 5.4480                 2.2524
 Frc consts  --      1.8711                 4.0025                 1.7684
 IR Inten    --      5.0997               103.0562                 0.3751

                     40                     41                     42
                      A                      A                      A
 Frequencies --   1196.3283              1208.4583              1211.2104
 Red. masses --      1.1541                 2.0342                 1.7630
 Frc consts  --      0.9732                 1.7503                 1.5238
 IR Inten    --      0.9810                 0.4851                 0.4890

                     43                     44                     45
                      A                      A                      A
 Frequencies --   1246.9217              1296.6711              1314.8318
 Red. masses --      1.2006                 1.9655                 1.2011
 Frc consts  --      1.0998                 1.9471                 1.2234
 IR Inten    --      5.6585                76.5802                 3.3637

                     46                     47                     48
                      A                      A                      A
 Frequencies --   1336.0419              1343.1879              1394.3093
 Red. masses --      1.2712                 1.2784                 1.1646
 Frc consts  --      1.3369                 1.3589                 1.3339
 IR Inten    --     20.5214                 7.0835                 1.1547

                     49                     50                     51
                      A                      A                      A
 Frequencies --   1394.5522              1411.4463              1422.5012
 Red. masses --      1.2939                 1.3559                 2.1946
 Frc consts  --      1.4826                 1.5915                 2.6164
 IR Inten    --      8.2054                18.7404                87.3148

                     52                     53                     54
                      A                      A                      A
 Frequencies --   1431.0020              1442.6309              1451.3434
 Red. masses --      1.2962                 1.3156                 1.2394
 Frc consts  --      1.5639                 1.6132                 1.5382
 IR Inten    --      2.5859                15.7497                12.8452

                     55                     56                     57
                      A                      A                      A
 Frequencies --   1485.4935              1489.2493              1497.0764
 Red. masses --      1.0823                 1.0803                 1.0594
 Frc consts  --      1.4072                 1.4117                 1.3989
 IR Inten    --      8.5026                 5.3188                31.6512

                     58                     59                     60
                      A                      A                      A
 Frequencies --   1504.8446              1515.7453              1519.5388
 Red. masses --      1.0912                 1.0515                 1.0539
 Frc consts  --      1.4559                 1.4234                 1.4337
 IR Inten    --      1.3426                11.0896                 1.1296

                     61                     62                     63
                      A                      A                      A
 Frequencies --   1525.5753              1535.2851              1545.3772
 Red. masses --      1.0483                 1.0571                 1.0488
 Frc consts  --      1.4375                 1.4680                 1.4758
 IR Inten    --      3.1285                 4.8533                16.6240

                     64                     65                     66
                      A                      A                      A
 Frequencies --   1790.1539              3033.8183              3034.9783
 Red. masses --      9.2556                 1.0835                 1.0714
 Frc consts  --     17.4757                 5.8756                 5.8142
 IR Inten    --    240.3037                 9.6860                17.1789

                     67                     68                     69
                      A                      A                      A
 Frequencies --   3042.1295              3047.7673              3055.7729
 Red. masses --      1.0369                 1.0379                 1.0548
 Frc consts  --      5.6536                 5.6804                 5.8029
 IR Inten    --     20.8126                24.0981                29.2995

                     70                     71                     72
                      A                      A                      A
 Frequencies --   3067.1488              3088.4393              3103.7503
 Red. masses --      1.0309                 1.0593                 1.1044
 Frc consts  --      5.7137                 5.9530                 6.2683
 IR Inten    --     22.5525                17.3148                 3.6503

                     73                     74                     75
                      A                      A                      A
 Frequencies --   3110.2722              3115.6927              3120.0560
 Red. masses --      1.1056                 1.1034                 1.1017
 Frc consts  --      6.3014                 6.3111                 6.3191
 IR Inten    --     23.4794                43.6925                41.7969

                     76                     77                     78
                      A                      A                      A
 Frequencies --   3121.3543              3123.6378              3141.5029
 Red. masses --      1.1014                 1.0909                 1.1051
 Frc consts  --      6.3226                 6.2711                 6.4260
 IR Inten    --     55.7507                 1.1897                 3.7615

                     79                     80                     81
                      A                      A                      A
 Frequencies --   3145.9163              3170.4595              3548.4100
 Red. masses --      1.1049                 1.1062                 1.0772
 Frc consts  --      6.4425                 6.5511                 7.9913
 IR Inten    --     16.5636                 4.7605                14.3387

 - Thermochemistry -
 -------------------
 Temperature   298.150 Kelvin.  Pressure   1.00000 Atm.
 Atom     1 has atomic number  6 and mass  12.00000

 Molecular mass:   191.09800 amu.
 Principal axes and moments of inertia in atomic units:
                           1         2         3
     Eigenvalues --   990.746916098.502166374.24613
           X            0.99997  -0.00730   0.00129
           Y            0.00741   0.99178  -0.12773
           Z           -0.00035   0.12774   0.99181
 This molecule is an asymmetric top.
 Rotational symmetry number  1.
 Warning -- assumption of classical behavior for rotation
           may cause significant error
 Rotational temperatures (Kelvin)      0.08742     0.01420     0.01359
 Rotational constants (GHZ):           1.82160     0.29593     0.28313
 Zero-point vibrational energy     658730.5 (Joules/Mol)
                                  157.44036 (Kcal/Mol)
 Warning -- explicit consideration of  22 degrees of freedom as
           vibrations may cause significant error
 Vibrational temperatures:     17.81    41.25    63.44    78.67    89.75
          (Kelvin)            158.16   213.47   248.04   289.71   319.64
                              330.61   381.31   392.99   403.59   470.35
                              543.76   576.79   605.49   708.42   768.23
                              829.22   852.81   936.76  1004.28  1048.08
                             1118.84  1184.34  1313.15  1336.26  1355.50
                             1370.06  1384.19  1412.47  1429.28  1451.14
                             1479.62  1531.02  1606.63  1660.86  1721.25
                             1738.70  1742.66  1794.04  1865.62  1891.75
                             1922.27  1932.55  2006.10  2006.45  2030.76
                             2046.66  2058.89  2075.62  2088.16  2137.29
                             2142.70  2153.96  2165.14  2180.82  2186.28
                             2194.96  2208.93  2223.45  2575.63  4364.99
                             4366.66  4376.95  4385.06  4396.58  4412.94
                             4443.58  4465.60  4474.99  4482.79  4489.06
                             4490.93  4494.22  4519.92  4526.27  4561.58
                             5105.37

 Zero-point correction=                           0.250897 (Hartree/Particle)
 Thermal correction to Energy=                    0.266179
 Thermal correction to Enthalpy=                  0.267123
 Thermal correction to Gibbs Free Energy=         0.205505
 Sum of electronic and zero-point Energies=           -918.229072
 Sum of electronic and thermal Energies=              -918.213790
 Sum of electronic and thermal Enthalpies=            -918.212846
 Sum of electronic and thermal Free Energies=         -918.274464

                     E (Thermal)             CV                S
                      KCal/Mol        Cal/Mol-Kelvin    Cal/Mol-Kelvin
 Total                  167.030             53.883            129.686
 Electronic               0.000              0.000              0.000
 Translational            0.889              2.981             41.648
 Rotational               0.889              2.981             32.021
 Vibrational            165.252             47.921             56.017
 Vibration     1          0.593              1.987              7.587
 Vibration     2          0.593              1.984              5.920
 Vibration     3          0.595              1.980              5.066
 Vibration     4          0.596              1.976              4.641
 Vibration     5          0.597              1.972              4.381
 Vibration     6          0.606              1.941              3.270
 Vibration     7          0.618              1.904              2.693
 Vibration     8          0.626              1.876              2.409
 Vibration     9          0.638              1.838              2.121
 Vibration    10          0.648              1.807              1.941
 Vibration    11          0.652              1.796              1.881
 Vibration    12          0.671              1.737              1.628
 Vibration    13          0.676              1.723              1.576
 Vibration    14          0.680              1.710              1.531
 Vibration    15          0.711              1.622              1.275
 Vibration    16          0.748              1.517              1.047
 Vibration    17          0.767              1.468              0.959
 Vibration    18          0.783              1.425              0.889
 Vibration    19          0.848              1.267              0.677
 Vibration    20          0.889              1.175              0.578
 Vibration    21          0.933              1.082              0.492
 Vibration    22          0.950              1.047              0.462

 Optimization completed.
    -- Stationary point found.
 Normal termination of Gaussian 16 at Wed Dec  9 16:57:40 2020.

 ----------------------------------------------------------------------
 # B3LYP/6-311++G(d,p) empiricaldispersion=gd3bj scf=xqc pop=npa geom=c
 heck
 ----------------------------------------------------------------------

 ---------------------------------------
 CID_115410018_JID_2081_Energie_neutraal
 ---------------------------------------
 Structure from the checkpoint file:  "JID_2081.chk"
 Charge =  0 Multiplicity = 1

 SCF Done:  E(RB3LYP) =  -918.663757905     A.U. after   14 cycles
 Normal termination of Gaussian 16 at Wed Dec  9 17:00:31 2020.

 ----------------------------------------------------------------------
 # B3LYP/6-311++G(d,p) empiricaldispersion=gd3bj scf=xqc pop=npa geom=c
 heck
 ----------------------------------------------------------------------

 -------------------------------------
 CID_115410018_JID_2081_Energie_kation
 -------------------------------------
 Structure from the checkpoint file:  "JID_2081.chk"
 Charge =  1 Multiplicity = 2

 SCF Done:  E(UB3LYP) =  -918.360037909     A.U. after   22 cycles
 Normal termination of Gaussian 16 at Wed Dec  9 17:05:55 2020.
 Gaussian 16:  ES64L-G16RevA.03 25-Dec-2016

 ----------------------------------------------------------------------
 # B3LYP/6-311++G(d,p) empiricaldispersion=gd3bj scf=xqc pop=npa geom=c
 heck
 ----------------------------------------------------------------------

 ------------------------------------
 CID_115410018_JID_2081_Energie_anion
 ------------------------------------
 Structure from the checkpoint file:  "JID_2081.chk"
 Charge = -1 Multiplicity = 2

                         Standard orientation:
 ---------------------------------------------------------------------
 Center     Atomic      Atomic             Coordinates (Angstroms)
 Number     Number       Type             X           Y           Z
 ---------------------------------------------------------------------
      1          6           0        3.771407    1.242837   -0.219020
      2          6           0        3.612744   -0.250011   -0.527681
      3          6           0        4.752460   -1.071868    0.088991
      4          6           0        2.274694   -0.806076   -0.040024
      5          8           0        1.139462   -0.139929   -0.633040
      6          7           0        0.619199    0.848076    0.214988
      7          6           0       -0.678406    0.696605    0.676744
      8          8           0       -1.286375    1.678783    1.075526
      9          6           0       -1.200020   -0.728873    0.751037
     10          6           0       -2.706548   -0.786564    1.009142
     11         16           0       -3.753458   -0.773435   -0.496412
     12          6           0       -3.349562    0.856621   -1.217422
     13          1           0        3.663027    1.439613    0.854633
     14          1           0        3.027366    1.842402   -0.753694
     15          1           0        4.760495    1.598144   -0.528304
     16          1           0        3.639868   -0.380276   -1.618566
     17          1           0        4.768860   -0.961804    1.180724
     18          1           0        4.651111   -2.139293   -0.139585
     19          1           0        5.722936   -0.737807   -0.292669
     20          1           0        2.171163   -1.856436   -0.335076
     21          1           0        2.191553   -0.736704    1.050462
     22          1           0        0.848008    1.785823   -0.102547
     23          1           0       -0.926399   -1.273585   -0.156380
     24          1           0       -0.660823   -1.216325    1.576579
     25          1           0       -2.966096   -1.729930    1.497859
     26          1           0       -3.003403    0.033156    1.668283
     27          1           0       -3.455500    1.649637   -0.474859
     28          1           0       -2.336091    0.877635   -1.627506
     29          1           0       -4.060446    1.017320   -2.032161
 ---------------------------------------------------------------------

 SCF Done:  E(UB3LYP) =  -918.652387348     A.U. after   33 cycles
 SCF Done:  E(UB3LYP) =  -918.652387348     a.u. after    1 cycles

 The electronic state is 2-A.
 Alpha  occ. eigenvalues --  -88.74953 -19.07681 -19.00848 -14.28814 -10.18671
 Alpha  occ. eigenvalues --  -10.11974 -10.10898 -10.10361 -10.09018 -10.07881
 Alpha  occ. eigenvalues --  -10.06172 -10.05959  -7.83550  -5.79960  -5.79585
 Alpha  occ. eigenvalues --   -5.78904  -1.00631  -0.94989  -0.77285  -0.72332
 Alpha  occ. eigenvalues --   -0.70210  -0.66435  -0.59709  -0.58851  -0.57840
 Alpha  occ. eigenvalues --   -0.51780  -0.47938  -0.46929  -0.44554  -0.41037
 Alpha  occ. eigenvalues --   -0.39383  -0.37090  -0.36321  -0.35105  -0.34641
 Alpha  occ. eigenvalues --   -0.33314  -0.32862  -0.31842  -0.30736  -0.29255
 Alpha  occ. eigenvalues --   -0.28928  -0.28370  -0.27471  -0.27078  -0.25843
 Alpha  occ. eigenvalues --   -0.24494  -0.23272  -0.22068  -0.19835  -0.17957
 Alpha  occ. eigenvalues --   -0.16856  -0.13609   0.04314
 Alpha virt. eigenvalues --    0.06372   0.06716   0.07908   0.08372   0.08536
 Alpha virt. eigenvalues --    0.08656   0.09767   0.10378   0.10733   0.10943
 Alpha virt. eigenvalues --    0.11310   0.11773   0.12059   0.12521   0.13096

  Beta  occ. eigenvalues --  -88.74952 -19.07676 -19.00820 -14.28810 -10.18631
  Beta  occ. eigenvalues --  -10.11941 -10.10885 -10.10351 -10.08995 -10.07869
  Beta  occ. eigenvalues --  -10.06135 -10.05913  -7.83549  -5.79959  -5.79582
  Beta  occ. eigenvalues --   -5.78903  -1.00612  -0.94935  -0.77251  -0.72306
  Beta  occ. eigenvalues --   -0.70169  -0.66399  -0.59649  -0.58779  -0.57769
  Beta  occ. eigenvalues --   -0.51748  -0.47871  -0.46865  -0.44513  -0.40982
  Beta  occ. eigenvalues --   -0.39302  -0.37030  -0.36285  -0.35065  -0.34592
  Beta  occ. eigenvalues --   -0.33293  -0.32819  -0.31803  -0.30673  -0.29204
  Beta  occ. eigenvalues --   -0.28863  -0.28313  -0.27426  -0.27034  -0.25798
  Beta  occ. eigenvalues --   -0.24440  -0.23210  -0.22047  -0.19802  -0.17915
  Beta  occ. eigenvalues --   -0.16826  -0.13601
  Beta virt. eigenvalues --    0.06500   0.07073   0.07283   0.08487   0.08831
  Beta virt. eigenvalues --    0.08918   0.09339   0.09791   0.10900   0.11169
  Beta virt. eigenvalues --    0.11501   0.11602   0.11971   0.12350   0.12590

 Mulliken charges and spin densities:
               1          2
     1  C    1.182532  -1.814788
     2  C   -3.293433   3.626426
     3  C    1.404763  -1.975611
     4  C    2.256772  -2.604383
     5  O    0.087079  -0.006109
     6  N   -0.484817   0.203893
     7  C    0.005227  -0.146853
     8  O   -0.291093   0.014610
     9  C    0.124471  -0.067602
    10  C    0.206934  -0.828717
    11  S    0.055370   0.018137
    12  C   -0.485987  -0.194829
    13  H   -0.096034   0.265877
    14  H   -0.142711   0.246725
    15  H   -0.408257   0.561320
    16  H   -0.149837   0.317811
    17  H   -0.163754   0.301222
    18  H   -0.392327   0.527319
    19  H   -0.524103   0.683501
    20  H   -0.095491   0.270967
    21  H   -0.103698   0.263559
    22  H    0.239071   0.065362
    23  H    0.211821  -0.018560
    24  H   -0.551337   0.750976
    25  H   -0.132028   0.340712
    26  H    0.178270   0.014739
    27  H    0.182437   0.012915
    28  H    0.060340   0.125648
    29  H    0.119821   0.045734
 Sum of Mulliken charges =  -1.00000   1.00000

 Dipole moment (field-independent basis, Debye):
    X=             -7.7062    Y=              2.2957    Z=             -1.9342  Tot=              8.2702
 Quadrupole moment (field-independent basis, Debye-Ang):
   XX=           -184.0228   YY=           -123.5473   ZZ=           -114.6271
   XY=              1.4411   XZ=              4.8249   YZ=              0.3649

 Summary of Natural Population Analysis:

                                       Natural Population
                Natural  -----------------------------------------------
    Atom  No    Charge         Core      Valence    Rydberg      Total
 -----------------------------------------------------------------------
      C    1   -0.28602      0.99965     2.27996    0.00641     3.28602
      C    2   -0.12767      0.99962     2.11816    0.00989     3.12767
      C    3   -0.28573      0.99965     2.28009    0.00600     3.28573
      C    4   -0.00556      0.99954     1.99312    0.01290     3.00556
      O    5   -0.22025      0.99989     3.21138    0.00898     4.22025
      N    6   -0.16738      0.99963     2.65501    0.01274     3.66738
      C    7    0.34359      0.99968     1.63265    0.02407     2.65641
      O    8   -0.31608      0.99987     3.31025    0.00595     4.31608
      C    9   -0.25203      0.99957     2.24156    0.01090     3.25203
      C   10   -0.25245      0.99959     2.23970    0.01316     3.25245
      S   11    0.07983      4.99965     2.90208    0.01844     7.92017
      C   12   -0.35204      0.99962     2.34704    0.00537     3.35204
      H   13    0.09892      0.00000     0.39984    0.00125     0.40108
      H   14    0.09480      0.00000     0.40362    0.00158     0.40520
      H   15    0.10307      0.00000     0.39560    0.00133     0.39693
      H   16    0.09505      0.00000     0.40316    0.00179     0.40495
      H   17    0.09817      0.00000     0.40036    0.00147     0.40183
      H   18    0.10178      0.00000     0.39650    0.00172     0.39822
      H   19    0.10321      0.00000     0.39518    0.00161     0.39679
      H   20    0.09331      0.00000     0.40479    0.00190     0.40669
      H   21    0.09008      0.00000     0.40758    0.00234     0.40992
      H   22    0.18690      0.00000     0.31067    0.00243     0.31310
      H   23    0.11979      0.00000     0.37816    0.00205     0.38021
      H   24    0.12271      0.00000     0.37409    0.00321     0.37729
      H   25    0.10910      0.00000     0.38964    0.00126     0.39090
      H   26    0.11063      0.00000     0.38783    0.00154     0.38937
      H   27    0.10994      0.00000     0.38873    0.00133     0.39006
      H   28    0.10158      0.00000     0.39683    0.00158     0.39842
      H   29    0.10273      0.00000     0.39629    0.00098     0.39727
 =======================================================================
   * Total *   -0.00000     15.99595    35.83987    0.16417    52.00000

 Normal termination of Gaussian 16 at Wed Dec  9 17:13:48 2020.
