 Gaussian 16, Revision A.03,

 -----------------------------------------------------------
 # opt freq B3LYP/6-31G(d) empiricaldispersion=gd3bj scf=xqc
 -----------------------------------------------------------

 -------------------------------
 CID_121778593_JID_8399_neutraal
 -------------------------------
 Symbolic Z-matrix:
 Charge =  0 Multiplicity = 1

 SCF Done:  E(RB3LYP) =  -1223.77893984     A.U. after   14 cycles
 SCF Done:  E(RB3LYP) =  -1223.78547346     A.U. after   12 cycles
 SCF Done:  E(RB3LYP) =  -1223.78750963     A.U. after   13 cycles
 SCF Done:  E(RB3LYP) =  -1223.78831005     A.U. after   12 cycles
 SCF Done:  E(RB3LYP) =  -1223.78918389     A.U. after   13 cycles
 SCF Done:  E(RB3LYP) =  -1223.78955437     A.U. after   12 cycles
 SCF Done:  E(RB3LYP) =  -1223.78994425     A.U. after   13 cycles
 SCF Done:  E(RB3LYP) =  -1223.79019118     A.U. after   13 cycles
 SCF Done:  E(RB3LYP) =  -1223.79056110     A.U. after   12 cycles
 SCF Done:  E(RB3LYP) =  -1223.79087825     A.U. after   13 cycles
 SCF Done:  E(RB3LYP) =  -1223.79591691     A.U. after    9 cycles
 SCF Done:  E(RB3LYP) =  -1223.79592006     A.U. after    8 cycles
 SCF Done:  E(RB3LYP) =  -1223.79592721     A.U. after   10 cycles
 SCF Done:  E(RB3LYP) =  -1223.79592760     A.U. after    7 cycles
 SCF Done:  E(RB3LYP) =  -1223.79592764     A.U. after    7 cycles
 Optimization completed.
    -- Stationary point found.
 Normal termination of Gaussian 16 at Mon Dec 14 17:48:06 2020.

 --------------------------------------------------------------------
 #N Geom=AllCheck Guess=TCheck SCRF=Check GenChk RB3LYP/6-31G(d) Freq
 --------------------------------------------------------------------

 Structure from the checkpoint file:  "JID_8399.chk"
 -------------------------------
 CID_121778593_JID_8399_neutraal
 -------------------------------
 Charge =  0 Multiplicity = 1

 SCF Done:  E(RB3LYP) =  -1223.79592764     A.U. after    1 cycles

  Exact polarizability: 189.021   2.615 134.478  -3.071  -0.851 135.149
 Approx polarizability: 228.196   1.674 210.491  -3.472   1.305 221.330

                      1                      2                      3
                      A                      A                      A
 Frequencies --     27.0737                28.1324                41.1109
 Red. masses --      5.0144                 5.4465                 5.1988
 Frc consts  --      0.0022                 0.0025                 0.0052
 IR Inten    --      1.4566                 0.5074                 0.3772

                      4                      5                      6
                      A                      A                      A
 Frequencies --     54.8320                72.6396               108.6322
 Red. masses --      4.2209                 7.5306                 3.8282
 Frc consts  --      0.0075                 0.0234                 0.0266
 IR Inten    --      0.1618                 1.3974                 4.1853

                      7                      8                      9
                      A                      A                      A
 Frequencies --    119.7786               142.9980               170.2844
 Red. masses --      4.4513                 2.4999                 3.9993
 Frc consts  --      0.0376                 0.0301                 0.0683
 IR Inten    --      5.0307                 0.6915                 3.2773

                     10                     11                     12
                      A                      A                      A
 Frequencies --    187.9630               224.8319               243.0770
 Red. masses --      4.4213                 3.1260                 3.5085
 Frc consts  --      0.0920                 0.0931                 0.1221
 IR Inten    --      1.3056                 1.7574                 1.3826

                     13                     14                     15
                      A                      A                      A
 Frequencies --    259.8250               280.9642               297.5824
 Red. masses --      4.3302                 5.6976                 2.1658
 Frc consts  --      0.1722                 0.2650                 0.1130
 IR Inten    --      2.2130                 1.9244                 1.1053

                     16                     17                     18
                      A                      A                      A
 Frequencies --    336.0866               366.2093               406.0088
 Red. masses --      2.7031                 1.7700                 4.1352
 Frc consts  --      0.1799                 0.1399                 0.4016
 IR Inten    --      3.8764                 1.3279                10.0975

                     19                     20                     21
                      A                      A                      A
 Frequencies --    416.6275               435.9052               458.1351
 Red. masses --      2.2868                 2.8879                 1.8858
 Frc consts  --      0.2339                 0.3233                 0.2332
 IR Inten    --      0.2705                 1.0445                 5.3137

                     22                     23                     24
                      A                      A                      A
 Frequencies --    474.0946               511.3382               549.2947
 Red. masses --      4.1363                 4.0370                 3.8517
 Frc consts  --      0.5478                 0.6219                 0.6847
 IR Inten    --     20.4795                50.3426                 0.0418

                     25                     26                     27
                      A                      A                      A
 Frequencies --    572.2533               588.0731               658.2574
 Red. masses --      3.1751                 4.1240                 3.8971
 Frc consts  --      0.6126                 0.8403                 0.9949
 IR Inten    --     51.8554                41.5435                45.6071

                     28                     29                     30
                      A                      A                      A
 Frequencies --    670.7660               672.7853               758.8102
 Red. masses --      2.1074                 2.2779                 1.9413
 Frc consts  --      0.5586                 0.6075                 0.6586
 IR Inten    --     35.3347                39.1766                56.3042

                     31                     32                     33
                      A                      A                      A
 Frequencies --    762.3944               770.8934               782.9872
 Red. masses --      3.4232                 2.1511                 3.0258
 Frc consts  --      1.1723                 0.7532                 1.0929
 IR Inten    --      1.1485                50.7476                11.2219

                     34                     35                     36
                      A                      A                      A
 Frequencies --    793.7911               812.8352               836.1580
 Red. masses --      3.3486                 1.1872                 1.9809
 Frc consts  --      1.2432                 0.4621                 0.8160
 IR Inten    --     16.0622                 0.1940                 0.9156

                     37                     38                     39
                      A                      A                      A
 Frequencies --    852.3439               858.7137               875.1744
 Red. masses --      3.3932                 2.0731                 1.8333
 Frc consts  --      1.4524                 0.9007                 0.8273
 IR Inten    --     10.6516                11.3699                 0.4537

                     40                     41                     42
                      A                      A                      A
 Frequencies --    877.8146               935.3344               945.0660
 Red. masses --      2.3699                 2.5871                 1.6762
 Frc consts  --      1.0759                 1.3335                 0.8821
 IR Inten    --     71.3008                 0.6603                57.0938

                     43                     44                     45
                      A                      A                      A
 Frequencies --    951.5483               967.7543               975.1687
 Red. masses --      1.8197                 2.0080                 1.7855
 Frc consts  --      0.9708                 1.1080                 1.0004
 IR Inten    --     44.2973                 0.7901                 0.6832

                     46                     47                     48
                      A                      A                      A
 Frequencies --    982.5223               986.1715              1014.5553
 Red. masses --      2.1402                 2.4908                 1.8383
 Frc consts  --      1.2173                 1.4272                 1.1149
 IR Inten    --     12.1173                 1.0122                 0.6108

                     49                     50                     51
                      A                      A                      A
 Frequencies --   1040.8245              1061.5486              1064.9013
 Red. masses --      2.2167                 1.4178                 1.9717
 Frc consts  --      1.4149                 0.9413                 1.3174
 IR Inten    --      9.7249                 2.8183                 4.8795

                     52                     53                     54
                      A                      A                      A
 Frequencies --   1085.5942              1103.3396              1120.4396
 Red. masses --      2.2671                 3.6311                 2.4737
 Frc consts  --      1.5742                 2.6044                 1.8296
 IR Inten    --     70.5989                86.2540                62.2167

                     55                     56                     57
                      A                      A                      A
 Frequencies --   1134.8617              1153.2846              1166.0593
 Red. masses --      2.4997                 1.0837                 2.0329
 Frc consts  --      1.8968                 0.8492                 1.6286
 IR Inten    --     55.4275                 3.7207                 0.4932

                     58                     59                     60
                      A                      A                      A
 Frequencies --   1176.0916              1188.0619              1227.9349
 Red. masses --      1.7254                 1.2670                 1.5487
 Frc consts  --      1.4061                 1.0537                 1.3759
 IR Inten    --    164.3170                15.6646                 1.2748

                     61                     62                     63
                      A                      A                      A
 Frequencies --   1235.5139              1239.3150              1256.5808
 Red. masses --      1.4959                 1.2576                 1.4464
 Frc consts  --      1.3454                 1.1380                 1.3456
 IR Inten    --     31.7088                20.3216               126.7860

                     64                     65                     66
                      A                      A                      A
 Frequencies --   1258.1656              1273.6005              1291.1333
 Red. masses --      1.5968                 1.4080                 1.5788
 Frc consts  --      1.4893                 1.3456                 1.5507
 IR Inten    --      8.8749                29.9268                14.4168

                     67                     68                     69
                      A                      A                      A
 Frequencies --   1306.6113              1308.1499              1318.9651
 Red. masses --      1.7929                 1.3582                 1.4849
 Frc consts  --      1.8034                 1.3694                 1.5220
 IR Inten    --     48.1732                 2.5486                20.4032

                     70                     71                     72
                      A                      A                      A
 Frequencies --   1320.3126              1334.5623              1346.8282
 Red. masses --      1.3734                 1.6876                 1.6400
 Frc consts  --      1.4106                 1.7709                 1.7528
 IR Inten    --     14.9294                 8.0992                14.3627

                     73                     74                     75
                      A                      A                      A
 Frequencies --   1360.9138              1361.1516              1366.8927
 Red. masses --      1.5000                 1.5983                 1.3307
 Frc consts  --      1.6368                 1.7447                 1.4649
 IR Inten    --      0.8260                 1.4554                 6.3899

                     76                     77                     78
                      A                      A                      A
 Frequencies --   1379.9841              1385.7436              1408.3214
 Red. masses --      1.5144                 1.6949                 1.3065
 Frc consts  --      1.6992                 1.9176                 1.5267
 IR Inten    --     29.4348                 4.9894                 4.9768

                     79                     80                     81
                      A                      A                      A
 Frequencies --   1437.6497              1468.3374              1480.0089
 Red. masses --      1.8210                 1.1768                 1.1151
 Frc consts  --      2.2176                 1.4949                 1.4391
 IR Inten    --     70.8505                54.7742                16.5041

                     82                     83                     84
                      A                      A                      A
 Frequencies --   1506.5719              1511.1880              1522.0490
 Red. masses --      1.0793                 1.0788                 1.0825
 Frc consts  --      1.4434                 1.4515                 1.4776
 IR Inten    --      3.2163                 0.5638                 5.5517

                     85                     86                     87
                      A                      A                      A
 Frequencies --   1524.6563              1527.8258              1530.1946
 Red. masses --      1.0855                 1.0947                 1.0972
 Frc consts  --      1.4867                 1.5055                 1.5136
 IR Inten    --      1.1070                 3.7495                 3.5630

                     88                     89                     90
                      A                      A                      A
 Frequencies --   1532.2020              1557.5898              1810.6251
 Red. masses --      1.1273                 1.1073                 8.6515
 Frc consts  --      1.5592                 1.5828                16.7109
 IR Inten    --      7.5662                 0.1128               274.4613

                     91                     92                     93
                      A                      A                      A
 Frequencies --   3050.1807              3058.3998              3061.4254
 Red. masses --      1.0609                 1.0658                 1.0601
 Frc consts  --      5.8151                 5.8737                 5.8537
 IR Inten    --     26.5703                26.4810                44.5482

                     94                     95                     96
                      A                      A                      A
 Frequencies --   3062.9367              3066.6171              3072.2951
 Red. masses --      1.0642                 1.0632                 1.0596
 Frc consts  --      5.8822                 5.8907                 5.8927
 IR Inten    --     26.7516                42.9135                16.3652

                     97                     98                     99
                      A                      A                      A
 Frequencies --   3080.2198              3088.4959              3088.7240
 Red. masses --      1.0733                 1.0623                 1.1030
 Frc consts  --      5.9997                 5.9700                 6.1999
 IR Inten    --     18.7042                14.2002                 8.8122

                    100                    101                    102
                      A                      A                      A
 Frequencies --   3091.0533              3100.2852              3108.6585
 Red. masses --      1.0624                 1.1041                 1.0927
 Frc consts  --      5.9809                 6.2525                 6.2213
 IR Inten    --     17.4311                15.7832                47.5485

                    103                    104                    105
                      A                      A                      A
 Frequencies --   3111.6009              3117.1995              3124.9053
 Red. masses --      1.1005                 1.0963                 1.1054
 Frc consts  --      6.2777                 6.2762                 6.3596
 IR Inten    --     72.8204                12.8438                 5.3922

                    106                    107                    108
                      A                      A                      A
 Frequencies --   3142.7164              3145.5166              3146.9165
 Red. masses --      1.1049                 1.1055                 1.0984
 Frc consts  --      6.4294                 6.4444                 6.4086
 IR Inten    --     14.7221                 5.5057                 3.8632

                    109                    110                    111
                      A                      A                      A
 Frequencies --   3150.7128              3457.6940              3672.3912
 Red. masses --      1.0971                 1.0749                 1.0638
 Frc consts  --      6.4169                 7.5714                 8.4527
 IR Inten    --     31.8050               163.5053                49.5175

 - Thermochemistry -
 -------------------
 Temperature   298.150 Kelvin.  Pressure   1.00000 Atm.
 Atom     1 has atomic number  6 and mass  12.00000

 Molecular mass:   275.11913 amu.
 Principal axes and moments of inertia in atomic units:
                           1         2         3
     Eigenvalues --  1855.47269********************
           X            0.99996  -0.00365  -0.00828
           Y            0.00250   0.99083  -0.13508
           Z            0.00870   0.13505   0.99080
 This molecule is an asymmetric top.
 Rotational symmetry number  1.
 Warning -- assumption of classical behavior for rotation
           may cause significant error
 Rotational temperatures (Kelvin)      0.04668     0.00860     0.00846
 Rotational constants (GHZ):           0.97266     0.17919     0.17630
 Zero-point vibrational energy     884035.1 (Joules/Mol)
                                  211.28946 (Kcal/Mol)
 Warning -- explicit consideration of  26 degrees of freedom as
           vibrations may cause significant error
 Vibrational temperatures:     38.95    40.48    59.15    78.89   104.51
          (Kelvin)            156.30   172.33   205.74   245.00   270.44
                              323.48   349.73   373.83   404.24   428.15
                              483.55   526.89   584.16   599.43   627.17
                              659.15   682.12   735.70   790.31   823.34
                              846.11   947.09   965.08   967.99  1091.76
                             1096.92  1109.14  1126.54  1142.09  1169.49
                             1203.04  1226.33  1235.50  1259.18  1262.98
                             1345.74  1359.74  1369.07  1392.38  1403.05
                             1413.63  1418.88  1459.72  1497.51  1527.33
                             1532.16  1561.93  1587.46  1612.06  1632.81
                             1659.32  1677.70  1692.13  1709.36  1766.72
                             1777.63  1783.10  1807.94  1810.22  1832.43
                             1857.65  1879.92  1882.14  1897.70  1899.64
                             1920.14  1937.79  1958.05  1958.39  1966.65
                             1985.49  1993.78  2026.26  2068.46  2112.61
                             2129.40  2167.62  2174.26  2189.89  2193.64
                             2198.20  2201.61  2204.50  2241.02  2605.09
                             4388.53  4400.36  4404.71  4406.88  4412.18
                             4420.35  4431.75  4443.66  4443.98  4447.34
                             4460.62  4472.67  4476.90  4484.95  4496.04
                             4521.67  4525.70  4527.71  4533.17  4974.85
                             5283.75

 Zero-point correction=                           0.336711 (Hartree/Particle)
 Thermal correction to Energy=                    0.354291
 Thermal correction to Enthalpy=                  0.355235
 Thermal correction to Gibbs Free Energy=         0.289471
 Sum of electronic and zero-point Energies=          -1223.459216
 Sum of electronic and thermal Energies=             -1223.441637
 Sum of electronic and thermal Enthalpies=           -1223.440693
 Sum of electronic and thermal Free Energies=        -1223.506457

                     E (Thermal)             CV                S
                      KCal/Mol        Cal/Mol-Kelvin    Cal/Mol-Kelvin
 Total                  222.321             68.040            138.412
 Electronic               0.000              0.000              0.000
 Translational            0.889              2.981             42.735
 Rotational               0.889              2.981             33.614
 Vibrational            220.543             62.078             62.064
 Vibration     1          0.593              1.984              6.033
 Vibration     2          0.593              1.984              5.957
 Vibration     3          0.594              1.981              5.205
 Vibration     4          0.596              1.976              4.635
 Vibration     5          0.599              1.967              4.081
 Vibration     6          0.606              1.942              3.293
 Vibration     7          0.609              1.933              3.104
 Vibration     8          0.616              1.910              2.763
 Vibration     9          0.625              1.879              2.432
 Vibration    10          0.633              1.856              2.248
 Vibration    11          0.649              1.803              1.920
 Vibration    12          0.659              1.774              1.780
 Vibration    13          0.668              1.746              1.663
 Vibration    14          0.681              1.709              1.528
 Vibration    15          0.691              1.678              1.430
 Vibration    16          0.717              1.603              1.231
 Vibration    17          0.739              1.542              1.096
 Vibration    18          0.771              1.457              0.941
 Vibration    19          0.780              1.434              0.904
 Vibration    20          0.796              1.392              0.840
 Vibration    21          0.816              1.343              0.772
 Vibration    22          0.831              1.308              0.726
 Vibration    23          0.866              1.225              0.630
 Vibration    24          0.905              1.141              0.546
 Vibration    25          0.928              1.091              0.500
 Vibration    26          0.945              1.057              0.471

 Optimization completed.
    -- Stationary point found.
 Normal termination of Gaussian 16 at Mon Dec 14 18:08:49 2020.

 ----------------------------------------------------------------------
 # B3LYP/6-311++G(d,p) empiricaldispersion=gd3bj scf=xqc pop=npa geom=c
 heck
 ----------------------------------------------------------------------

 ---------------------------------------
 CID_121778593_JID_8399_Energie_neutraal
 ---------------------------------------
 Structure from the checkpoint file:  "JID_8399.chk"
 Charge =  0 Multiplicity = 1

 SCF Done:  E(RB3LYP) =  -1224.06726093     A.U. after   15 cycles
 Normal termination of Gaussian 16 at Mon Dec 14 18:18:41 2020.

 ----------------------------------------------------------------------
 # B3LYP/6-311++G(d,p) empiricaldispersion=gd3bj scf=xqc pop=npa geom=c
 heck
 ----------------------------------------------------------------------

 -------------------------------------
 CID_121778593_JID_8399_Energie_kation
 -------------------------------------
 Structure from the checkpoint file:  "JID_8399.chk"
 Charge =  1 Multiplicity = 2

 SCF Done:  E(UB3LYP) =  -1223.73424698     A.U. after   27 cycles
 Normal termination of Gaussian 16 at Mon Dec 14 18:43:54 2020.
 Gaussian 16:  ES64L-G16RevA.03 25-Dec-2016

 ----------------------------------------------------------------------
 # B3LYP/6-311++G(d,p) empiricaldispersion=gd3bj scf=xqc pop=npa geom=c
 heck
 ----------------------------------------------------------------------

 ------------------------------------
 CID_121778593_JID_8399_Energie_anion
 ------------------------------------
 Structure from the checkpoint file:  "JID_8399.chk"
 Charge = -1 Multiplicity = 2

                         Standard orientation:
 ---------------------------------------------------------------------
 Center     Atomic      Atomic             Coordinates (Angstroms)
 Number     Number       Type             X           Y           Z
 ---------------------------------------------------------------------
      1          6           0        3.424562   -1.777148    0.626148
      2          6           0        2.137450   -1.328285   -0.132959
      3          6           0        2.415629    0.163177   -0.447228
      4          6           0        3.525959    0.208945   -1.534952
      5          6           0        4.809960   -0.230289   -0.768238
      6          6           0        4.286256   -0.495761    0.658839
      7          6           0        3.211104    0.597703    0.806960
      8          6           0        1.233844    1.024019   -0.866930
      9         16           0       -0.228462    1.026369    0.207737
     10          8           0        0.158424    0.851692    1.615485
     11          8           0       -1.024161    2.200079   -0.197015
     12          7           0       -1.014998   -0.388802   -0.259908
     13          6           0       -1.735160   -1.135262    0.783649
     14          6           0       -2.885364   -0.390163    1.483544
     15          6           0       -3.804453    0.430906    0.548854
     16          6           0       -4.294519   -0.365016   -0.632752
     17          8           0       -3.609030   -0.698951   -1.584579
     18          8           0       -5.594389   -0.715007   -0.538820
     19          1           0        3.178534   -2.104280    1.641912
     20          1           0        3.942398   -2.605940    0.131515
     21          1           0        1.948193   -1.904449   -1.044604
     22          1           0        1.257867   -1.431643    0.503525
     23          1           0        3.283648   -0.445665   -2.379169
     24          1           0        3.631855    1.225637   -1.931712
     25          1           0        5.279841   -1.116840   -1.206954
     26          1           0        5.557333    0.570433   -0.767358
     27          1           0        5.068576   -0.508051    1.422483
     28          1           0        3.611570    1.615101    0.718937
     29          1           0        2.623039    0.523856    1.724194
     30          1           0        1.519881    2.080008   -0.913818
     31          1           0        0.848922    0.738566   -1.852001
     32          1           0       -1.631068   -0.209650   -1.056878
     33          1           0       -2.108615   -2.029132    0.276103
     34          1           0       -1.009036   -1.459550    1.532499
     35          1           0       -3.480392   -1.126074    2.038546
     36          1           0       -2.466014    0.305855    2.216207
     37          1           0       -4.656237    0.811830    1.116646
     38          1           0       -3.240195    1.282831    0.156898
     39          1           0       -5.798086   -1.232592   -1.341585
 ---------------------------------------------------------------------

 SCF Done:  E(UB3LYP) =  -1224.05816285     A.U. after   33 cycles
 SCF Done:  E(UB3LYP) =  -1224.05816285     a.u. after    1 cycles

 The electronic state is 2-A.
 Alpha  occ. eigenvalues --  -88.97349 -19.08411 -19.03299 -19.03086 -19.02820
 Alpha  occ. eigenvalues --  -14.24881 -10.22440 -10.12574 -10.12488 -10.10726
 Alpha  occ. eigenvalues --  -10.09907 -10.09673 -10.08567 -10.08474 -10.07957
 Alpha  occ. eigenvalues --  -10.07790 -10.07712 -10.07476  -8.03575  -5.99855
 Alpha  occ. eigenvalues --   -5.99826  -5.99636  -1.02956  -1.02649  -0.93640
 Alpha  occ. eigenvalues --   -0.91973  -0.83817  -0.79604  -0.72019  -0.70107
 Alpha  occ. eigenvalues --   -0.65806  -0.64273  -0.61924  -0.60901  -0.56333
 Alpha  occ. eigenvalues --   -0.53234  -0.52049  -0.49381  -0.47373  -0.45426
 Alpha  occ. eigenvalues --   -0.44719  -0.42031  -0.41545  -0.41147  -0.40577
 Alpha  occ. eigenvalues --   -0.38970  -0.38564  -0.38358  -0.37780  -0.36390
 Alpha  occ. eigenvalues --   -0.35953  -0.35023  -0.33597  -0.31676  -0.31377
 Alpha  occ. eigenvalues --   -0.30852  -0.29542  -0.28273  -0.27804  -0.27496
 Alpha  occ. eigenvalues --   -0.27360  -0.26834  -0.26384  -0.25620  -0.25215
 Alpha  occ. eigenvalues --   -0.24345  -0.24084  -0.23475  -0.22399  -0.22057
 Alpha  occ. eigenvalues --   -0.21748  -0.20645  -0.20311  -0.17906   0.03727
 Alpha virt. eigenvalues --    0.04932   0.06671   0.06822   0.06922   0.07516
 Alpha virt. eigenvalues --    0.08069   0.08517   0.09057   0.09337   0.09852
 Alpha virt. eigenvalues --    0.09931   0.10427   0.11276   0.11814   0.12308

  Beta  occ. eigenvalues --  -88.97349 -19.08341 -19.03275 -19.03079 -19.02815
  Beta  occ. eigenvalues --  -14.24878 -10.22432 -10.12564 -10.12474 -10.10728
  Beta  occ. eigenvalues --  -10.09890 -10.09660 -10.08561 -10.08457 -10.07938
  Beta  occ. eigenvalues --  -10.07778 -10.07700 -10.07463  -8.03574  -5.99853
  Beta  occ. eigenvalues --   -5.99825  -5.99636  -1.02943  -1.02561  -0.93564
  Beta  occ. eigenvalues --   -0.91961  -0.83805  -0.79589  -0.71989  -0.70083
  Beta  occ. eigenvalues --   -0.65777  -0.64233  -0.61892  -0.60868  -0.56276
  Beta  occ. eigenvalues --   -0.53178  -0.51996  -0.49310  -0.47347  -0.45397
  Beta  occ. eigenvalues --   -0.44689  -0.41985  -0.41525  -0.41112  -0.40549
  Beta  occ. eigenvalues --   -0.38942  -0.38531  -0.38327  -0.37752  -0.36350
  Beta  occ. eigenvalues --   -0.35935  -0.35003  -0.33566  -0.31621  -0.31353
  Beta  occ. eigenvalues --   -0.30827  -0.29516  -0.28245  -0.27778  -0.27470
  Beta  occ. eigenvalues --   -0.27336  -0.26813  -0.26367  -0.25600  -0.25190
  Beta  occ. eigenvalues --   -0.24324  -0.24013  -0.23461  -0.22383  -0.22041
  Beta  occ. eigenvalues --   -0.21726  -0.20608  -0.20278  -0.17889
  Beta virt. eigenvalues --    0.05563   0.06354   0.07018   0.07260   0.07511
  Beta virt. eigenvalues --    0.07876   0.08404   0.08766   0.09339   0.09514
  Beta virt. eigenvalues --    0.10094   0.10116   0.10490   0.11512   0.11925

 Mulliken charges and spin densities:
               1          2
     1  C    0.638176  -1.242843
     2  C   -0.984368   0.323390
     3  C    0.802211   0.435980
     4  C   -0.548686   0.050845
     5  C    0.951093  -1.556614
     6  C   -1.218455   1.633595
     7  C    0.234668  -0.997681
     8  C   -0.401877  -0.333531
     9  S    0.319078  -0.348332
    10  O   -0.209879   0.015092
    11  O   -0.086575   0.010830
    12  N   -0.271934   0.036147
    13  C    0.307024  -0.639569
    14  C   -0.860447   0.655734
    15  C    0.837564  -1.201482
    16  C    0.103386  -0.170881
    17  O   -0.307220   0.004586
    18  O   -0.190647   0.065988
    19  H   -0.012302   0.160242
    20  H   -0.066560   0.220991
    21  H   -0.044880   0.253319
    22  H    0.471292  -0.430571
    23  H    0.053704   0.098621
    24  H   -0.173877   0.325812
    25  H   -0.097989   0.243622
    26  H   -0.185617   0.334533
    27  H   -0.266138   0.497065
    28  H   -0.053237   0.216722
    29  H    0.190196   0.037639
    30  H    0.184949   0.061310
    31  H    0.088163   0.152180
    32  H    0.377332  -0.018625
    33  H   -0.126437   0.349643
    34  H   -0.057341   0.221503
    35  H   -0.178109   0.351895
    36  H    0.160933   0.035271
    37  H    0.058756   0.171114
    38  H    0.163365   0.070665
    39  H   -0.599315   0.905797
 Sum of Mulliken charges =  -1.00000   1.00000

 Dipole moment (field-independent basis, Debye):
    X=              3.5356    Y=              1.7093    Z=              1.7425  Tot=              4.2963
 Quadrupole moment (field-independent basis, Debye-Ang):
   XX=           -249.0605   YY=           -157.3823   ZZ=           -152.5068
   XY=            -13.5328   XZ=            -11.1318   YZ=             -4.5438

 Summary of Natural Population Analysis:

                                       Natural Population
                Natural  -----------------------------------------------
    Atom  No    Charge         Core      Valence    Rydberg      Total
 -----------------------------------------------------------------------
      C    1   -0.19027      0.99963     2.18250    0.00814     3.19027
      C    2   -0.19070      0.99959     2.18213    0.00898     3.19070
      C    3   -0.05129      0.99955     2.03675    0.01499     3.05129
      C    4   -0.18729      0.99960     2.17797    0.00972     3.18729
      C    5   -0.19057      0.99963     2.18223    0.00871     3.19057
      C    6   -0.11134      0.99960     2.10006    0.01168     3.11134
      C    7   -0.19180      0.99959     2.18241    0.00980     3.19180
      C    8   -0.27829      0.99948     2.26431    0.01450     3.27829
      S    9    1.09382      4.99930     1.80976    0.09713     6.90618
      O   10   -0.46745      0.99991     3.46234    0.00521     4.46745
      O   11   -0.47063      0.99991     3.46561    0.00510     4.47063
      N   12   -0.44590      0.99975     2.93473    0.01141     3.94590
      C   13   -0.09659      0.99962     2.08418    0.01279     3.09659
      C   14   -0.19687      0.99962     2.18925    0.00800     3.19687
      C   15   -0.24882      0.99957     2.24007    0.00918     3.24882
      C   16    0.41127      0.99971     1.56370    0.02532     2.58873
      O   17   -0.32170      0.99987     3.31537    0.00646     4.32170
      O   18   -0.33726      0.99988     3.33047    0.00691     4.33726
      H   19    0.09938      0.00000     0.39966    0.00097     0.40062
      H   20    0.09781      0.00000     0.40112    0.00107     0.40219
      H   21    0.10018      0.00000     0.39875    0.00107     0.39982
      H   22    0.10608      0.00000     0.39207    0.00186     0.39392
      H   23    0.10050      0.00000     0.39849    0.00101     0.39950
      H   24    0.09944      0.00000     0.39943    0.00114     0.40056
      H   25    0.09859      0.00000     0.40024    0.00117     0.40141
      H   26    0.10023      0.00000     0.39845    0.00132     0.39977
      H   27    0.10206      0.00000     0.39697    0.00096     0.39794
      H   28    0.09950      0.00000     0.39948    0.00102     0.40050
      H   29    0.11386      0.00000     0.38496    0.00118     0.38614
      H   30    0.11893      0.00000     0.38001    0.00106     0.38107
      H   31    0.11908      0.00000     0.37985    0.00107     0.38092
      H   32    0.21057      0.00000     0.28678    0.00265     0.28943
      H   33    0.10527      0.00000     0.39366    0.00107     0.39473
      H   34    0.10617      0.00000     0.39263    0.00120     0.39383
      H   35    0.10274      0.00000     0.39616    0.00110     0.39726
      H   36    0.10768      0.00000     0.39126    0.00106     0.39232
      H   37    0.11247      0.00000     0.38653    0.00100     0.38753
      H   38    0.12416      0.00000     0.37446    0.00137     0.37584
      H   39    0.24696      0.00000     0.22034    0.03269     0.25304
 =======================================================================
   * Total *    0.00000     21.99379    51.67514    0.33107    74.00000

 Normal termination of Gaussian 16 at Mon Dec 14 19:15:04 2020.
