 Gaussian 16, Revision A.03,

 -----------------------------------------------------------
 # opt freq B3LYP/6-31G(d) empiricaldispersion=gd3bj scf=xqc
 -----------------------------------------------------------

 ------------------------------
 CID_89260003_JID_3881_neutraal
 ------------------------------
 Symbolic Z-matrix:
 Charge =  0 Multiplicity = 1

 SCF Done:  E(RB3LYP) =  -1329.08940029     A.U. after   16 cycles
 SCF Done:  E(RB3LYP) =  -1329.10005412     A.U. after   13 cycles
 SCF Done:  E(RB3LYP) =  -1329.10222623     A.U. after   13 cycles
 SCF Done:  E(RB3LYP) =  -1329.10296574     A.U. after   13 cycles
 SCF Done:  E(RB3LYP) =  -1329.10326463     A.U. after   12 cycles
 SCF Done:  E(RB3LYP) =  -1329.10354905     A.U. after   13 cycles
 SCF Done:  E(RB3LYP) =  -1329.10365931     A.U. after   12 cycles
 SCF Done:  E(RB3LYP) =  -1329.10380571     A.U. after   13 cycles
 SCF Done:  E(RB3LYP) =  -1329.10388250     A.U. after   12 cycles
 SCF Done:  E(RB3LYP) =  -1329.10388965     A.U. after    9 cycles
 SCF Done:  E(RB3LYP) =  -1329.10389306     A.U. after    8 cycles
 SCF Done:  E(RB3LYP) =  -1329.10389329     A.U. after    8 cycles
 SCF Done:  E(RB3LYP) =  -1329.10389334     A.U. after    7 cycles
 SCF Done:  E(RB3LYP) =  -1329.10389337     A.U. after    8 cycles
 SCF Done:  E(RB3LYP) =  -1329.10389341     A.U. after    8 cycles
 SCF Done:  E(RB3LYP) =  -1329.10389345     A.U. after    8 cycles
 Optimization completed.
    -- Stationary point found.
 Normal termination of Gaussian 16 at Mon Dec 14 13:10:40 2020.

 --------------------------------------------------------------------
 #N Geom=AllCheck Guess=TCheck SCRF=Check GenChk RB3LYP/6-31G(d) Freq
 --------------------------------------------------------------------

 Structure from the checkpoint file:  "JID_3881.chk"
 ------------------------------
 CID_89260003_JID_3881_neutraal
 ------------------------------
 Charge =  0 Multiplicity = 1

 SCF Done:  E(RB3LYP) =  -1329.10389345     A.U. after    1 cycles

  Exact polarizability: 192.449   1.637 125.386  -1.775   0.840  80.956
 Approx polarizability: 273.857   4.419 217.663   6.638   7.939 132.285

                      1                      2                      3
                      A                      A                      A
 Frequencies --     23.8356                34.2031                52.8220
 Red. masses --      4.5410                 3.6933                 7.9040
 Frc consts  --      0.0015                 0.0025                 0.0130
 IR Inten    --      3.4035                 1.7816                 2.4500

                      4                      5                      6
                      A                      A                      A
 Frequencies --     99.7687               104.2893               141.6277
 Red. masses --      6.4955                 5.3288                 1.3023
 Frc consts  --      0.0381                 0.0341                 0.0154
 IR Inten    --      3.1605                 0.8708                 0.7044

                      7                      8                      9
                      A                      A                      A
 Frequencies --    160.5071               176.5691               192.5932
 Red. masses --      2.9184                 1.0665                 3.0815
 Frc consts  --      0.0443                 0.0196                 0.0673
 IR Inten    --      2.3573                 0.1624                 1.3018

                     10                     11                     12
                      A                      A                      A
 Frequencies --    213.7517               223.8762               232.6100
 Red. masses --      1.0665                 4.2986                 5.6326
 Frc consts  --      0.0287                 0.1269                 0.1796
 IR Inten    --      0.5743                 1.3797                 3.5683

                     13                     14                     15
                      A                      A                      A
 Frequencies --    300.0058               335.4074               343.3846
 Red. masses --      4.2485                 4.1863                 7.0620
 Frc consts  --      0.2253                 0.2775                 0.4906
 IR Inten    --      2.1291                 7.6182                25.8730

                     16                     17                     18
                      A                      A                      A
 Frequencies --    402.7455               445.0377               472.3637
 Red. masses --      6.4688                 5.8393                 7.3729
 Frc consts  --      0.6182                 0.6814                 0.9693
 IR Inten    --      8.8443                12.7044                20.4552

                     19                     20                     21
                      A                      A                      A
 Frequencies --    532.6585               537.3200               568.1862
 Red. masses --      1.8759                 4.0632                 6.2306
 Frc consts  --      0.3136                 0.6912                 1.1851
 IR Inten    --     10.9906                18.0166                 3.3610

                     22                     23                     24
                      A                      A                      A
 Frequencies --    588.3789               639.4638               656.2644
 Red. masses --      5.8860                 5.4025                 7.1139
 Frc consts  --      1.2006                 1.3016                 1.8052
 IR Inten    --      1.5910                17.5155                 4.9572

                     25                     26                     27
                      A                      A                      A
 Frequencies --    664.5800               669.9688               813.2605
 Red. masses --      4.9813                 1.5545                 4.9393
 Frc consts  --      1.2962                 0.4111                 1.9248
 IR Inten    --     11.9059                78.8922                 4.7475

                     28                     29                     30
                      A                      A                      A
 Frequencies --    862.5793               958.2798               966.5796
 Red. masses --      5.0670                 2.5709                 1.5302
 Frc consts  --      2.2213                 1.3910                 0.8423
 IR Inten    --      8.3864                 5.3819                11.0577

                     31                     32                     33
                      A                      A                      A
 Frequencies --    987.8140              1018.7792              1058.7943
 Red. masses --      1.7612                 1.9102                 1.7172
 Frc consts  --      1.0125                 1.1681                 1.1342
 IR Inten    --     59.7326                41.2460                40.1472

                     34                     35                     36
                      A                      A                      A
 Frequencies --   1072.7056              1076.6775              1082.9561
 Red. masses --      1.7098                 1.5272                 7.6588
 Frc consts  --      1.1592                 1.0431                 5.2921
 IR Inten    --      8.1230                 0.4057                67.4959

                     37                     38                     39
                      A                      A                      A
 Frequencies --   1096.4714              1194.6972              1307.0518
 Red. masses --      6.7122                 3.1284                 3.1624
 Frc consts  --      4.7546                 2.6308                 3.1831
 IR Inten    --     73.7127                34.8095               648.2939

                     40                     41                     42
                      A                      A                      A
 Frequencies --   1349.2909              1360.3278              1432.2448
 Red. masses --      6.0476                 1.1851                 1.3426
 Frc consts  --      6.4870                 1.2921                 1.6227
 IR Inten    --     60.9617                 6.7191                63.5202

                     43                     44                     45
                      A                      A                      A
 Frequencies --   1440.7964              1475.3697              1476.7971
 Red. masses --      1.2812                 1.0547                 1.0624
 Frc consts  --      1.5670                 1.3527                 1.3652
 IR Inten    --     15.2029                 5.4608                11.0844

                     46                     47                     48
                      A                      A                      A
 Frequencies --   1491.7725              1500.0957              1501.6339
 Red. masses --      1.0543                 1.0453                 1.3187
 Frc consts  --      1.3823                 1.3858                 1.7519
 IR Inten    --     12.8180                 9.6962                 3.2423

                     49                     50                     51
                      A                      A                      A
 Frequencies --   1507.8297              1518.4176              1579.5390
 Red. masses --      1.0564                 1.5930                 5.6809
 Frc consts  --      1.4151                 2.1640                 8.3508
 IR Inten    --      6.4239               127.0609               285.9699

                     52                     53                     54
                      A                      A                      A
 Frequencies --   1594.1720              1814.8020              3058.7959
 Red. masses --      5.7408                 8.1413                 1.0382
 Frc consts  --      8.5960                15.7981                 5.7229
 IR Inten    --    164.8039               427.1999                14.7108

                     55                     56                     57
                      A                      A                      A
 Frequencies --   3067.2336              3083.5430              3116.6205
 Red. masses --      1.0284                 1.0351                 1.0997
 Frc consts  --      5.7003                 5.7984                 6.2935
 IR Inten    --      3.9137                 0.9101                 9.2523

                     58                     59                     60
                      A                      A                      A
 Frequencies --   3149.5614              3155.4832              3170.3050
 Red. masses --      1.0995                 1.1018                 1.1065
 Frc consts  --      6.4259                 6.4636                 6.5526
 IR Inten    --      2.2713                 8.4578                 6.2261

                     61                     62                     63
                      A                      A                      A
 Frequencies --   3171.5777              3185.0018              3591.0855
 Red. masses --      1.1075                 1.1062                 1.0767
 Frc consts  --      6.5636                 6.6117                 8.1808
 IR Inten    --      3.4960                13.1039                45.6270

 - Thermochemistry -
 -------------------
 Temperature   298.150 Kelvin.  Pressure   1.00000 Atm.
 Atom     1 has atomic number  6 and mass  12.00000

 Molecular mass:   218.01837 amu.
 Principal axes and moments of inertia in atomic units:
                           1         2         3
     Eigenvalues --  1243.389055675.030516471.43482
           X            0.99989   0.00844  -0.01216
           Y           -0.00862   0.99984  -0.01543
           Z            0.01203   0.01554   0.99981
 This molecule is an asymmetric top.
 Rotational symmetry number  1.
 Warning -- assumption of classical behavior for rotation
           may cause significant error
 Rotational temperatures (Kelvin)      0.06966     0.01526     0.01338
 Rotational constants (GHZ):           1.45147     0.31801     0.27888
 Zero-point vibrational energy     449204.7 (Joules/Mol)
                                  107.36250 (Kcal/Mol)
 Warning -- explicit consideration of  22 degrees of freedom as
           vibrations may cause significant error
 Vibrational temperatures:     34.29    49.21    76.00   143.54   150.05
          (Kelvin)            203.77   230.93   254.04   277.10   307.54
                              322.11   334.67   431.64   482.58   494.05
                              579.46   640.31   679.63   766.38   773.08
                              817.49   846.55   920.05   944.22   956.18
                              963.94  1170.10  1241.06  1378.75  1390.69
                             1421.24  1465.80  1523.37  1543.38  1549.10
                             1558.13  1577.58  1718.90  1880.56  1941.33
                             1957.21  2060.68  2072.98  2122.73  2124.78
                             2146.33  2158.30  2160.52  2169.43  2184.66
                             2272.60  2293.66  2611.10  4400.93  4413.06
                             4436.53  4484.12  4531.52  4540.04  4561.36
                             4563.19  4582.51  5166.77

 Zero-point correction=                           0.171093 (Hartree/Particle)
 Thermal correction to Energy=                    0.185792
 Thermal correction to Enthalpy=                  0.186736
 Thermal correction to Gibbs Free Energy=         0.127543
 Sum of electronic and zero-point Energies=          -1328.932800
 Sum of electronic and thermal Energies=             -1328.918101
 Sum of electronic and thermal Enthalpies=           -1328.917157
 Sum of electronic and thermal Free Energies=        -1328.976350

                     E (Thermal)             CV                S
                      KCal/Mol        Cal/Mol-Kelvin    Cal/Mol-Kelvin
 Total                  116.586             51.632            124.583
 Electronic               0.000              0.000              0.000
 Translational            0.889              2.981             42.041
 Rotational               0.889              2.981             32.190
 Vibrational            114.809             45.671             50.351
 Vibration     1          0.593              1.985              6.286
 Vibration     2          0.594              1.983              5.569
 Vibration     3          0.596              1.976              4.709
 Vibration     4          0.604              1.949              3.459
 Vibration     5          0.605              1.946              3.373
 Vibration     6          0.615              1.912              2.782
 Vibration     7          0.622              1.891              2.544
 Vibration     8          0.628              1.871              2.364
 Vibration     9          0.635              1.850              2.203
 Vibration    10          0.644              1.820              2.011
 Vibration    11          0.649              1.805              1.928
 Vibration    12          0.653              1.791              1.859
 Vibration    13          0.693              1.674              1.417
 Vibration    14          0.717              1.605              1.234
 Vibration    15          0.722              1.589              1.196
 Vibration    16          0.768              1.464              0.953
 Vibration    17          0.804              1.372              0.811
 Vibration    18          0.829              1.311              0.731
 Vibration    19          0.888              1.178              0.581
 Vibration    20          0.892              1.168              0.571
 Vibration    21          0.924              1.100              0.508
 Vibration    22          0.946              1.057              0.470

                           ! Non-Optimized Parameters !
 Normal termination of Gaussian 16 at Mon Dec 14 13:15:38 2020.

 ----------------------------------------------------------------------
 # B3LYP/6-311++G(d,p) empiricaldispersion=gd3bj scf=xqc pop=npa geom=c
 heck
 ----------------------------------------------------------------------

 --------------------------------------
 CID_89260003_JID_3881_Energie_neutraal
 --------------------------------------
 Structure from the checkpoint file:  "JID_3881.chk"
 Charge =  0 Multiplicity = 1

 SCF Done:  E(RB3LYP) =  -1329.31390839     A.U. after   16 cycles
 Normal termination of Gaussian 16 at Mon Dec 14 13:17:39 2020.

 ----------------------------------------------------------------------
 # B3LYP/6-311++G(d,p) empiricaldispersion=gd3bj scf=xqc pop=npa geom=c
 heck
 ----------------------------------------------------------------------

 ------------------------------------
 CID_89260003_JID_3881_Energie_kation
 ------------------------------------
 Structure from the checkpoint file:  "JID_3881.chk"
 Charge =  1 Multiplicity = 2

 SCF Done:  E(UB3LYP) =  -1329.00932821     A.U. after   27 cycles
 Normal termination of Gaussian 16 at Mon Dec 14 13:22:10 2020.
 Gaussian 16:  ES64L-G16RevA.03 25-Dec-2016

 ----------------------------------------------------------------------
 # B3LYP/6-311++G(d,p) empiricaldispersion=gd3bj scf=xqc pop=npa geom=c
 heck
 ----------------------------------------------------------------------

 -----------------------------------
 CID_89260003_JID_3881_Energie_anion
 -----------------------------------
 Structure from the checkpoint file:  "JID_3881.chk"
 Charge = -1 Multiplicity = 2

                         Standard orientation:
 ---------------------------------------------------------------------
 Center     Atomic      Atomic             Coordinates (Angstroms)
 Number     Number       Type             X           Y           Z
 ---------------------------------------------------------------------
      1          6           0       -0.860705    2.690317   -0.080307
      2          6           0       -0.411282    1.262048   -0.058663
      3          6           0       -1.219259    0.155335   -0.076373
      4         16           0       -0.254739   -1.317981   -0.077720
      5          6           0        1.175095   -0.283844   -0.003872
      6          7           0        0.943566    0.999572   -0.001703
      7          7           0        2.417044   -0.876873    0.032346
      8          6           0        3.708153   -0.316000    0.042745
      9          8           0        4.652477   -1.082392    0.080845
     10          6           0        3.837708    1.183728    0.005777
     11         16           0       -2.997206    0.105051   -0.218544
     12          8           0       -3.372941   -1.021478   -1.151464
     13          6           0       -3.336825   -0.486914    1.485804
     14          1           0       -0.635079    3.179084    0.874724
     15          1           0       -0.323016    3.237666   -0.861417
     16          1           0       -1.934281    2.767963   -0.266087
     17          1           0        2.450447   -1.889745    0.048318
     18          1           0        3.352980    1.595793   -0.883451
     19          1           0        3.337192    1.639896    0.864050
     20          1           0        4.901798    1.422579    0.009369
     21          1           0       -2.847440   -1.452632    1.635892
     22          1           0       -2.969288    0.251625    2.203202
     23          1           0       -4.420060   -0.601313    1.575418
 ---------------------------------------------------------------------

 SCF Done:  E(UB3LYP) =  -1329.32018125     A.U. after   32 cycles

 The electronic state is 2-A.
 Alpha  occ. eigenvalues --  -88.82886 -88.73678 -18.96540 -18.95514 -14.23322
 Alpha  occ. eigenvalues --  -14.16694 -10.14622 -10.11709 -10.07694 -10.07673
 Alpha  occ. eigenvalues --  -10.06525 -10.05736 -10.05535  -7.90401  -7.82338
 Alpha  occ. eigenvalues --   -5.86675  -5.86561  -5.86034  -5.78667  -5.78321
 Alpha  occ. eigenvalues --   -5.77859  -0.92428  -0.88988  -0.84869  -0.78837
 Alpha  occ. eigenvalues --   -0.67968  -0.65154  -0.63497  -0.62374  -0.56686
 Alpha  occ. eigenvalues --   -0.53003  -0.48414  -0.45721  -0.40473  -0.38458
 Alpha  occ. eigenvalues --   -0.35622  -0.34046  -0.33539  -0.32340  -0.32237
 Alpha  occ. eigenvalues --   -0.31004  -0.30515  -0.29732  -0.28953  -0.28145
 Alpha  occ. eigenvalues --   -0.27955  -0.27323  -0.25106  -0.24796  -0.22517
 Alpha  occ. eigenvalues --   -0.18845  -0.16244  -0.14815  -0.14429  -0.13942
 Alpha  occ. eigenvalues --   -0.11496  -0.09322   0.04712
 Alpha virt. eigenvalues --    0.07457   0.08391   0.09247   0.10257   0.10517
 Alpha virt. eigenvalues --    0.11557   0.11817   0.12219   0.12702   0.12964
 Alpha virt. eigenvalues --    0.13743   0.13839   0.14537   0.14904   0.15199

  Beta  occ. eigenvalues --  -88.82879 -88.73623 -18.96268 -18.95457 -14.23424
  Beta  occ. eigenvalues --  -14.16744 -10.14386 -10.11153 -10.07592 -10.07508
  Beta  occ. eigenvalues --  -10.06314 -10.05747 -10.05554  -7.90393  -7.82290
  Beta  occ. eigenvalues --   -5.86662  -5.86534  -5.86037  -5.78650  -5.78304
  Beta  occ. eigenvalues --   -5.77666  -0.91968  -0.88834  -0.84471  -0.78699
  Beta  occ. eigenvalues --   -0.67679  -0.64817  -0.63343  -0.62218  -0.56363
  Beta  occ. eigenvalues --   -0.52594  -0.48143  -0.45533  -0.40213  -0.38222
  Beta  occ. eigenvalues --   -0.35393  -0.33412  -0.33262  -0.32129  -0.31909
  Beta  occ. eigenvalues --   -0.30796  -0.30243  -0.29525  -0.28866  -0.27884
  Beta  occ. eigenvalues --   -0.27367  -0.27136  -0.24911  -0.23887  -0.22305
  Beta  occ. eigenvalues --   -0.17867  -0.16053  -0.14322  -0.14061  -0.13740
  Beta  occ. eigenvalues --   -0.11241  -0.08081
  Beta virt. eigenvalues --    0.07519   0.08455   0.09225   0.10146   0.10354
  Beta virt. eigenvalues --    0.10782   0.11545   0.12327   0.12638   0.12692
  Beta virt. eigenvalues --    0.13419   0.13863   0.14048   0.14807   0.14998

 Mulliken charges and spin densities:
               1          2
     1  C   -0.609400  -0.086202
     2  C   -1.103298   0.034446
     3  C    0.647384   0.242227
     4  S   -0.168281   0.087944
     5  C   -0.036897   0.283124
     6  N    0.001831  -0.025468
     7  N   -0.092761  -0.046779
     8  C    0.101534   0.134682
     9  O   -0.400088   0.089549
    10  C   -0.402836  -0.011474
    11  S    0.615466   0.214546
    12  O   -0.433017  -0.007014
    13  C   -0.375002  -0.334544
    14  H    0.075513   0.074062
    15  H    0.133082   0.003488
    16  H    0.116895  -0.003494
    17  H    0.293350   0.000418
    18  H    0.165068   0.005453
    19  H    0.159390   0.013331
    20  H    0.153640   0.000221
    21  H    0.174242   0.023128
    22  H   -0.014604   0.146999
    23  H   -0.001212   0.161359
 Sum of Mulliken charges =  -1.00000   1.00000

 Dipole moment (field-independent basis, Debye):
    X=             -0.5347    Y=              2.8244    Z=              1.5230  Tot=              3.2531
 Quadrupole moment (field-independent basis, Debye-Ang):
   XX=           -163.7055   YY=           -106.0561   ZZ=           -105.5258
   XY=              0.5764   XZ=             -6.2629   YZ=             -4.3455

 Summary of Natural Population Analysis:

                                       Natural Population
                Natural  -----------------------------------------------
    Atom  No    Charge         Core      Valence    Rydberg      Total
 -----------------------------------------------------------------------
      C    1   -0.29762      0.99963     2.29189    0.00609     3.29762
      C    2    0.10207      0.99941     1.88425    0.01427     2.89793
      C    3   -0.21999      0.99931     2.20577    0.01491     3.21999
      S    4    0.17405      4.99941     2.80589    0.02064     7.82595
      C    5    0.23055      0.99962     1.75160    0.01823     2.76945
      N    6   -0.29945      0.99963     2.78855    0.01127     3.79945
      N    7   -0.33073      0.99963     2.82205    0.00905     3.83073
      C    8    0.37653      0.99973     1.60260    0.02114     2.62347
      O    9   -0.29923      0.99987     3.29237    0.00698     4.29923
      C   10   -0.33578      0.99963     2.33213    0.00402     3.33578
      S   11    0.61010      4.99929     2.32787    0.06275     7.38990
      O   12   -0.48772      0.99993     3.48127    0.00651     4.48772
      C   13   -0.37389      0.99962     2.36491    0.00936     3.37389
      H   14    0.10251      0.00000     0.39589    0.00161     0.39749
      H   15    0.10243      0.00000     0.39650    0.00108     0.39757
      H   16    0.10109      0.00000     0.39715    0.00177     0.39891
      H   17    0.19738      0.00000     0.30046    0.00216     0.30262
      H   18    0.11586      0.00000     0.38323    0.00091     0.38414
      H   19    0.11660      0.00000     0.38249    0.00091     0.38340
      H   20    0.10095      0.00000     0.39796    0.00109     0.39905
      H   21    0.10852      0.00000     0.39019    0.00129     0.39148
      H   22    0.10469      0.00000     0.39303    0.00228     0.39531
      H   23    0.10109      0.00000     0.39656    0.00235     0.39891
 =======================================================================
   * Total *   -0.00000     20.99471    35.78462    0.22067    57.00000

 Normal termination of Gaussian 16 at Mon Dec 14 13:27:56 2020.
