 Gaussian 16, Revision A.03,

 -----------------------------------------------------------
 # opt freq B3LYP/6-31G(d) empiricaldispersion=gd3bj scf=xqc
 -----------------------------------------------------------

 -------------------------------
 CID_105834094_JID_9462_neutraal
 -------------------------------
 Symbolic Z-matrix:
 Charge =  0 Multiplicity = 1

 SCF Done:  E(RB3LYP) =  -920.317702013     A.U. after   14 cycles
 SCF Done:  E(RB3LYP) =  -920.325049915     A.U. after   12 cycles
 SCF Done:  E(RB3LYP) =  -920.324497813     A.U. after   12 cycles
 SCF Done:  E(RB3LYP) =  -920.326263655     A.U. after   11 cycles
 SCF Done:  E(RB3LYP) =  -920.326691361     A.U. after   12 cycles
 SCF Done:  E(RB3LYP) =  -920.327724494     A.U. after   12 cycles
 SCF Done:  E(RB3LYP) =  -920.328848488     A.U. after   12 cycles
 SCF Done:  E(RB3LYP) =  -920.330010052     A.U. after   12 cycles
 SCF Done:  E(RB3LYP) =  -920.331263196     A.U. after   12 cycles
 SCF Done:  E(RB3LYP) =  -920.331901854     A.U. after   12 cycles
 SCF Done:  E(RB3LYP) =  -920.334206965     A.U. after    6 cycles
 SCF Done:  E(RB3LYP) =  -920.334207000     A.U. after    6 cycles
 SCF Done:  E(RB3LYP) =  -920.334207029     A.U. after    6 cycles
 SCF Done:  E(RB3LYP) =  -920.334207054     A.U. after    6 cycles
 Optimization completed.
    -- Stationary point found.
 Normal termination of Gaussian 16 at Sat Dec 12 10:12:52 2020.

 --------------------------------------------------------------------
 #N Geom=AllCheck Guess=TCheck SCRF=Check GenChk RB3LYP/6-31G(d) Freq
 --------------------------------------------------------------------

 Structure from the checkpoint file:  "JID_9462.chk"
 -------------------------------
 CID_105834094_JID_9462_neutraal
 -------------------------------
 Charge =  0 Multiplicity = 1

 SCF Done:  E(RB3LYP) =  -920.334207054     A.U. after    1 cycles

  Exact polarizability: 179.253   5.811 150.132  -1.150  -7.451 139.487
 Approx polarizability: 218.002  10.648 217.986   6.970 -24.705 221.552

                      1                      2                      3
                      A                      A                      A
 Frequencies --     10.5429                20.7354                30.9994
 Red. masses --      3.9371                 5.4990                 5.2722
 Frc consts  --      0.0003                 0.0014                 0.0030
 IR Inten    --      0.1892                 0.8013                 0.2168

                      4                      5                      6
                      A                      A                      A
 Frequencies --     41.5152                58.4966                62.0793
 Red. masses --      3.4135                 3.0481                 3.6705
 Frc consts  --      0.0035                 0.0061                 0.0083
 IR Inten    --      0.2565                 0.1891                 0.7095

                      7                      8                      9
                      A                      A                      A
 Frequencies --     87.2631                93.4750               103.0340
 Red. masses --      7.0164                 6.0518                 4.0966
 Frc consts  --      0.0315                 0.0312                 0.0256
 IR Inten    --      3.8940                 1.5003                 0.4301

                     10                     11                     12
                      A                      A                      A
 Frequencies --    128.6368               143.5665               175.0138
 Red. masses --      1.8528                 3.5857                 2.5105
 Frc consts  --      0.0181                 0.0435                 0.0453
 IR Inten    --      1.1911                 0.1085                 1.0857

                     13                     14                     15
                      A                      A                      A
 Frequencies --    212.4225               224.5196               248.1017
 Red. masses --      1.3278                 2.0197                 1.1858
 Frc consts  --      0.0353                 0.0600                 0.0430
 IR Inten    --      0.1018                 3.2348                 0.4011

                     16                     17                     18
                      A                      A                      A
 Frequencies --    267.5888               282.7748               298.5518
 Red. masses --      2.4545                 3.5905                 2.1202
 Frc consts  --      0.1035                 0.1692                 0.1113
 IR Inten    --      3.9183                 3.8973                 0.8426

                     19                     20                     21
                      A                      A                      A
 Frequencies --    316.7242               323.1341               363.5855
 Red. masses --      4.0797                 2.8879                 2.5797
 Frc consts  --      0.2411                 0.1777                 0.2009
 IR Inten    --      0.8257                 0.6248                 2.7275

                     22                     23                     24
                      A                      A                      A
 Frequencies --    382.4069               398.7153               424.7413
 Red. masses --      2.6611                 2.6425                 2.8255
 Frc consts  --      0.2293                 0.2475                 0.3003
 IR Inten    --      0.1171                 1.8511                 2.2393

                     25                     26                     27
                      A                      A                      A
 Frequencies --    435.6129               462.2049               483.8531
 Red. masses --      2.9848                 2.5952                 2.6006
 Frc consts  --      0.3337                 0.3267                 0.3587
 IR Inten    --      5.3947                 2.2038                 6.5285

                     28                     29                     30
                      A                      A                      A
 Frequencies --    509.1859               528.0683               561.8981
 Red. masses --      3.0479                 1.7505                 3.6151
 Frc consts  --      0.4656                 0.2876                 0.6725
 IR Inten    --      1.3104                15.4076                57.6341

                     31                     32                     33
                      A                      A                      A
 Frequencies --    593.6217               606.8866               663.3124
 Red. masses --      3.5900                 3.0438                 2.2051
 Frc consts  --      0.7454                 0.6605                 0.5716
 IR Inten    --     42.2760                13.7099                 2.0130

                     34                     35                     36
                      A                      A                      A
 Frequencies --    687.1783               726.7199               741.6675
 Red. masses --      1.4632                 2.5983                 2.1197
 Frc consts  --      0.4071                 0.8085                 0.6870
 IR Inten    --     88.3646                66.2281                27.7096

                     37                     38                     39
                      A                      A                      A
 Frequencies --    761.6819               788.4088               811.3027
 Red. masses --      2.1464                 2.4638                 2.4592
 Frc consts  --      0.7337                 0.9023                 0.9537
 IR Inten    --      0.2359                12.4151                76.5918

                     40                     41                     42
                      A                      A                      A
 Frequencies --    828.5355               840.7665               861.2369
 Red. masses --      3.6620                 2.0945                 2.7430
 Frc consts  --      1.4811                 0.8723                 1.1987
 IR Inten    --     45.9074                 8.0104                 5.3984

                     43                     44                     45
                      A                      A                      A
 Frequencies --    905.4746               925.3970               942.8394
 Red. masses --      2.1586                 2.2194                 2.0445
 Frc consts  --      1.0427                 1.1198                 1.0708
 IR Inten    --      5.6361                 1.2785                 6.0992

                     46                     47                     48
                      A                      A                      A
 Frequencies --    950.3490               954.9098               963.0542
 Red. masses --      1.1845                 2.0327                 2.5031
 Frc consts  --      0.6303                 1.0920                 1.3678
 IR Inten    --      3.8375                 8.6487                23.0022

                     49                     50                     51
                      A                      A                      A
 Frequencies --    975.8996               981.6547               997.8424
 Red. masses --      1.7777                 1.4329                 2.5194
 Frc consts  --      0.9975                 0.8136                 1.4780
 IR Inten    --     22.7854                 0.1004                17.9044

                     52                     53                     54
                      A                      A                      A
 Frequencies --   1035.1483              1054.3474              1072.9724
 Red. masses --      1.5571                 1.7562                 3.0187
 Frc consts  --      0.9830                 1.1503                 2.0476
 IR Inten    --      2.6399                23.1006                 4.5162

                     55                     56                     57
                      A                      A                      A
 Frequencies --   1097.9630              1120.4356              1129.9612
 Red. masses --      2.7754                 2.6505                 2.8806
 Frc consts  --      1.9713                 1.9604                 2.1670
 IR Inten    --     37.2456                36.7773                58.8663

                     58                     59                     60
                      A                      A                      A
 Frequencies --   1146.7430              1154.4548              1175.1989
 Red. masses --      2.0743                 2.3904                 2.7602
 Frc consts  --      1.6071                 1.8770                 2.2460
 IR Inten    --      6.4417                31.9626               188.8951

                     61                     62                     63
                      A                      A                      A
 Frequencies --   1190.1952              1193.7708              1204.8180
 Red. masses --      1.2856                 2.4357                 1.7880
 Frc consts  --      1.0730                 2.0451                 1.5292
 IR Inten    --      5.9287               177.1233                21.7429

                     64                     65                     66
                      A                      A                      A
 Frequencies --   1211.8819              1228.3132              1237.5268
 Red. masses --      1.5841                 1.8317                 1.5605
 Frc consts  --      1.3708                 1.6283                 1.4081
 IR Inten    --     18.4407                33.9017                11.2423

                     67                     68                     69
                      A                      A                      A
 Frequencies --   1244.3099              1267.1531              1298.4380
 Red. masses --      1.6622                 1.2320                 1.4079
 Frc consts  --      1.5163                 1.1655                 1.3985
 IR Inten    --     31.4721                 7.8685                20.3453

                     70                     71                     72
                      A                      A                      A
 Frequencies --   1312.7733              1320.3286              1329.8234
 Red. masses --      1.5232                 1.3764                 1.2980
 Frc consts  --      1.5466                 1.4137                 1.3525
 IR Inten    --     11.5111                25.5455                 7.7848

                     73                     74                     75
                      A                      A                      A
 Frequencies --   1337.5937              1345.6426              1351.2587
 Red. masses --      1.3488                 1.4024                 1.3310
 Frc consts  --      1.4218                 1.4961                 1.4319
 IR Inten    --      2.3476                21.0139                 1.3033

                     76                     77                     78
                      A                      A                      A
 Frequencies --   1366.1030              1381.3234              1393.5973
 Red. masses --      1.4241                 1.3711                 1.3614
 Frc consts  --      1.5658                 1.5414                 1.5578
 IR Inten    --      3.5451                 7.4932                 3.9811

                     79                     80                     81
                      A                      A                      A
 Frequencies --   1413.9445              1421.4033              1427.2609
 Red. masses --      1.8186                 2.1581                 1.2666
 Frc consts  --      2.1422                 2.5689                 1.5202
 IR Inten    --    109.9338               242.3068                 3.9424

                     82                     83                     84
                      A                      A                      A
 Frequencies --   1432.7243              1439.0039              1454.8154
 Red. masses --      1.5347                 1.6736                 1.2369
 Frc consts  --      1.8561                 2.0419                 1.5424
 IR Inten    --     20.3353               127.8948                 2.9037

                     85                     86                     87
                      A                      A                      A
 Frequencies --   1482.1700              1491.1826              1495.5615
 Red. masses --      1.1417                 1.2446                 1.4115
 Frc consts  --      1.4777                 1.6306                 1.8602
 IR Inten    --     36.9747                 9.0639                14.4917

                     88                     89                     90
                      A                      A                      A
 Frequencies --   1502.3168              1505.6773              1514.1796
 Red. masses --      1.1542                 1.0868                 1.0824
 Frc consts  --      1.5348                 1.4516                 1.4621
 IR Inten    --      0.1668                 3.0307                 1.0571

                     91                     92                     93
                      A                      A                      A
 Frequencies --   1519.0762              1530.9232              1532.3118
 Red. masses --      1.0515                 1.0456                 1.0612
 Frc consts  --      1.4296                 1.4439                 1.4680
 IR Inten    --      2.3825                 5.8566                13.3283

                     94                     95                     96
                      A                      A                      A
 Frequencies --   1534.9278              1536.8034              1541.3617
 Red. masses --      1.0990                 1.0559                 1.0665
 Frc consts  --      1.5255                 1.4693                 1.4928
 IR Inten    --      3.2329                 4.6727                 9.9974

                     97                     98                     99
                      A                      A                      A
 Frequencies --   1551.2840              1796.2271              1832.9683
 Red. masses --      1.0459                 6.7279                 9.0102
 Frc consts  --      1.4830                12.7895                17.8359
 IR Inten    --     16.8019               508.9874               141.3178

                    100                    101                    102
                      A                      A                      A
 Frequencies --   3006.8958              3039.7986              3048.3443
 Red. masses --      1.0381                 1.0395                 1.0431
 Frc consts  --      5.5301                 5.6595                 5.7111
 IR Inten    --     39.4633                19.7759                17.8575

                    103                    104                    105
                      A                      A                      A
 Frequencies --   3050.0770              3053.8390              3056.5530
 Red. masses --      1.0726                 1.0967                 1.0670
 Frc consts  --      5.8791                 6.0261                 5.8731
 IR Inten    --      4.1159                45.2216                24.6248

                    106                    107                    108
                      A                      A                      A
 Frequencies --   3060.5619              3063.2365              3069.2000
 Red. masses --      1.0769                 1.0695                 1.0675
 Frc consts  --      5.9431                 5.9128                 5.9246
 IR Inten    --      6.6496                 8.1627                26.5018

                    109                    110                    111
                      A                      A                      A
 Frequencies --   3088.8272              3096.1715              3104.0525
 Red. masses --      1.0827                 1.0882                 1.0951
 Frc consts  --      6.0859                 6.1463                 6.2165
 IR Inten    --     21.7569                21.0440                 6.1895

                    112                    113                    114
                      A                      A                      A
 Frequencies --   3106.6494              3114.2071              3115.7486
 Red. masses --      1.0924                 1.0967                 1.0970
 Frc consts  --      6.2116                 6.2666                 6.2744
 IR Inten    --      3.7118                62.0276                22.4605

                    115                    116                    117
                      A                      A                      A
 Frequencies --   3117.6411              3119.9111              3125.1150
 Red. masses --      1.1005                 1.0978                 1.0995
 Frc consts  --      6.3021                 6.2956                 6.3266
 IR Inten    --     52.1065                14.4054                71.5732

                    118                    119                    120
                      A                      A                      A
 Frequencies --   3128.1091              3136.8632              3143.2716
 Red. masses --      1.0943                 1.0974                 1.0998
 Frc consts  --      6.3086                 6.3620                 6.4023
 IR Inten    --     20.3857                32.3343                12.4870

                    121                    122                    123
                      A                      A                      A
 Frequencies --   3546.4811              3580.0910              3679.0023
 Red. masses --      1.0743                 1.0750                 1.0639
 Frc consts  --      7.9608                 8.1177                 8.4843
 IR Inten    --      9.1549                42.7410                54.2595

 - Thermochemistry -
 -------------------
 Temperature   298.150 Kelvin.  Pressure   1.00000 Atm.
 Atom     1 has atomic number  6 and mass  12.00000

 Molecular mass:   272.17361 amu.
 Principal axes and moments of inertia in atomic units:
                           1         2         3
     Eigenvalues --  3132.681059879.25929**********
           X            0.99981  -0.01119  -0.01615
           Y            0.01196   0.99878   0.04788
           Z            0.01560  -0.04806   0.99872
 This molecule is an asymmetric top.
 Rotational symmetry number  1.
 Warning -- assumption of classical behavior for rotation
           may cause significant error
 Rotational temperatures (Kelvin)      0.02765     0.00877     0.00802
 Rotational constants (GHZ):           0.57610     0.18268     0.16706
 Zero-point vibrational energy     992882.8 (Joules/Mol)
                                  237.30467 (Kcal/Mol)
 Warning -- explicit consideration of  32 degrees of freedom as
           vibrations may cause significant error
 Vibrational temperatures:     15.17    29.83    44.60    59.73    84.16
          (Kelvin)             89.32   125.55   134.49   148.24   185.08
                              206.56   251.81   305.63   323.03   356.96
                              385.00   406.85   429.55   455.70   464.92
                              523.12   550.20   573.66   611.11   626.75
                              665.01   696.16   732.60   759.77   808.45
                              854.09   873.17   954.36   988.70  1045.59
                             1067.09  1095.89  1134.34  1167.28  1192.08
                             1209.68  1239.13  1302.78  1331.44  1356.54
                             1367.34  1373.90  1385.62  1404.10  1412.38
                             1435.67  1489.35  1516.97  1543.77  1579.72
                             1612.06  1625.76  1649.91  1661.00  1690.85
                             1712.43  1717.57  1733.46  1743.63  1767.27
                             1780.53  1790.28  1823.15  1868.16  1888.79
                             1899.66  1913.32  1924.50  1936.08  1944.16
                             1965.52  1987.42  2005.08  2034.35  2045.08
                             2053.51  2061.37  2070.41  2093.15  2132.51
                             2145.48  2151.78  2161.50  2166.33  2178.57
                             2185.61  2202.66  2204.65  2208.42  2211.12
                             2217.68  2231.95  2584.37  2637.23  4326.25
                             4373.59  4385.89  4388.38  4393.79  4397.70
                             4403.47  4407.31  4415.89  4444.13  4454.70
                             4466.04  4469.78  4480.65  4482.87  4485.59
                             4488.86  4496.34  4500.65  4513.25  4522.47
                             5102.60  5150.95  5293.26

 Zero-point correction=                           0.378169 (Hartree/Particle)
 Thermal correction to Energy=                    0.398806
 Thermal correction to Enthalpy=                  0.399750
 Thermal correction to Gibbs Free Energy=         0.325387
 Sum of electronic and zero-point Energies=           -919.956038
 Sum of electronic and thermal Energies=              -919.935401
 Sum of electronic and thermal Enthalpies=            -919.934457
 Sum of electronic and thermal Free Energies=         -920.008820

                     E (Thermal)             CV                S
                      KCal/Mol        Cal/Mol-Kelvin    Cal/Mol-Kelvin
 Total                  250.254             76.475            156.511
 Electronic               0.000              0.000              0.000
 Translational            0.889              2.981             42.703
 Rotational               0.889              2.981             34.169
 Vibrational            248.477             70.514             79.639
 Vibration     1          0.593              1.987              7.906
 Vibration     2          0.593              1.986              6.562
 Vibration     3          0.594              1.984              5.764
 Vibration     4          0.594              1.981              5.185
 Vibration     5          0.596              1.974              4.507
 Vibration     6          0.597              1.972              4.390
 Vibration     7          0.601              1.958              3.721
 Vibration     8          0.602              1.954              3.586
 Vibration     9          0.605              1.947              3.396
 Vibration    10          0.611              1.925              2.966
 Vibration    11          0.616              1.910              2.756
 Vibration    12          0.627              1.873              2.381
 Vibration    13          0.643              1.822              2.023
 Vibration    14          0.649              1.804              1.922
 Vibration    15          0.662              1.766              1.744
 Vibration    16          0.673              1.733              1.612
 Vibration    17          0.682              1.706              1.517
 Vibration    18          0.692              1.676              1.425
 Vibration    19          0.704              1.642              1.327
 Vibration    20          0.708              1.629              1.294
 Vibration    21          0.737              1.547              1.107
 Vibration    22          0.752              1.508              1.030
 Vibration    23          0.765              1.473              0.967
 Vibration    24          0.787              1.416              0.876
 Vibration    25          0.796              1.393              0.841
 Vibration    26          0.820              1.334              0.760
 Vibration    27          0.840              1.286              0.700
 Vibration    28          0.864              1.230              0.636
 Vibration    29          0.883              1.188              0.592
 Vibration    30          0.918              1.114              0.520
 Vibration    31          0.951              1.045              0.461
 Vibration    32          0.966              1.017              0.438

                           ! Non-Optimized Parameters !
 Normal termination of Gaussian 16 at Sat Dec 12 10:37:37 2020.

 ----------------------------------------------------------------------
 # B3LYP/6-311++G(d,p) empiricaldispersion=gd3bj scf=xqc pop=npa geom=c
 heck
 ----------------------------------------------------------------------

 ---------------------------------------
 CID_105834094_JID_9462_Energie_neutraal
 ---------------------------------------
 Structure from the checkpoint file:  "JID_9462.chk"
 Charge =  0 Multiplicity = 1

 SCF Done:  E(RB3LYP) =  -920.616344075     A.U. after   15 cycles
 Normal termination of Gaussian 16 at Sat Dec 12 10:49:25 2020.

 ----------------------------------------------------------------------
 # B3LYP/6-311++G(d,p) empiricaldispersion=gd3bj scf=xqc pop=npa geom=c
 heck
 ----------------------------------------------------------------------

 -------------------------------------
 CID_105834094_JID_9462_Energie_kation
 -------------------------------------
 Structure from the checkpoint file:  "JID_9462.chk"
 Charge =  1 Multiplicity = 2

 SCF Done:  E(UB3LYP) =  -920.300812743     A.U. after   33 cycles
 SCF Done:  E(UB3LYP) =  -920.304436036     a.u. after   14 cycles
 Normal termination of Gaussian 16 at Sat Dec 12 16:58:15 2020.
 Gaussian 16:  ES64L-G16RevA.03 25-Dec-2016

 ----------------------------------------------------------------------
 # B3LYP/6-311++G(d,p) empiricaldispersion=gd3bj scf=xqc pop=npa geom=c
 heck
 ----------------------------------------------------------------------

 ------------------------------------
 CID_105834094_JID_9462_Energie_anion
 ------------------------------------
 Structure from the checkpoint file:  "JID_9462.chk"
 Charge = -1 Multiplicity = 2

                         Standard orientation:
 ---------------------------------------------------------------------
 Center     Atomic      Atomic             Coordinates (Angstroms)
 Number     Number       Type             X           Y           Z
 ---------------------------------------------------------------------
      1          6           0       -3.492481    0.870255    2.116104
      2          6           0       -2.903747    1.163248    0.728485
      3          6           0       -2.442263    2.624103    0.639979
      4          6           0       -1.735447    0.201053    0.393894
      5          6           0       -2.092006   -1.288104    0.524562
      6          6           0       -3.199169   -1.731319   -0.404947
      7          8           0       -3.600731   -1.132622   -1.381760
      8          8           0       -3.707432   -2.929888   -0.035607
      9          7           0       -1.187238    0.443677   -0.945422
     10          6           0       -0.171347    1.344864   -1.211593
     11          8           0       -0.194310    2.096431   -2.179348
     12          7           0        0.892367    1.344116   -0.302786
     13          6           0        1.541324    0.095390    0.099096
     14          6           0        2.230231   -0.701268   -1.025659
     15          6           0        3.120195   -1.674853   -0.244193
     16          6           0        3.634551   -0.873885    0.986949
     17          6           0        2.665255    0.332926    1.122840
     18          8           0        5.009282   -0.498518    0.927505
     19          6           0        5.427066    0.206855   -0.222161
     20          1           0       -2.716550    0.918605    2.891682
     21          1           0       -3.966395   -0.115407    2.172900
     22          1           0       -4.256220    1.613199    2.369285
     23          1           0       -3.689021    1.003468   -0.020568
     24          1           0       -1.616390    2.816188    1.336476
     25          1           0       -2.100637    2.885423   -0.364973
     26          1           0       -3.265097    3.298682    0.900820
     27          1           0       -0.938042    0.408859    1.112160
     28          1           0       -1.209217   -1.888790    0.270812
     29          1           0       -2.365256   -1.555681    1.548704
     30          1           0       -4.385690   -3.154333   -0.700913
     31          1           0       -1.903250    0.476881   -1.663116
     32          1           0        1.565328    2.036930   -0.617900
     33          1           0        0.784891   -0.551761    0.552145
     34          1           0        1.509682   -1.188178   -1.689636
     35          1           0        2.833562   -0.016131   -1.635387
     36          1           0        3.943557   -2.100671   -0.824301
     37          1           0        2.516300   -2.518072    0.113476
     38          1           0        3.596418   -1.498568    1.882896
     39          1           0        3.196881    1.258753    0.873891
     40          1           0        2.286358    0.455163    2.141252
     41          1           0        5.313478   -0.383073   -1.142783
     42          1           0        4.893684    1.159991   -0.356766
     43          1           0        6.488282    0.425159   -0.079164
 ---------------------------------------------------------------------

 SCF Done:  E(UB3LYP) =  -920.610598933     A.U. after   33 cycles
 SCF Done:  E(UB3LYP) =  -920.610598933     a.u. after    1 cycles

 The electronic state is 2-A.
 Alpha  occ. eigenvalues --  -19.08149 -19.04360 -19.03139 -18.99804 -14.23971
 Alpha  occ. eigenvalues --  -14.23497 -10.22274 -10.20485 -10.13723 -10.13408
 Alpha  occ. eigenvalues --  -10.13037 -10.12547 -10.09773 -10.09216 -10.08457
 Alpha  occ. eigenvalues --  -10.08287 -10.08252 -10.07659 -10.07251  -1.02430
 Alpha  occ. eigenvalues --   -0.96102  -0.95398  -0.93577  -0.84750  -0.82307
 Alpha  occ. eigenvalues --   -0.74221  -0.72260  -0.68155  -0.64579  -0.63350
 Alpha  occ. eigenvalues --   -0.60157  -0.59119  -0.58567  -0.52384  -0.51407
 Alpha  occ. eigenvalues --   -0.51048  -0.48666  -0.48249  -0.44233  -0.42250
 Alpha  occ. eigenvalues --   -0.41864  -0.40936  -0.39961  -0.38942  -0.38370
 Alpha  occ. eigenvalues --   -0.38216  -0.37496  -0.36241  -0.35807  -0.35007
 Alpha  occ. eigenvalues --   -0.33828  -0.33729  -0.32137  -0.31784  -0.31225
 Alpha  occ. eigenvalues --   -0.30782  -0.30306  -0.30142  -0.29597  -0.28909
 Alpha  occ. eigenvalues --   -0.28361  -0.27025  -0.26425  -0.26139  -0.25437
 Alpha  occ. eigenvalues --   -0.25033  -0.24600  -0.23759  -0.22509  -0.19858
 Alpha  occ. eigenvalues --   -0.19489  -0.17872  -0.16576  -0.15996   0.03640
 Alpha virt. eigenvalues --    0.05358   0.06044   0.06431   0.07491   0.07720
 Alpha virt. eigenvalues --    0.08072   0.08429   0.09048   0.09760   0.09897
 Alpha virt. eigenvalues --    0.09991   0.10476   0.10934   0.11528   0.11927

  Beta  occ. eigenvalues --  -19.08096 -19.04360 -19.03124 -18.99802 -14.23967
  Beta  occ. eigenvalues --  -14.23495 -10.22263 -10.20483 -10.13712 -10.13389
  Beta  occ. eigenvalues --  -10.13029 -10.12535 -10.09732 -10.09213 -10.08440
  Beta  occ. eigenvalues --  -10.08267 -10.08241 -10.07634 -10.07246  -1.02361
  Beta  occ. eigenvalues --   -0.96098  -0.95392  -0.93517  -0.84742  -0.82295
  Beta  occ. eigenvalues --   -0.74197  -0.72239  -0.68101  -0.64551  -0.63313
  Beta  occ. eigenvalues --   -0.60123  -0.59064  -0.58529  -0.52357  -0.51349
  Beta  occ. eigenvalues --   -0.50992  -0.48620  -0.48209  -0.44213  -0.42216
  Beta  occ. eigenvalues --   -0.41816  -0.40902  -0.39918  -0.38913  -0.38338
  Beta  occ. eigenvalues --   -0.38196  -0.37474  -0.36212  -0.35775  -0.34980
  Beta  occ. eigenvalues --   -0.33811  -0.33702  -0.32106  -0.31761  -0.31195
  Beta  occ. eigenvalues --   -0.30760  -0.30270  -0.30118  -0.29573  -0.28873
  Beta  occ. eigenvalues --   -0.28336  -0.26994  -0.26400  -0.26109  -0.25404
  Beta  occ. eigenvalues --   -0.25009  -0.24571  -0.23706  -0.22489  -0.19818
  Beta  occ. eigenvalues --   -0.19484  -0.17862  -0.16566  -0.15988
  Beta virt. eigenvalues --    0.05503   0.06191   0.06849   0.07192   0.07785
  Beta virt. eigenvalues --    0.07814   0.08165   0.08607   0.09410   0.09913
  Beta virt. eigenvalues --    0.10218   0.10272   0.10613   0.10959   0.11652

 Mulliken charges and spin densities:
               1          2
     1  C    0.051901  -0.801917
     2  C   -0.077374   0.347082
     3  C   -0.527234  -0.068583
     4  C   -0.440145   0.153863
     5  C    1.760578  -2.128718
     6  C   -0.777362   0.616845
     7  O   -0.249880  -0.008905
     8  O   -0.145972   0.050516
     9  N   -0.102494   0.097706
    10  C   -0.056122  -0.019583
    11  O   -0.279689   0.000535
    12  N    0.027712   0.022336
    13  C   -0.632237   0.161585
    14  C   -0.126963   0.118162
    15  C    0.797172  -1.275746
    16  C   -1.442833   1.071974
    17  C    0.469410  -0.765683
    18  O   -0.070601  -0.017429
    19  C    0.176251  -0.457137
    20  H   -0.280301   0.440562
    21  H   -0.050433   0.212654
    22  H    0.079430   0.056121
    23  H    0.172504   0.020741
    24  H    0.102228   0.038778
    25  H    0.207019  -0.005471
    26  H    0.078969   0.076892
    27  H    0.788189  -0.580525
    28  H   -0.402788   0.647422
    29  H   -0.219504   0.466081
    30  H   -0.498038   0.786934
    31  H    0.340601  -0.003526
    32  H    0.294321   0.004249
    33  H    0.431642  -0.334377
    34  H    0.162588   0.027417
    35  H    0.140841   0.035539
    36  H    0.052338   0.151088
    37  H   -0.143566   0.291031
    38  H   -0.406992   0.657095
    39  H    0.116733   0.038887
    40  H   -0.360960   0.519989
    41  H    0.028507   0.092488
    42  H   -0.008077   0.123250
    43  H    0.020631   0.139780
 Sum of Mulliken charges =  -1.00000   1.00000

 Dipole moment (field-independent basis, Debye):
    X=              2.6632    Y=              5.1420    Z=             -1.3975  Tot=              5.9570
 Quadrupole moment (field-independent basis, Debye-Ang):
   XX=           -199.1203   YY=           -171.0581   ZZ=           -165.8963
   XY=            -11.2270   XZ=            -10.6425   YZ=              8.4159

 Summary of Natural Population Analysis:

                                       Natural Population
                Natural  -----------------------------------------------
    Atom  No    Charge         Core      Valence    Rydberg      Total
 -----------------------------------------------------------------------
      C    1   -0.28665      0.99965     2.28139    0.00562     3.28665
      C    2   -0.11887      0.99959     2.11070    0.00859     3.11887
      C    3   -0.28793      0.99965     2.28344    0.00484     3.28793
      C    4   -0.01057      0.99956     1.99625    0.01476     3.01057
      C    5   -0.24532      0.99955     2.23486    0.01091     3.24532
      C    6    0.41341      0.99972     1.56158    0.02529     2.58659
      O    7   -0.31631      0.99987     3.31072    0.00573     4.31631
      O    8   -0.33921      0.99988     3.33285    0.00648     4.33921
      N    9   -0.34088      0.99966     2.83143    0.00979     3.84088
      C   10    0.41289      0.99970     1.56377    0.02365     2.58711
      O   11   -0.33425      0.99987     3.32944    0.00494     4.33425
      N   12   -0.33727      0.99967     2.82803    0.00958     3.83727
      C   13   -0.01694      0.99956     2.00415    0.01323     3.01694
      C   14   -0.19766      0.99961     2.18998    0.00807     3.19766
      C   15   -0.21044      0.99962     2.20186    0.00896     3.21044
      C   16    0.06995      0.99955     1.91459    0.01591     2.93005
      C   17   -0.20567      0.99960     2.19544    0.01062     3.20567
      O   18   -0.29882      0.99988     3.28913    0.00981     4.29882
      C   19   -0.10047      0.99960     2.09251    0.00836     3.10047
      H   20    0.09903      0.00000     0.39993    0.00104     0.40097
      H   21    0.10154      0.00000     0.39749    0.00096     0.39846
      H   22    0.09937      0.00000     0.39991    0.00072     0.40063
      H   23    0.10169      0.00000     0.39658    0.00173     0.39831
      H   24    0.09871      0.00000     0.40041    0.00088     0.40129
      H   25    0.10743      0.00000     0.39175    0.00083     0.39257
      H   26    0.09703      0.00000     0.40230    0.00068     0.40297
      H   27    0.10592      0.00000     0.39147    0.00261     0.39408
      H   28    0.12473      0.00000     0.37327    0.00201     0.37527
      H   29    0.11932      0.00000     0.37922    0.00147     0.38068
      H   30    0.24385      0.00000     0.24260    0.01355     0.25615
      H   31    0.20332      0.00000     0.29480    0.00188     0.29668
      H   32    0.18740      0.00000     0.31054    0.00207     0.31260
      H   33    0.09958      0.00000     0.39761    0.00281     0.40042
      H   34    0.10710      0.00000     0.39188    0.00102     0.39290
      H   35    0.09383      0.00000     0.40481    0.00136     0.40617
      H   36    0.10427      0.00000     0.39489    0.00083     0.39573
      H   37    0.10763      0.00000     0.39072    0.00165     0.39237
      H   38    0.09650      0.00000     0.40178    0.00172     0.40350
      H   39    0.09820      0.00000     0.40045    0.00135     0.40180
      H   40    0.10972      0.00000     0.38892    0.00136     0.39028
      H   41    0.07873      0.00000     0.41996    0.00131     0.42127
      H   42    0.07605      0.00000     0.42261    0.00135     0.42395
      H   43    0.09008      0.00000     0.40894    0.00098     0.40992
 =======================================================================
   * Total *   -0.00000     18.99378    54.75493    0.25129    74.00000

 Normal termination of Gaussian 16 at Sat Dec 12 17:33:41 2020.
