 Gaussian 16, Revision A.03,

 -----------------------------------------------------------
 # opt freq B3LYP/6-31G(d) empiricaldispersion=gd3bj scf=xqc
 -----------------------------------------------------------

 -------------------------------
 CID_76983536_JID_10634_neutraal
 -------------------------------
 Symbolic Z-matrix:
 Charge =  0 Multiplicity = 1

 SCF Done:  E(RB3LYP) =  -899.198886773     A.U. after   15 cycles
 SCF Done:  E(RB3LYP) =  -899.202951438     A.U. after   13 cycles
 SCF Done:  E(RB3LYP) =  -899.201940213     A.U. after   14 cycles
 SCF Done:  E(RB3LYP) =  -899.204085270     A.U. after   13 cycles
 SCF Done:  E(RB3LYP) =  -899.204409644     A.U. after   12 cycles
 SCF Done:  E(RB3LYP) =  -899.204532499     A.U. after   12 cycles
 SCF Done:  E(RB3LYP) =  -899.204555117     A.U. after   12 cycles
 SCF Done:  E(RB3LYP) =  -899.204589166     A.U. after   12 cycles
 SCF Done:  E(RB3LYP) =  -899.204594509     A.U. after   10 cycles
 SCF Done:  E(RB3LYP) =  -899.204596217     A.U. after    9 cycles
 SCF Done:  E(RB3LYP) =  -899.204596442     A.U. after    8 cycles
 SCF Done:  E(RB3LYP) =  -899.204596556     A.U. after    8 cycles
 SCF Done:  E(RB3LYP) =  -899.204596643     A.U. after    8 cycles
 SCF Done:  E(RB3LYP) =  -899.204596679     A.U. after    7 cycles
 SCF Done:  E(RB3LYP) =  -899.204596694     A.U. after    7 cycles
 Optimization completed.
    -- Stationary point found.
 Normal termination of Gaussian 16 at Sun Dec 13 16:51:12 2020.

 --------------------------------------------------------------------
 #N Geom=AllCheck Guess=TCheck SCRF=Check GenChk RB3LYP/6-31G(d) Freq
 --------------------------------------------------------------------

 Structure from the checkpoint file:  "JID_10634.chk"
 -------------------------------
 CID_76983536_JID_10634_neutraal
 -------------------------------
 Charge =  0 Multiplicity = 1

 SCF Done:  E(RB3LYP) =  -899.204596694     A.U. after    1 cycles

  Exact polarizability: 230.686 -29.674 190.526 -29.194 -15.783 106.445
 Approx polarizability: 330.996 -58.465 327.443 -57.476 -35.285 186.451

                      1                      2                      3
                      A                      A                      A
 Frequencies --     13.4018                21.4249                29.4938
 Red. masses --      6.0252                 3.9088                 6.5083
 Frc consts  --      0.0006                 0.0011                 0.0033
 IR Inten    --      0.1046                 0.0605                 1.0444

                      4                      5                      6
                      A                      A                      A
 Frequencies --     52.4055                78.7660                90.5953
 Red. masses --      6.1245                 5.5218                 7.1387
 Frc consts  --      0.0099                 0.0202                 0.0345
 IR Inten    --      0.1765                 1.0569                 0.7520

                      7                      8                      9
                      A                      A                      A
 Frequencies --    100.3922               115.6107               155.2627
 Red. masses --      3.5543                 5.1785                 4.3334
 Frc consts  --      0.0211                 0.0408                 0.0615
 IR Inten    --      0.5562                 2.6999                 0.4864

                     10                     11                     12
                      A                      A                      A
 Frequencies --    169.0476               229.1312               251.6859
 Red. masses --      4.1036                 3.4179                 4.1848
 Frc consts  --      0.0691                 0.1057                 0.1562
 IR Inten    --      3.4045                 3.7216                 2.1466

                     13                     14                     15
                      A                      A                      A
 Frequencies --    278.5376               329.7304               334.6582
 Red. masses --      3.4903                 4.4839                 4.1504
 Frc consts  --      0.1595                 0.2872                 0.2739
 IR Inten    --      4.9302                 0.0599                 8.8163

                     16                     17                     18
                      A                      A                      A
 Frequencies --    357.7099               363.8848               408.1591
 Red. masses --      3.8410                 4.3407                 2.9734
 Frc consts  --      0.2896                 0.3386                 0.2919
 IR Inten    --      1.3625                 3.0597                 3.0448

                     19                     20                     21
                      A                      A                      A
 Frequencies --    414.3115               435.0209               479.5458
 Red. masses --      2.9731                 3.6510                 3.0146
 Frc consts  --      0.3007                 0.4071                 0.4084
 IR Inten    --      0.2218                 5.5842                 5.0121

                     22                     23                     24
                      A                      A                      A
 Frequencies --    501.1794               563.5279               576.1301
 Red. masses --      5.1154                 3.8272                 3.0735
 Frc consts  --      0.7570                 0.7161                 0.6011
 IR Inten    --      6.4521                23.8333                 7.9777

                     25                     26                     27
                      A                      A                      A
 Frequencies --    604.2118               623.9853               636.1789
 Red. masses --      1.4262                 4.6234                 6.3753
 Frc consts  --      0.3068                 1.0606                 1.5202
 IR Inten    --     52.8580                 2.4537                 0.0683

                     28                     29                     30
                      A                      A                      A
 Frequencies --    641.5747               645.9571               706.1640
 Red. masses --      5.0468                 4.6400                 1.9054
 Frc consts  --      1.2239                 1.1407                 0.5598
 IR Inten    --     55.9324                 0.4759                20.0415

                     31                     32                     33
                      A                      A                      A
 Frequencies --    746.8813               757.3276               766.3962
 Red. masses --      4.1661                 4.7748                 1.6802
 Frc consts  --      1.3693                 1.6135                 0.5814
 IR Inten    --     31.2153                71.7371                36.8087

                     34                     35                     36
                      A                      A                      A
 Frequencies --    809.9572               823.2324               836.4985
 Red. masses --      1.9900                 2.7305                 2.5591
 Frc consts  --      0.7692                 1.0903                 1.0551
 IR Inten    --     13.6026                13.1779                 0.2460

                     37                     38                     39
                      A                      A                      A
 Frequencies --    851.2635               861.4811               872.6114
 Red. masses --      1.6556                 1.7531                 5.2067
 Frc consts  --      0.7069                 0.7666                 2.3359
 IR Inten    --      4.1663                 8.4212                18.8737

                     40                     41                     42
                      A                      A                      A
 Frequencies --    924.8609               933.6661               962.0238
 Red. masses --      1.7470                 2.6600                 1.3902
 Frc consts  --      0.8804                 1.3662                 0.7581
 IR Inten    --      8.9649                 6.6753                 2.0742

                     43                     44                     45
                      A                      A                      A
 Frequencies --    965.2880               987.2678               993.4818
 Red. masses --      1.3527                 1.8146                 1.2854
 Frc consts  --      0.7426                 1.0421                 0.7475
 IR Inten    --      0.0597                 2.1855                 4.1081

                     46                     47                     48
                      A                      A                      A
 Frequencies --    994.4746              1019.6118              1020.7048
 Red. masses --      1.3685                 1.9315                 1.8509
 Frc consts  --      0.7974                 1.1831                 1.1362
 IR Inten    --      1.2826                17.4017                19.7807

                     49                     50                     51
                      A                      A                      A
 Frequencies --   1043.9239              1062.3518              1088.7491
 Red. masses --      2.0794                 2.1343                 2.7746
 Frc consts  --      1.3352                 1.4192                 1.9378
 IR Inten    --      7.0620                 2.7620                 4.1050

                     52                     53                     54
                      A                      A                      A
 Frequencies --   1099.0787              1113.4981              1128.2556
 Red. masses --      3.5996                 2.2037                 3.2378
 Frc consts  --      2.5619                 1.6098                 2.4284
 IR Inten    --     62.1139                70.6641                66.1473

                     55                     56                     57
                      A                      A                      A
 Frequencies --   1133.2697              1157.0900              1194.7821
 Red. masses --      2.6935                 2.0459                 1.0969
 Frc consts  --      2.0382                 1.6139                 0.9225
 IR Inten    --     65.7932                92.6084                 0.1639

                     58                     59                     60
                      A                      A                      A
 Frequencies --   1208.8321              1217.2905              1247.2231
 Red. masses --      1.8827                 1.1425                 1.9557
 Frc consts  --      1.6210                 0.9975                 1.7924
 IR Inten    --     82.0821                 0.2194                 2.0076

                     61                     62                     63
                      A                      A                      A
 Frequencies --   1250.6319              1275.8139              1289.9832
 Red. masses --      2.1256                 1.4398                 1.7331
 Frc consts  --      1.9588                 1.3808                 1.6992
 IR Inten    --     36.4435                 2.7525                 3.7880

                     64                     65                     66
                      A                      A                      A
 Frequencies --   1316.2130              1323.1416              1333.3012
 Red. masses --      1.9351                 1.9601                 1.2512
 Frc consts  --      1.9751                 2.0218                 1.3105
 IR Inten    --      3.5229                 7.9026                 4.6426

                     67                     68                     69
                      A                      A                      A
 Frequencies --   1344.7398              1372.7887              1384.5556
 Red. masses --      1.9771                 2.2591                 1.3097
 Frc consts  --      2.1064                 2.5084                 1.4792
 IR Inten    --      6.1946                 0.7738                 6.5581

                     70                     71                     72
                      A                      A                      A
 Frequencies --   1390.4136              1410.9936              1430.8199
 Red. masses --      2.4411                 1.3025                 1.4041
 Frc consts  --      2.7805                 1.5278                 1.6937
 IR Inten    --     53.7502                16.3791                38.0314

                     73                     74                     75
                      A                      A                      A
 Frequencies --   1486.8122              1500.1798              1502.0247
 Red. masses --      2.6310                 2.2146                 2.3160
 Frc consts  --      3.4268                 2.9365                 3.0786
 IR Inten    --      9.5150                 6.9622                 5.6952

                     76                     77                     78
                      A                      A                      A
 Frequencies --   1514.9256              1524.1022              1548.7485
 Red. masses --      1.1019                 1.1014                 2.2269
 Frc consts  --      1.4900                 1.5073                 3.1472
 IR Inten    --      4.3597                 5.6494                10.4544

                     79                     80                     81
                      A                      A                      A
 Frequencies --   1625.3100              1638.6499              1648.0291
 Red. masses --      5.9510                 5.2483                 6.0910
 Frc consts  --      9.2622                 8.3030                 9.7470
 IR Inten    --     24.1540                 2.4851                 4.0992

                     82                     83                     84
                      A                      A                      A
 Frequencies --   1665.4266              1730.2745              1852.4952
 Red. masses --      5.5056                 5.6844                10.4131
 Frc consts  --      8.9972                10.0268                21.0545
 IR Inten    --      1.2945                10.7795               246.7365

                     85                     86                     87
                      A                      A                      A
 Frequencies --   3037.7643              3045.1420              3100.4947
 Red. masses --      1.0671                 1.0651                 1.0999
 Frc consts  --      5.8018                 5.8190                 6.2297
 IR Inten    --     60.3643                 8.3229                25.7279

                     88                     89                     90
                      A                      A                      A
 Frequencies --   3120.5020              3148.5915              3167.7163
 Red. masses --      1.0954                 1.0889                 1.0883
 Frc consts  --      6.2847                 6.3602                 6.4342
 IR Inten    --     16.2918                13.9257                18.3016

                     91                     92                     93
                      A                      A                      A
 Frequencies --   3178.2839              3180.7195              3186.9267
 Red. masses --      1.0865                 1.0887                 1.0865
 Frc consts  --      6.4665                 6.4897                 6.5014
 IR Inten    --     12.3513                14.4905                 0.4231

                     94                     95                     96
                      A                      A                      A
 Frequencies --   3192.1455              3196.4354              3205.4770
 Red. masses --      1.0900                 1.0906                 1.0933
 Frc consts  --      6.5439                 6.5650                 6.6186
 IR Inten    --     13.9040                14.1483                33.2952

                     97                     98                     99
                      A                      A                      A
 Frequencies --   3213.8313              3214.9000              3680.6154
 Red. masses --      1.0977                 1.0965                 1.0637
 Frc consts  --      6.6804                 6.6773                 8.4902
 IR Inten    --     19.9842                16.4037                62.4369

 - Thermochemistry -
 -------------------
 Temperature   298.150 Kelvin.  Pressure   1.00000 Atm.
 Atom     1 has atomic number  6 and mass  12.00000

 Molecular mass:   269.10519 amu.
 Principal axes and moments of inertia in atomic units:
                           1         2         3
     Eigenvalues --  2596.819649950.76781**********
           X            1.00000  -0.00258   0.00011
           Y            0.00259   0.99997  -0.00790
           Z           -0.00009   0.00790   0.99997
 This molecule is an asymmetric top.
 Rotational symmetry number  1.
 Warning -- assumption of classical behavior for rotation
           may cause significant error
 Rotational temperatures (Kelvin)      0.03335     0.00870     0.00751
 Rotational constants (GHZ):           0.69498     0.18137     0.15651
 Zero-point vibrational energy     737252.4 (Joules/Mol)
                                  176.20756 (Kcal/Mol)
 Warning -- explicit consideration of  25 degrees of freedom as
           vibrations may cause significant error
 Vibrational temperatures:     19.28    30.83    42.43    75.40   113.33
          (Kelvin)            130.35   144.44   166.34   223.39   243.22
                              329.67   362.12   400.75   474.41   481.50
                              514.66   523.55   587.25   596.10   625.90
                              689.96   721.09   810.79   828.92   869.33
                              897.78   915.32   923.08   929.39  1016.01
                             1074.60  1089.63  1102.67  1165.35  1184.45
                             1203.53  1224.78  1239.48  1255.49  1330.67
                             1343.34  1384.14  1388.83  1420.46  1429.40
                             1430.83  1466.99  1468.57  1501.97  1528.49
                             1566.47  1581.33  1602.08  1623.31  1630.52
                             1664.79  1719.02  1739.24  1751.41  1794.48
                             1799.38  1835.61  1856.00  1893.74  1903.71
                             1918.32  1934.78  1975.14  1992.07  2000.50
                             2030.11  2058.63  2139.19  2158.42  2161.08
                             2179.64  2192.84  2228.30  2338.46  2357.65
                             2371.15  2396.18  2489.48  2665.33  4370.67
                             4381.28  4460.92  4489.71  4530.12  4557.64
                             4572.84  4576.35  4585.28  4592.79  4598.96
                             4611.97  4623.99  4625.52  5295.58

 Zero-point correction=                           0.280805 (Hartree/Particle)
 Thermal correction to Energy=                    0.298262
 Thermal correction to Enthalpy=                  0.299207
 Thermal correction to Gibbs Free Energy=         0.231985
 Sum of electronic and zero-point Energies=           -898.923792
 Sum of electronic and thermal Energies=              -898.906334
 Sum of electronic and thermal Enthalpies=            -898.905390
 Sum of electronic and thermal Free Energies=         -898.972612

                     E (Thermal)             CV                S
                      KCal/Mol        Cal/Mol-Kelvin    Cal/Mol-Kelvin
 Total                  187.162             66.292            141.479
 Electronic               0.000              0.000              0.000
 Translational            0.889              2.981             42.669
 Rotational               0.889              2.981             34.054
 Vibrational            185.385             60.330             64.756
 Vibration     1          0.593              1.987              7.429
 Vibration     2          0.593              1.985              6.498
 Vibration     3          0.593              1.984              5.863
 Vibration     4          0.596              1.977              4.724
 Vibration     5          0.600              1.963              3.921
 Vibration     6          0.602              1.956              3.647
 Vibration     7          0.604              1.949              3.447
 Vibration     8          0.608              1.936              3.172
 Vibration     9          0.620              1.897              2.607
 Vibration    10          0.625              1.881              2.446
 Vibration    11          0.652              1.797              1.886
 Vibration    12          0.664              1.760              1.719
 Vibration    13          0.679              1.713              1.543
 Vibration    14          0.713              1.616              1.261
 Vibration    15          0.716              1.606              1.238
 Vibration    16          0.733              1.559              1.132
 Vibration    17          0.737              1.547              1.105
 Vibration    18          0.773              1.453              0.933
 Vibration    19          0.778              1.439              0.912
 Vibration    20          0.796              1.394              0.842
 Vibration    21          0.836              1.295              0.711
 Vibration    22          0.857              1.247              0.655
 Vibration    23          0.919              1.110              0.517
 Vibration    24          0.933              1.083              0.493
 Vibration    25          0.963              1.023              0.442

 Optimization completed.
    -- Stationary point found.
 Normal termination of Gaussian 16 at Sun Dec 13 17:08:59 2020.

 ----------------------------------------------------------------------
 # B3LYP/6-311++G(d,p) empiricaldispersion=gd3bj scf=xqc pop=npa geom=c
 heck
 ----------------------------------------------------------------------

 ---------------------------------------
 CID_76983536_JID_10634_Energie_neutraal
 ---------------------------------------
 Structure from the checkpoint file:  "JID_10634.chk"
 Charge =  0 Multiplicity = 1

 SCF Done:  E(RB3LYP) =  -899.455447515     A.U. after   16 cycles
 Normal termination of Gaussian 16 at Sun Dec 13 17:15:46 2020.

 ----------------------------------------------------------------------
 # B3LYP/6-311++G(d,p) empiricaldispersion=gd3bj scf=xqc pop=npa geom=c
 heck
 ----------------------------------------------------------------------

 -------------------------------------
 CID_76983536_JID_10634_Energie_kation
 -------------------------------------
 Structure from the checkpoint file:  "JID_10634.chk"
 Charge =  1 Multiplicity = 2

 SCF Done:  E(UB3LYP) =  -899.153735476     A.U. after   28 cycles
 Normal termination of Gaussian 16 at Sun Dec 13 17:32:12 2020.
 Gaussian 16:  ES64L-G16RevA.03 25-Dec-2016

 ----------------------------------------------------------------------
 # B3LYP/6-311++G(d,p) empiricaldispersion=gd3bj scf=xqc pop=npa geom=c
 heck
 ----------------------------------------------------------------------

 ------------------------------------
 CID_76983536_JID_10634_Energie_anion
 ------------------------------------
 Structure from the checkpoint file:  "JID_10634.chk"
 Charge = -1 Multiplicity = 2

                         Standard orientation:
 ---------------------------------------------------------------------
 Center     Atomic      Atomic             Coordinates (Angstroms)
 Number     Number       Type             X           Y           Z
 ---------------------------------------------------------------------
      1          6           0       -5.568440    0.432901    0.214815
      2          6           0       -5.128540   -0.881701    0.395328
      3          6           0       -3.818160   -1.233340    0.089100
      4          6           0       -2.913046   -0.275930   -0.402219
      5          6           0       -3.372805    1.038624   -0.586864
      6          6           0       -4.684972    1.392364   -0.279527
      7          6           0       -1.513097   -0.582770   -0.714859
      8          6           0       -0.830779   -1.697356   -0.414693
      9          6           0        0.621127   -1.868636   -0.746429
     10          8           0        1.447176   -2.016853    0.418448
     11          6           0        1.313351   -0.975730    1.378516
     12          6           0        1.603671    0.401127    0.819639
     13          6           0        2.729600    0.655662    0.020776
     14          7           0        3.000449    1.840403   -0.539204
     15          6           0        2.154610    2.846678   -0.299094
     16          6           0        1.000902    2.709836    0.473230
     17          6           0        0.720723    1.462705    1.024863
     18          6           0        3.696380   -0.444421   -0.334040
     19          8           0        3.952641   -0.791155   -1.462442
     20          8           0        4.265617   -0.990341    0.765414
     21          1           0       -6.593304    0.703104    0.452258
     22          1           0       -5.813645   -1.636528    0.771165
     23          1           0       -3.495535   -2.261728    0.220162
     24          1           0       -2.685165    1.787893   -0.971940
     25          1           0       -5.017810    2.415726   -0.428616
     26          1           0       -0.973782    0.214759   -1.226427
     27          1           0       -1.298950   -2.513179    0.134285
     28          1           0        0.797622   -2.788961   -1.312449
     29          1           0        0.972166   -1.027664   -1.359114
     30          1           0        0.306797   -0.973265    1.817650
     31          1           0        2.032351   -1.229595    2.161619
     32          1           0        2.408141    3.801436   -0.755100
     33          1           0        0.334704    3.553752    0.623316
     34          1           0       -0.186695    1.302203    1.601206
     35          1           0        4.823345   -1.724052    0.443811
 ---------------------------------------------------------------------

 SCF Done:  E(UB3LYP) =  -899.466337306     A.U. after   33 cycles
 SCF Done:  E(UB3LYP) =  -899.466337306     a.u. after    1 cycles

 The electronic state is 2-A.
 Alpha  occ. eigenvalues --  -19.05767 -19.00566 -18.99372 -14.19671 -10.18155
 Alpha  occ. eigenvalues --  -10.10339 -10.09383 -10.09117 -10.09017 -10.07556
 Alpha  occ. eigenvalues --  -10.06831 -10.06377 -10.06181 -10.05855 -10.05542
 Alpha  occ. eigenvalues --  -10.05457 -10.05179 -10.05109 -10.04226 -10.03610
 Alpha  occ. eigenvalues --   -0.99477  -0.91532  -0.90443  -0.83086  -0.74166
 Alpha  occ. eigenvalues --   -0.69916  -0.67707  -0.66737  -0.63222  -0.62873
 Alpha  occ. eigenvalues --   -0.59194  -0.56052  -0.53676  -0.50381  -0.49321
 Alpha  occ. eigenvalues --   -0.48849  -0.47302  -0.43525  -0.41511  -0.40433
 Alpha  occ. eigenvalues --   -0.39165  -0.37453  -0.37049  -0.36619  -0.35085
 Alpha  occ. eigenvalues --   -0.34816  -0.34168  -0.32646  -0.32279  -0.31116
 Alpha  occ. eigenvalues --   -0.30784  -0.30307  -0.29240  -0.28607  -0.28561
 Alpha  occ. eigenvalues --   -0.27489  -0.26092  -0.25840  -0.24822  -0.23345
 Alpha  occ. eigenvalues --   -0.22332  -0.21169  -0.19581  -0.18758  -0.17872
 Alpha  occ. eigenvalues --   -0.16982  -0.15474  -0.15040  -0.14440  -0.13901
 Alpha  occ. eigenvalues --   -0.11002   0.03742
 Alpha virt. eigenvalues --    0.05876   0.07372   0.07936   0.08176   0.08346
 Alpha virt. eigenvalues --    0.09071   0.09801   0.09835   0.10205   0.10806
 Alpha virt. eigenvalues --    0.11256   0.11648   0.12472   0.12823   0.13170

  Beta  occ. eigenvalues --  -19.05743 -19.00496 -18.99273 -14.19662 -10.18072
  Beta  occ. eigenvalues --  -10.10337 -10.09390 -10.09076 -10.08808 -10.07584
  Beta  occ. eigenvalues --  -10.06729 -10.06235 -10.06227 -10.05844 -10.05446
  Beta  occ. eigenvalues --  -10.05394 -10.04986 -10.04978 -10.04120 -10.03433
  Beta  occ. eigenvalues --   -0.99361  -0.91374  -0.90296  -0.82906  -0.73933
  Beta  occ. eigenvalues --   -0.69728  -0.67373  -0.66395  -0.63050  -0.62594
  Beta  occ. eigenvalues --   -0.58965  -0.55786  -0.53476  -0.50116  -0.49237
  Beta  occ. eigenvalues --   -0.48683  -0.47118  -0.43298  -0.41371  -0.40326
  Beta  occ. eigenvalues --   -0.39017  -0.37281  -0.36903  -0.36443  -0.34930
  Beta  occ. eigenvalues --   -0.34696  -0.34037  -0.32427  -0.32066  -0.31006
  Beta  occ. eigenvalues --   -0.30702  -0.30152  -0.29169  -0.28471  -0.28277
  Beta  occ. eigenvalues --   -0.27258  -0.25782  -0.25401  -0.24726  -0.23211
  Beta  occ. eigenvalues --   -0.22246  -0.20841  -0.19441  -0.18062  -0.17256
  Beta  occ. eigenvalues --   -0.16656  -0.15306  -0.14336  -0.13965  -0.13578
  Beta  occ. eigenvalues --   -0.09949
  Beta virt. eigenvalues --    0.07326   0.07433   0.07567   0.08147   0.08365
  Beta virt. eigenvalues --    0.08810   0.09021   0.09759   0.09971   0.10146
  Beta virt. eigenvalues --    0.10751   0.11230   0.11648   0.12421   0.13007

 Mulliken charges and spin densities:
               1          2
     1  C   -0.367463   0.154213
     2  C   -0.330541  -0.031526
     3  C   -0.772152   0.126882
     4  C    0.909662   0.056684
     5  C   -0.075238   0.032931
     6  C   -0.381654   0.017542
     7  C   -0.280854  -0.000665
     8  C    0.244894   0.236690
     9  C   -0.498613  -0.035345
    10  O   -0.018700  -0.013227
    11  C   -0.450022  -0.063322
    12  C    1.625683   0.088478
    13  C   -0.929653   0.137477
    14  N    0.089072  -0.003438
    15  C   -0.008294   0.031865
    16  C   -0.412659   0.113922
    17  C   -0.562201  -0.006302
    18  C   -0.545001   0.011435
    19  O   -0.232434   0.032890
    20  O   -0.087267  -0.002195
    21  H    0.107563  -0.012711
    22  H    0.135273   0.003006
    23  H    0.067271  -0.007822
    24  H    0.099511   0.008292
    25  H    0.129807  -0.000353
    26  H    0.098171  -0.006557
    27  H    0.144854   0.005126
    28  H    0.131547   0.026183
    29  H    0.190496  -0.001290
    30  H    0.153149   0.003222
    31  H    0.163277   0.044426
    32  H    0.167680  -0.002011
    33  H    0.145688  -0.009052
    34  H    0.151597   0.001525
    35  H    0.197551   0.063027
 Sum of Mulliken charges =  -1.00000   1.00000

 Dipole moment (field-independent basis, Debye):
    X=             -1.2899    Y=              0.6646    Z=              2.4993  Tot=              2.8900
 Quadrupole moment (field-independent basis, Debye-Ang):
   XX=           -186.5626   YY=           -130.2033   ZZ=           -134.0156
   XY=             -3.8715   XZ=              5.4251   YZ=             -1.8722

 Summary of Natural Population Analysis:

                                       Natural Population
                Natural  -----------------------------------------------
    Atom  No    Charge         Core      Valence    Rydberg      Total
 -----------------------------------------------------------------------
      C    1   -0.07759      0.99957     2.06822    0.00979     3.07759
      C    2   -0.11772      0.99958     2.10887    0.00927     3.11772
      C    3   -0.07085      0.99953     2.06336    0.00795     3.07085
      C    4   -0.01898      0.99950     2.01048    0.00899     3.01898
      C    5   -0.08625      0.99954     2.07844    0.00827     3.08625
      C    6   -0.10892      0.99957     2.09996    0.00939     3.10892
      C    7   -0.07679      0.99951     2.06816    0.00912     3.07679
      C    8   -0.07546      0.99952     2.06894    0.00700     3.07546
      C    9   -0.02876      0.99956     2.01549    0.01372     3.02876
      O   10   -0.29561      0.99989     3.28625    0.00947     4.29561
      C   11   -0.02225      0.99954     2.00842    0.01429     3.02225
      C   12   -0.02311      0.99947     2.01406    0.00959     3.02311
      C   13    0.08920      0.99941     1.89325    0.01814     2.91080
      N   14   -0.22231      0.99969     2.71300    0.00962     3.72231
      C   15    0.02544      0.99960     1.96126    0.01370     2.97456
      C   16   -0.09941      0.99957     2.09151    0.00834     3.09941
      C   17   -0.08494      0.99952     2.07691    0.00850     3.08494
      C   18    0.41141      0.99968     1.56285    0.02605     2.58859
      O   19   -0.29370      0.99986     3.28763    0.00620     4.29370
      O   20   -0.34665      0.99987     3.34022    0.00656     4.34665
      H   21    0.08978      0.00000     0.40921    0.00101     0.41022
      H   22    0.09238      0.00000     0.40659    0.00103     0.40762
      H   23    0.09452      0.00000     0.40411    0.00137     0.40548
      H   24    0.09525      0.00000     0.40333    0.00143     0.40475
      H   25    0.09241      0.00000     0.40654    0.00105     0.40759
      H   26    0.09189      0.00000     0.40660    0.00151     0.40811
      H   27    0.08669      0.00000     0.41218    0.00113     0.41331
      H   28    0.09100      0.00000     0.40797    0.00104     0.40900
      H   29    0.08590      0.00000     0.41262    0.00148     0.41410
      H   30    0.08673      0.00000     0.41195    0.00132     0.41327
      H   31    0.09972      0.00000     0.39912    0.00116     0.40028
      H   32    0.08320      0.00000     0.41559    0.00121     0.41680
      H   33    0.09694      0.00000     0.40208    0.00098     0.40306
      H   34    0.10255      0.00000     0.39609    0.00136     0.39745
      H   35    0.23431      0.00000     0.26118    0.00451     0.26569
 =======================================================================
   * Total *   -0.00000     19.99201    50.77245    0.23555    71.00000

 Normal termination of Gaussian 16 at Sun Dec 13 17:51:15 2020.
