 Gaussian 16, Revision A.03,

 -----------------------------------------------------------
 # opt freq B3LYP/6-31G(d) empiricaldispersion=gd3bj scf=xqc
 -----------------------------------------------------------

 -------------------------------
 CID_112486498_JID_4666_neutraal
 -------------------------------
 Symbolic Z-matrix:
 Charge =  0 Multiplicity = 1

 SCF Done:  E(RB3LYP) =  -960.014563065     A.U. after   13 cycles
 SCF Done:  E(RB3LYP) =  -960.018572358     A.U. after   11 cycles
 SCF Done:  E(RB3LYP) =  -960.018455918     A.U. after   10 cycles
 SCF Done:  E(RB3LYP) =  -960.018753078     A.U. after   11 cycles
 SCF Done:  E(RB3LYP) =  -960.019468605     A.U. after   11 cycles
 SCF Done:  E(RB3LYP) =  -960.019448619     A.U. after   10 cycles
 SCF Done:  E(RB3LYP) =  -960.019530180     A.U. after   10 cycles
 SCF Done:  E(RB3LYP) =  -960.019552225     A.U. after    9 cycles
 SCF Done:  E(RB3LYP) =  -960.019554839     A.U. after    7 cycles
 SCF Done:  E(RB3LYP) =  -960.019555677     A.U. after    7 cycles
 SCF Done:  E(RB3LYP) =  -960.019555885     A.U. after    7 cycles
 SCF Done:  E(RB3LYP) =  -960.019556003     A.U. after    7 cycles
 SCF Done:  E(RB3LYP) =  -960.019556064     A.U. after    6 cycles
 SCF Done:  E(RB3LYP) =  -960.019556092     A.U. after    6 cycles
 Optimization completed.
    -- Stationary point found.
 Normal termination of Gaussian 16 at Thu Dec 10 10:24:25 2020.

 --------------------------------------------------------------------
 #N Geom=AllCheck Guess=TCheck SCRF=Check GenChk RB3LYP/6-31G(d) Freq
 --------------------------------------------------------------------

 Structure from the checkpoint file:  "JID_4666.chk"
 -------------------------------
 CID_112486498_JID_4666_neutraal
 -------------------------------
 Charge =  0 Multiplicity = 1

 SCF Done:  E(RB3LYP) =  -960.019556092     A.U. after    1 cycles

  Exact polarizability: 147.407  -4.982 144.156   3.634  -2.288 114.178
 Approx polarizability: 196.796  -5.983 201.947   8.991   0.412 185.839

                      1                      2                      3
                      A                      A                      A
 Frequencies --     59.0482                97.7899               135.9505
 Red. masses --      3.6733                 4.0611                 3.4793
 Frc consts  --      0.0075                 0.0229                 0.0379
 IR Inten    --      1.9180                 7.1910                 6.5311

                      4                      5                      6
                      A                      A                      A
 Frequencies --    137.2541               167.8843               207.3824
 Red. masses --      3.4276                 3.0113                 3.4147
 Frc consts  --      0.0380                 0.0500                 0.0865
 IR Inten    --      2.9041                 6.1248                 6.9639

                      7                      8                      9
                      A                      A                      A
 Frequencies --    226.3730               243.7452               258.0415
 Red. masses --      2.1277                 2.0421                 2.9288
 Frc consts  --      0.0642                 0.0715                 0.1149
 IR Inten    --      6.3453                 5.1506                 4.9271

                     10                     11                     12
                      A                      A                      A
 Frequencies --    281.4367               288.0397               317.8389
 Red. masses --      2.0205                 1.8993                 2.1442
 Frc consts  --      0.0943                 0.0928                 0.1276
 IR Inten    --     12.6391                27.7905                 0.2645

                     13                     14                     15
                      A                      A                      A
 Frequencies --    323.2433               350.7635               388.4220
 Red. masses --      3.0537                 2.8980                 3.2406
 Frc consts  --      0.1880                 0.2101                 0.2881
 IR Inten    --      4.4928                 1.7970                 2.6691

                     16                     17                     18
                      A                      A                      A
 Frequencies --    415.4769               452.2936               474.2520
 Red. masses --      2.2778                 2.4459                 3.0339
 Frc consts  --      0.2317                 0.2948                 0.4020
 IR Inten    --      0.9406                 0.3545                 2.1907

                     19                     20                     21
                      A                      A                      A
 Frequencies --    484.7653               523.4963               572.9428
 Red. masses --      3.7225                 2.5632                 1.9637
 Frc consts  --      0.5154                 0.4139                 0.3798
 IR Inten    --      3.6405                 0.5970                 6.7085

                     22                     23                     24
                      A                      A                      A
 Frequencies --    607.5184               669.3206               724.2217
 Red. masses --      2.1115                 3.9635                 3.0928
 Frc consts  --      0.4592                 1.0461                 0.9557
 IR Inten    --      5.4377                 3.2501                 1.8279

                     25                     26                     27
                      A                      A                      A
 Frequencies --    759.3197               783.6203               822.3582
 Red. masses --      3.7366                 2.4236                 1.8949
 Frc consts  --      1.2693                 0.8768                 0.7550
 IR Inten    --      5.3830                 1.3920                 4.8281

                     28                     29                     30
                      A                      A                      A
 Frequencies --    856.2121               870.3016               877.7915
 Red. masses --      1.4480                 1.9773                 1.7931
 Frc consts  --      0.6254                 0.8824                 0.8140
 IR Inten    --     80.4617                 0.2362                 0.1098

                     31                     32                     33
                      A                      A                      A
 Frequencies --    895.5939               909.1594               933.9319
 Red. masses --      2.1484                 1.5751                 1.7536
 Frc consts  --      1.0153                 0.7671                 0.9012
 IR Inten    --      9.1871                43.0403                 9.8225

                     34                     35                     36
                      A                      A                      A
 Frequencies --    949.7162               976.9107              1002.3061
 Red. masses --      1.9189                 2.1018                 2.8301
 Frc consts  --      1.0198                 1.1818                 1.6752
 IR Inten    --      2.4494                 1.4703                 1.1138

                     37                     38                     39
                      A                      A                      A
 Frequencies --   1018.3850              1050.8537              1053.2453
 Red. masses --      2.0283                 2.3601                 1.8940
 Frc consts  --      1.2394                 1.5355                 1.2379
 IR Inten    --      6.2991                24.2897                 8.3808

                     40                     41                     42
                      A                      A                      A
 Frequencies --   1069.6719              1078.0079              1087.3447
 Red. masses --      2.3506                 2.1028                 1.7707
 Frc consts  --      1.5846                 1.4397                 1.2335
 IR Inten    --      6.2085                 0.9279                 5.4400

                     43                     44                     45
                      A                      A                      A
 Frequencies --   1097.6407              1127.8441              1152.4909
 Red. masses --      2.3682                 2.1247                 2.3660
 Frc consts  --      1.6811                 1.5924                 1.8515
 IR Inten    --      3.3030                 2.5452                26.5696

                     46                     47                     48
                      A                      A                      A
 Frequencies --   1164.8065              1185.4341              1199.7616
 Red. masses --      1.9245                 2.0284                 1.8599
 Frc consts  --      1.5384                 1.6794                 1.5773
 IR Inten    --     24.0448                50.3691                18.8331

                     49                     50                     51
                      A                      A                      A
 Frequencies --   1229.5061              1240.4903              1261.6265
 Red. masses --      1.3506                 1.2487                 1.3364
 Frc consts  --      1.2029                 1.1321                 1.2533
 IR Inten    --      0.9533                 4.7751                11.3684

                     52                     53                     54
                      A                      A                      A
 Frequencies --   1277.7097              1285.4369              1300.0369
 Red. masses --      1.3482                 1.3177                 1.2458
 Frc consts  --      1.2968                 1.2828                 1.2405
 IR Inten    --      5.6301                 3.6131                13.2082

                     55                     56                     57
                      A                      A                      A
 Frequencies --   1305.0379              1322.1899              1332.6257
 Red. masses --      1.2811                 1.2850                 1.2716
 Frc consts  --      1.2855                 1.3235                 1.3305
 IR Inten    --      1.5577                 7.8618                25.6549

                     58                     59                     60
                      A                      A                      A
 Frequencies --   1346.2121              1354.5527              1370.4605
 Red. masses --      1.2496                 1.2218                 1.3060
 Frc consts  --      1.3343                 1.3208                 1.4452
 IR Inten    --      7.6348                 2.8088                 6.7097

                     61                     62                     63
                      A                      A                      A
 Frequencies --   1386.3556              1408.5617              1411.4357
 Red. masses --      1.3189                 1.3537                 1.3753
 Frc consts  --      1.4935                 1.5824                 1.6143
 IR Inten    --      0.9981                 0.2588                 2.7596

                     64                     65                     66
                      A                      A                      A
 Frequencies --   1413.4045              1424.3157              1432.5388
 Red. masses --      1.3232                 1.3718                 1.3214
 Frc consts  --      1.5575                 1.6397                 1.5978
 IR Inten    --      4.3908                 8.0772                 3.5679

                     67                     68                     69
                      A                      A                      A
 Frequencies --   1447.1120              1456.6182              1506.9881
 Red. masses --      1.2860                 1.2874                 1.0828
 Frc consts  --      1.5867                 1.6094                 1.4489
 IR Inten    --      7.0672                 7.8310                 3.4250

                     70                     71                     72
                      A                      A                      A
 Frequencies --   1510.9262              1515.4852              1520.5633
 Red. masses --      1.0828                 1.0895                 1.0811
 Frc consts  --      1.4564                 1.4743                 1.4727
 IR Inten    --      1.2301                 3.4270                 5.8931

                     73                     74                     75
                      A                      A                      A
 Frequencies --   1528.1353              1531.1167              1533.8764
 Red. masses --      1.0833                 1.0855                 1.0790
 Frc consts  --      1.4905                 1.4993                 1.4958
 IR Inten    --      1.7026                 4.2032                 4.3316

                     76                     77                     78
                      A                      A                      A
 Frequencies --   1538.6999              1549.9930              1705.5073
 Red. masses --      1.0914                 1.0852                 1.0860
 Frc consts  --      1.5224                 1.5361                 1.8611
 IR Inten    --     12.4234                 5.3893                32.7865

                     79                     80                     81
                      A                      A                      A
 Frequencies --   2957.4510              2982.3422              3004.1247
 Red. masses --      1.0731                 1.0740                 1.0676
 Frc consts  --      5.5300                 5.6283                 5.6767
 IR Inten    --     49.5575                84.5023                46.5171

                     82                     83                     84
                      A                      A                      A
 Frequencies --   3028.5483              3030.7371              3040.2799
 Red. masses --      1.0611                 1.0635                 1.0627
 Frc consts  --      5.7345                 5.7555                 5.7874
 IR Inten    --     18.1435                22.6936                34.0640

                     85                     86                     87
                      A                      A                      A
 Frequencies --   3046.9195              3052.3977              3061.2791
 Red. masses --      1.0782                 1.0782                 1.0738
 Frc consts  --      5.8974                 5.9188                 5.9291
 IR Inten    --      6.4919                29.7209                19.8316

                     88                     89                     90
                      A                      A                      A
 Frequencies --   3062.9304              3069.6191              3073.6762
 Red. masses --      1.0693                 1.0842                 1.0973
 Frc consts  --      5.9103                 6.0189                 6.1079
 IR Inten    --     13.7448                28.4171                25.8146

                     91                     92                     93
                      A                      A                      A
 Frequencies --   3076.8194              3079.7902              3091.5570
 Red. masses --      1.0894                 1.0979                 1.0998
 Frc consts  --      6.0762                 6.1354                 6.1933
 IR Inten    --     89.6813                42.1942                69.1480

                     94                     95                     96
                      A                      A                      A
 Frequencies --   3100.7634              3113.4718              3134.7957
 Red. masses --      1.0920                 1.1049                 1.0915
 Frc consts  --      6.1863                 6.3105                 6.3194
 IR Inten    --     25.8840                19.6807                20.0028

                     97                     98                     99
                      A                      A                      A
 Frequencies --   3153.7538              3489.2341              3578.7230
 Red. masses --      1.0960                 1.0518                 1.0902
 Frc consts  --      6.4226                 7.5448                 8.2267
 IR Inten    --      1.6283                 4.0511                 0.1357

 - Thermochemistry -
 -------------------
 Temperature   298.150 Kelvin.  Pressure   1.00000 Atm.
 Atom     1 has atomic number  6 and mass  12.00000

 Molecular mass:   215.13439 amu.
 Principal axes and moments of inertia in atomic units:
                           1         2         3
     Eigenvalues --  2512.154603059.591364713.37435
           X            0.99999  -0.00441   0.00102
           Y            0.00444   0.99967  -0.02544
           Z           -0.00090   0.02545   0.99968
 This molecule is an asymmetric top.
 Rotational symmetry number  1.
 Warning -- assumption of classical behavior for rotation
           may cause significant error
 Rotational temperatures (Kelvin)      0.03448     0.02831     0.01838
 Rotational constants (GHZ):           0.71840     0.58986     0.38290
 Zero-point vibrational energy     837427.5 (Joules/Mol)
                                  200.14997 (Kcal/Mol)
 Warning -- explicit consideration of  22 degrees of freedom as
           vibrations may cause significant error
 Vibrational temperatures:     84.96   140.70   195.60   197.48   241.55
          (Kelvin)            298.38   325.70   350.69   371.26   404.92
                              414.42   457.30   465.08   504.67   558.85
                              597.78   650.75   682.34   697.47   753.19
                              824.34   874.08   963.00  1041.99  1092.49
                             1127.45  1183.19  1231.90  1252.17  1262.95
                             1288.56  1308.08  1343.72  1366.43  1405.56
                             1442.09  1465.23  1511.94  1515.39  1539.02
                             1551.01  1564.45  1579.26  1622.72  1658.18
                             1675.90  1705.58  1726.19  1768.99  1784.79
                             1815.20  1838.34  1849.46  1870.46  1877.66
                             1902.34  1917.35  1936.90  1948.90  1971.79
                             1994.66  2026.61  2030.74  2033.57  2049.27
                             2061.10  2082.07  2095.75  2168.22  2173.89
                             2180.45  2187.75  2198.65  2202.94  2206.91
                             2213.85  2230.09  2453.84  4255.11  4290.93
                             4322.27  4357.41  4360.55  4374.28  4383.84
                             4391.72  4404.50  4406.87  4416.50  4422.33
                             4426.86  4431.13  4448.06  4461.31  4479.59
                             4510.27  4537.55  5020.23  5148.98

 Zero-point correction=                           0.318959 (Hartree/Particle)
 Thermal correction to Energy=                    0.332722
 Thermal correction to Enthalpy=                  0.333666
 Thermal correction to Gibbs Free Energy=         0.279619
 Sum of electronic and zero-point Energies=           -959.700597
 Sum of electronic and thermal Energies=              -959.686834
 Sum of electronic and thermal Enthalpies=            -959.685890
 Sum of electronic and thermal Free Energies=         -959.739937

                     E (Thermal)             CV                S
                      KCal/Mol        Cal/Mol-Kelvin    Cal/Mol-Kelvin
 Total                  208.786             55.714            113.752
 Electronic               0.000              0.000              0.000
 Translational            0.889              2.981             42.002
 Rotational               0.889              2.981             31.960
 Vibrational            207.009             49.752             39.790
 Vibration     1          0.596              1.974              4.489
 Vibration     2          0.603              1.951              3.498
 Vibration     3          0.614              1.917              2.860
 Vibration     4          0.614              1.916              2.842
 Vibration     5          0.625              1.882              2.459
 Vibration     6          0.641              1.829              2.067
 Vibration     7          0.650              1.801              1.908
 Vibration     8          0.659              1.773              1.775
 Vibration     9          0.667              1.749              1.675
 Vibration    10          0.681              1.708              1.525
 Vibration    11          0.685              1.696              1.485
 Vibration    12          0.704              1.640              1.321
 Vibration    13          0.708              1.629              1.294
 Vibration    14          0.728              1.574              1.163
 Vibration    15          0.757              1.495              1.006
 Vibration    16          0.779              1.437              0.907
 Vibration    17          0.811              1.356              0.789
 Vibration    18          0.831              1.307              0.726
 Vibration    19          0.841              1.284              0.697
 Vibration    20          0.878              1.198              0.602
 Vibration    21          0.929              1.090              0.499
 Vibration    22          0.966              1.016              0.437

 Optimization completed.
    -- Stationary point found.
 Normal termination of Gaussian 16 at Thu Dec 10 10:37:31 2020.

 ----------------------------------------------------------------------
 # B3LYP/6-311++G(d,p) empiricaldispersion=gd3bj scf=xqc pop=npa geom=c
 heck
 ----------------------------------------------------------------------

 ---------------------------------------
 CID_112486498_JID_4666_Energie_neutraal
 ---------------------------------------
 Structure from the checkpoint file:  "JID_4666.chk"
 Charge =  0 Multiplicity = 1

 SCF Done:  E(RB3LYP) =  -960.209526040     A.U. after   14 cycles
 Normal termination of Gaussian 16 at Thu Dec 10 10:43:56 2020.

 ----------------------------------------------------------------------
 # B3LYP/6-311++G(d,p) empiricaldispersion=gd3bj scf=xqc pop=npa geom=c
 heck
 ----------------------------------------------------------------------

 -------------------------------------
 CID_112486498_JID_4666_Energie_kation
 -------------------------------------
 Structure from the checkpoint file:  "JID_4666.chk"
 Charge =  1 Multiplicity = 2

 SCF Done:  E(UB3LYP) =  -959.921659419     A.U. after   24 cycles
 Normal termination of Gaussian 16 at Thu Dec 10 11:01:39 2020.
 Gaussian 16:  ES64L-G16RevA.03 25-Dec-2016

 ----------------------------------------------------------------------
 # B3LYP/6-311++G(d,p) empiricaldispersion=gd3bj scf=xqc pop=npa geom=c
 heck
 ----------------------------------------------------------------------

 ------------------------------------
 CID_112486498_JID_4666_Energie_anion
 ------------------------------------
 Structure from the checkpoint file:  "JID_4666.chk"
 Charge = -1 Multiplicity = 2

                         Standard orientation:
 ---------------------------------------------------------------------
 Center     Atomic      Atomic             Coordinates (Angstroms)
 Number     Number       Type             X           Y           Z
 ---------------------------------------------------------------------
      1          6           0       -2.176560    1.418461   -0.919065
      2          6           0       -0.723257    1.545810   -0.439165
      3          6           0        0.024230    0.264581    0.027816
      4          6           0       -0.692235   -0.274280    1.296483
      5          6           0       -1.980006   -1.094922    1.118397
      6          8           0       -2.867042   -0.679203    0.089260
      7          6           0       -3.137243    0.711748    0.033893
      8          6           0        0.030220   -0.759199   -1.123727
      9         16           0        0.692840   -2.422113   -0.691381
     10          6           0        2.033734   -1.939315    0.469852
     11          6           0        2.518268   -0.521678    0.197207
     12          6           0        1.508274    0.628840    0.442181
     13          6           0        2.142263    1.875456   -0.215648
     14          7           0        1.739382    3.151149    0.391281
     15          1           0       -2.220687    0.890626   -1.879246
     16          1           0       -2.554303    2.432891   -1.109880
     17          1           0       -0.160156    2.010771   -1.257023
     18          1           0       -0.702521    2.248055    0.403594
     19          1           0       -0.885294    0.592452    1.941313
     20          1           0       -0.011922   -0.911706    1.870108
     21          1           0       -2.511491   -1.109465    2.084923
     22          1           0       -1.726275   -2.124662    0.859517
     23          1           0       -3.110442    1.163486    1.038171
     24          1           0       -4.162565    0.810529   -0.341031
     25          1           0       -0.989146   -0.957265   -1.456725
     26          1           0        0.592525   -0.354580   -1.972698
     27          1           0        1.692687   -2.051597    1.504199
     28          1           0        2.849215   -2.651550    0.313875
     29          1           0        3.403045   -0.328160    0.817514
     30          1           0        2.861613   -0.479686   -0.845639
     31          1           0        1.489323    0.849175    1.516261
     32          1           0        3.223976    1.794351   -0.058151
     33          1           0        1.997485    1.828008   -1.310124
     34          1           0        2.440994    3.857758    0.179538
     35          1           0        0.873037    3.486957   -0.018793
 ---------------------------------------------------------------------

 SCF Done:  E(UB3LYP) =  -960.197279939     A.U. after   29 cycles

 The electronic state is 2-A.
 Alpha  occ. eigenvalues --  -88.73751 -19.02627 -14.18500 -10.11920 -10.11875
 Alpha  occ. eigenvalues --  -10.10231 -10.09550 -10.09456 -10.08745 -10.07709
 Alpha  occ. eigenvalues --  -10.07475 -10.07319 -10.06839 -10.06773  -7.82388
 Alpha  occ. eigenvalues --   -5.78782  -5.78423  -5.77751  -0.94027  -0.78082
 Alpha  occ. eigenvalues --   -0.74942  -0.70117  -0.68308  -0.66110  -0.62879
 Alpha  occ. eigenvalues --   -0.58754  -0.56827  -0.54660  -0.49739  -0.48201
 Alpha  occ. eigenvalues --   -0.47918  -0.42908  -0.41029  -0.39229  -0.38489
 Alpha  occ. eigenvalues --   -0.38366  -0.37128  -0.35140  -0.34571  -0.33634
 Alpha  occ. eigenvalues --   -0.32465  -0.31453  -0.31140  -0.30805  -0.28976
 Alpha  occ. eigenvalues --   -0.27500  -0.27276  -0.26495  -0.25786  -0.25219
 Alpha  occ. eigenvalues --   -0.24211  -0.23584  -0.21725  -0.21127  -0.20464
 Alpha  occ. eigenvalues --   -0.19362  -0.16121  -0.13952  -0.12452   0.04328
 Alpha virt. eigenvalues --    0.06338   0.06824   0.07671   0.08468   0.08634
 Alpha virt. eigenvalues --    0.09127   0.09229   0.10238   0.10782   0.11146
 Alpha virt. eigenvalues --    0.11721   0.12078   0.12648   0.13031   0.13498

  Beta  occ. eigenvalues --  -88.73749 -19.02621 -14.18458 -10.11915 -10.11859
  Beta  occ. eigenvalues --  -10.10219 -10.09552 -10.09441 -10.08716 -10.07693
  Beta  occ. eigenvalues --  -10.07468 -10.07313 -10.06817 -10.06750  -7.82387
  Beta  occ. eigenvalues --   -5.78781  -5.78420  -5.77750  -0.94017  -0.78022
  Beta  occ. eigenvalues --   -0.74910  -0.70086  -0.68283  -0.66077  -0.62850
  Beta  occ. eigenvalues --   -0.58715  -0.56782  -0.54615  -0.49683  -0.48151
  Beta  occ. eigenvalues --   -0.47878  -0.42876  -0.41001  -0.39205  -0.38453
  Beta  occ. eigenvalues --   -0.38325  -0.37097  -0.35080  -0.34530  -0.33599
  Beta  occ. eigenvalues --   -0.32438  -0.31424  -0.31108  -0.30771  -0.28933
  Beta  occ. eigenvalues --   -0.27477  -0.27243  -0.26470  -0.25748  -0.25190
  Beta  occ. eigenvalues --   -0.24181  -0.23557  -0.21700  -0.21108  -0.20436
  Beta  occ. eigenvalues --   -0.19339  -0.16090  -0.13903  -0.12442
  Beta virt. eigenvalues --    0.06521   0.07166   0.07519   0.08207   0.08885
  Beta virt. eigenvalues --    0.09151   0.09524   0.09534   0.10397   0.11267
  Beta virt. eigenvalues --    0.11526   0.12010   0.12400   0.12878   0.13184

 Mulliken charges and spin densities:
               1          2
     1  C   -0.117910  -0.447676
     2  C   -1.148071   0.676120
     3  C    1.322275   0.442372
     4  C   -0.051313  -0.544769
     5  C   -0.602464  -0.040931
     6  O   -0.129031   0.021572
     7  C    0.378868  -0.730512
     8  C   -0.185521  -0.761059
     9  S    0.113978  -0.217457
    10  C   -0.291918  -0.228124
    11  C    0.175631  -0.642687
    12  C   -1.068407   1.246228
    13  C    2.248167  -2.974287
    14  N   -0.540151   0.208547
    15  H    0.027343   0.136248
    16  H   -0.697109   0.865405
    17  H   -0.216764   0.407545
    18  H    0.101547   0.063919
    19  H    0.095335   0.099196
    20  H    0.236622  -0.100845
    21  H    0.007886   0.139426
    22  H    0.113453   0.039081
    23  H   -0.027257   0.138716
    24  H   -0.109360   0.305459
    25  H    0.402459  -0.148191
    26  H   -0.056554   0.278649
    27  H    0.044770   0.111974
    28  H   -0.075991   0.309800
    29  H   -0.301588   0.466078
    30  H    0.165058  -0.001566
    31  H    0.115456   0.115974
    32  H   -0.434982   0.632679
    33  H   -0.140918   0.291658
    34  H   -0.196669   0.444321
    35  H   -0.156872   0.397135
 Sum of Mulliken charges =  -1.00000   1.00000

 Dipole moment (field-independent basis, Debye):
    X=             -2.2518    Y=             -6.6678    Z=              1.6970  Tot=              7.2395
 Quadrupole moment (field-independent basis, Debye-Ang):
   XX=           -160.2842   YY=           -163.7024   ZZ=           -127.0007
   XY=             -5.0239   XZ=             -3.7667   YZ=              2.2291

 Summary of Natural Population Analysis:

                                       Natural Population
                Natural  -----------------------------------------------
    Atom  No    Charge         Core      Valence    Rydberg      Total
 -----------------------------------------------------------------------
      C    1   -0.20041      0.99962     2.19121    0.00959     3.20041
      C    2   -0.19612      0.99958     2.18379    0.01274     3.19612
      C    3   -0.03690      0.99953     2.02233    0.01505     3.03690
      C    4   -0.21029      0.99958     2.20032    0.01039     3.21029
      C    5   -0.00945      0.99957     1.99848    0.01140     3.00945
      O    6   -0.30599      0.99989     3.29756    0.00855     4.30599
      C    7   -0.01117      0.99957     1.99843    0.01317     3.01117
      C    8   -0.25455      0.99951     2.24384    0.01120     3.25455
      S    9    0.07618      4.99964     2.90802    0.01616     7.92382
      C   10   -0.24512      0.99959     2.23583    0.00970     3.24512
      C   11   -0.19626      0.99960     2.18680    0.00986     3.19626
      C   12   -0.10726      0.99955     2.09362    0.01409     3.10726
      C   13   -0.08966      0.99959     2.07756    0.01252     3.08966
      N   14   -0.42326      0.99976     2.91297    0.01052     3.92326
      H   15    0.09631      0.00000     0.40251    0.00118     0.40369
      H   16    0.10475      0.00000     0.39321    0.00204     0.39525
      H   17    0.10480      0.00000     0.39328    0.00192     0.39520
      H   18    0.10138      0.00000     0.39672    0.00190     0.39862
      H   19    0.09974      0.00000     0.39874    0.00151     0.40026
      H   20    0.10576      0.00000     0.39302    0.00122     0.39424
      H   21    0.07656      0.00000     0.42223    0.00121     0.42344
      H   22    0.09610      0.00000     0.40231    0.00159     0.40390
      H   23    0.07829      0.00000     0.42042    0.00129     0.42171
      H   24    0.08916      0.00000     0.40960    0.00124     0.41084
      H   25    0.11752      0.00000     0.38084    0.00164     0.38248
      H   26    0.10339      0.00000     0.39485    0.00176     0.39661
      H   27    0.09460      0.00000     0.40391    0.00149     0.40540
      H   28    0.10522      0.00000     0.39354    0.00124     0.39478
      H   29    0.10599      0.00000     0.39257    0.00144     0.39401
      H   30    0.09815      0.00000     0.40030    0.00155     0.40185
      H   31    0.10058      0.00000     0.39722    0.00220     0.39942
      H   32    0.09523      0.00000     0.40305    0.00173     0.40477
      H   33    0.08194      0.00000     0.41584    0.00222     0.41806
      H   34    0.17793      0.00000     0.31911    0.00295     0.32207
      H   35    0.17685      0.00000     0.32022    0.00293     0.32315
 =======================================================================
   * Total *   -0.00000     17.99458    40.80423    0.20119    59.00000

 Normal termination of Gaussian 16 at Thu Dec 10 11:19:37 2020.
