 Gaussian 16, Revision A.03,

 -----------------------------------------------------------
 # opt freq B3LYP/6-31G(d) empiricaldispersion=gd3bj scf=xqc
 -----------------------------------------------------------

 ------------------------------
 CID_84719726_JID_4850_neutraal
 ------------------------------
 Symbolic Z-matrix:
 Charge =  0 Multiplicity = 1

 SCF Done:  E(RB3LYP) =  -597.553706527     A.U. after   14 cycles
 SCF Done:  E(RB3LYP) =  -597.556472480     A.U. after   11 cycles
 SCF Done:  E(RB3LYP) =  -597.556740945     A.U. after   11 cycles
 SCF Done:  E(RB3LYP) =  -597.556821174     A.U. after   10 cycles
 SCF Done:  E(RB3LYP) =  -597.556835914     A.U. after    9 cycles
 SCF Done:  E(RB3LYP) =  -597.556844991     A.U. after    9 cycles
 SCF Done:  E(RB3LYP) =  -597.556845686     A.U. after    8 cycles
 Optimization completed.
    -- Stationary point found.
 Normal termination of Gaussian 16 at Thu Dec 10 10:39:03 2020.

 --------------------------------------------------------------------
 #N Geom=AllCheck Guess=TCheck SCRF=Check GenChk RB3LYP/6-31G(d) Freq
 --------------------------------------------------------------------

 Structure from the checkpoint file:  "JID_4850.chk"
 ------------------------------
 CID_84719726_JID_4850_neutraal
 ------------------------------
 Charge =  0 Multiplicity = 1

 SCF Done:  E(RB3LYP) =  -597.556845686     A.U. after    1 cycles

  Exact polarizability: 184.670   0.761 133.362   1.445   0.124  81.435
 Approx polarizability: 250.504   4.176 223.530   4.850   2.491 123.508

                      1                      2                      3
                      A                      A                      A
 Frequencies --     49.6964                95.0371               124.7939
 Red. masses --      4.1211                 1.9774                 3.2223
 Frc consts  --      0.0060                 0.0105                 0.0296
 IR Inten    --      0.1698                 0.0595                 0.1679

                      4                      5                      6
                      A                      A                      A
 Frequencies --    156.2048               183.7991               222.3300
 Red. masses --      3.0539                 2.6630                 1.4718
 Frc consts  --      0.0439                 0.0530                 0.0429
 IR Inten    --      0.0071                 0.5273                 0.4591

                      7                      8                      9
                      A                      A                      A
 Frequencies --    264.9901               281.4343               284.7362
 Red. masses --      1.8448                 3.1690                 1.3040
 Frc consts  --      0.0763                 0.1479                 0.0623
 IR Inten    --      0.3071                 3.8792                 0.5723

                     10                     11                     12
                      A                      A                      A
 Frequencies --    307.7671               310.6460               334.2070
 Red. masses --      2.1495                 1.2437                 2.5650
 Frc consts  --      0.1200                 0.0707                 0.1688
 IR Inten    --     19.3106                95.5447                 0.8838

                     13                     14                     15
                      A                      A                      A
 Frequencies --    365.1007               384.4282               441.4527
 Red. masses --      4.2748                 2.4104                 2.2341
 Frc consts  --      0.3357                 0.2099                 0.2565
 IR Inten    --      5.3596                 2.9788                 2.8992

                     16                     17                     18
                      A                      A                      A
 Frequencies --    454.1439               462.8506               481.5647
 Red. masses --      2.2994                 3.5428                 3.2441
 Frc consts  --      0.2794                 0.4472                 0.4433
 IR Inten    --     17.8925                16.9256                 9.7044

                     19                     20                     21
                      A                      A                      A
 Frequencies --    516.8193               550.9484               581.8913
 Red. masses --      4.3588                 3.7884                 2.8326
 Frc consts  --      0.6860                 0.6775                 0.5651
 IR Inten    --      0.9186                19.6097                 6.2118

                     22                     23                     24
                      A                      A                      A
 Frequencies --    616.5213               639.0237               711.3282
 Red. masses --      2.5419                 2.7108                 3.8968
 Frc consts  --      0.5693                 0.6522                 1.1617
 IR Inten    --     55.4995                51.8892                 1.5549

                     25                     26                     27
                      A                      A                      A
 Frequencies --    745.7027               748.6302               798.5359
 Red. masses --      4.5616                 2.5023                 1.2057
 Frc consts  --      1.4945                 0.8263                 0.4530
 IR Inten    --      6.7636                 1.0269                 1.6269

                     28                     29                     30
                      A                      A                      A
 Frequencies --    816.4769               828.1663               844.8252
 Red. masses --      2.1059                 2.1273                 1.4474
 Frc consts  --      0.8271                 0.8596                 0.6087
 IR Inten    --     10.6217                26.0487                15.1444

                     31                     32                     33
                      A                      A                      A
 Frequencies --    911.7711               922.7197               936.6797
 Red. masses --      2.0569                 1.2840                 1.8210
 Frc consts  --      1.0075                 0.6441                 0.9413
 IR Inten    --      0.7947                 0.4394                 4.9471

                     34                     35                     36
                      A                      A                      A
 Frequencies --    940.3807               971.1580              1003.9441
 Red. masses --      1.9917                 2.7902                 1.9382
 Frc consts  --      1.0377                 1.5505                 1.1510
 IR Inten    --      5.1616                 3.1213                 4.2968

                     37                     38                     39
                      A                      A                      A
 Frequencies --   1034.3281              1042.4618              1059.4006
 Red. masses --      1.7214                 2.2973                 1.6710
 Frc consts  --      1.0850                 1.4709                 1.1050
 IR Inten    --      1.4853                 6.6063                 4.1666

                     40                     41                     42
                      A                      A                      A
 Frequencies --   1093.0725              1143.0123              1166.9982
 Red. masses --      1.8609                 1.6288                 1.6157
 Frc consts  --      1.3100                 1.2538                 1.2965
 IR Inten    --      0.8315                 6.5804                24.1106

                     43                     44                     45
                      A                      A                      A
 Frequencies --   1190.9873              1197.4858              1209.4130
 Red. masses --      1.6934                 1.5904                 1.5123
 Frc consts  --      1.4152                 1.3437                 1.3033
 IR Inten    --     53.6843                12.0629               201.3621

                     46                     47                     48
                      A                      A                      A
 Frequencies --   1238.6657              1265.9391              1274.1840
 Red. masses --      1.9895                 1.6405                 1.7911
 Frc consts  --      1.7984                 1.5490                 1.7133
 IR Inten    --      9.7578                13.8410                91.8935

                     49                     50                     51
                      A                      A                      A
 Frequencies --   1291.6595              1303.4928              1334.0016
 Red. masses --      1.8466                 2.0610                 1.3371
 Frc consts  --      1.8152                 2.0633                 1.4020
 IR Inten    --     27.7075                25.8882                 3.1190

                     52                     53                     54
                      A                      A                      A
 Frequencies --   1343.1974              1375.7080              1389.0658
 Red. masses --      2.7703                 2.9782                 1.4908
 Frc consts  --      2.9448                 3.3209                 1.6948
 IR Inten    --      1.7082                15.1542                 6.9449

                     55                     56                     57
                      A                      A                      A
 Frequencies --   1390.8254              1395.7434              1435.7214
 Red. masses --      1.5904                 1.6371                 1.2693
 Frc consts  --      1.8126                 1.8791                 1.5415
 IR Inten    --      1.1159                 7.1534                 9.3137

                     58                     59                     60
                      A                      A                      A
 Frequencies --   1444.8673              1471.8872              1506.0245
 Red. masses --      1.2376                 1.9969                 1.0849
 Frc consts  --      1.5222                 2.5490                 1.4498
 IR Inten    --      3.3132                 5.8384                 1.2541

                     61                     62                     63
                      A                      A                      A
 Frequencies --   1513.3790              1518.7286              1520.9098
 Red. masses --      1.0837                 1.1114                 1.3928
 Frc consts  --      1.4624                 1.5103                 1.8982
 IR Inten    --      9.3123                11.8075               129.0473

                     64                     65                     66
                      A                      A                      A
 Frequencies --   1531.8322              1536.4636              1539.7750
 Red. masses --      1.2854                 1.0492                 1.0840
 Frc consts  --      1.7771                 1.4593                 1.5142
 IR Inten    --     88.1494                10.5501                 1.5456

                     67                     68                     69
                      A                      A                      A
 Frequencies --   1545.0012              1566.2234              1660.8359
 Red. masses --      1.1625                 2.6989                 5.7164
 Frc consts  --      1.6349                 3.9007                 9.2903
 IR Inten    --     28.7837               122.9512                 3.1676

                     70                     71                     72
                      A                      A                      A
 Frequencies --   1684.9903              3018.4013              3021.1058
 Red. masses --      6.4484                 1.0682                 1.0681
 Frc consts  --     10.7869                 5.7339                 5.7440
 IR Inten    --      3.5059                37.4843                24.2083

                     73                     74                     75
                      A                      A                      A
 Frequencies --   3047.0805              3053.9077              3056.9598
 Red. masses --      1.0387                 1.0637                 1.0439
 Frc consts  --      5.6822                 5.8452                 5.7479
 IR Inten    --     21.0991                 6.8958                35.3789

                     76                     77                     78
                      A                      A                      A
 Frequencies --   3068.4419              3076.5420              3106.5859
 Red. masses --      1.0831                 1.0936                 1.1031
 Frc consts  --      6.0081                 6.0985                 6.2723
 IR Inten    --     36.7493                17.6847                31.3204

                     79                     80                     81
                      A                      A                      A
 Frequencies --   3110.8213              3120.5948              3125.9927
 Red. masses --      1.1012                 1.1010                 1.1018
 Frc consts  --      6.2788                 6.3167                 6.3436
 IR Inten    --     34.2889                48.0317                36.6234

                     82                     83                     84
                      A                      A                      A
 Frequencies --   3133.8489              3148.2115              3172.9255
 Red. masses --      1.1009                 1.0895                 1.0887
 Frc consts  --      6.3700                 6.3620                 6.4578
 IR Inten    --     26.9938                29.3914                16.1104

                     85                     86                     87
                      A                      A                      A
 Frequencies --   3216.0210              3543.6511              3756.1815
 Red. masses --      1.0928                 1.0748                 1.0659
 Frc consts  --      6.6594                 7.9522                 8.8604
 IR Inten    --     11.2319                 1.3848                35.4389

 - Thermochemistry -
 -------------------
 Temperature   298.150 Kelvin.  Pressure   1.00000 Atm.
 Atom     1 has atomic number  6 and mass  12.00000

 Molecular mass:   191.13101 amu.
 Principal axes and moments of inertia in atomic units:
                           1         2         3
     Eigenvalues --   935.637934876.356705371.85825
           X            1.00000   0.00069  -0.00145
           Y           -0.00070   0.99999  -0.00434
           Z            0.00144   0.00434   0.99999
 This molecule is an asymmetric top.
 Rotational symmetry number  1.
 Warning -- assumption of classical behavior for rotation
           may cause significant error
 Rotational temperatures (Kelvin)      0.09257     0.01776     0.01612
 Rotational constants (GHZ):           1.92889     0.37010     0.33596
 Zero-point vibrational energy     713478.3 (Joules/Mol)
                                  170.52541 (Kcal/Mol)
 Warning -- explicit consideration of  22 degrees of freedom as
           vibrations may cause significant error
 Vibrational temperatures:     71.50   136.74   179.55   224.74   264.45
          (Kelvin)            319.88   381.26   404.92   409.67   442.81
                              446.95   480.85   525.30   553.11   635.15
                              653.41   665.94   692.86   743.59   792.69
                              837.21   887.04   919.41  1023.44  1072.90
                             1077.11  1148.91  1174.73  1191.55  1215.51
                             1311.84  1327.59  1347.67  1353.00  1397.28
                             1444.45  1488.17  1499.87  1524.24  1572.69
                             1644.54  1679.05  1713.57  1722.91  1740.08
                             1782.16  1821.40  1833.27  1858.41  1875.44
                             1919.33  1932.56  1979.34  1998.56  2001.09
                             2008.16  2065.68  2078.84  2117.72  2166.83
                             2177.41  2185.11  2188.25  2203.96  2210.63
                             2215.39  2222.91  2253.45  2389.57  2424.33
                             4342.81  4346.70  4384.07  4393.89  4398.28
                             4414.80  4426.46  4469.68  4475.78  4489.84
                             4497.61  4508.91  4529.57  4565.13  4627.14
                             5098.52  5404.31

 Zero-point correction=                           0.271750 (Hartree/Particle)
 Thermal correction to Energy=                    0.284940
 Thermal correction to Enthalpy=                  0.285884
 Thermal correction to Gibbs Free Energy=         0.233175
 Sum of electronic and zero-point Energies=           -597.285096
 Sum of electronic and thermal Energies=              -597.271906
 Sum of electronic and thermal Enthalpies=            -597.270962
 Sum of electronic and thermal Free Energies=         -597.323670

                     E (Thermal)             CV                S
                      KCal/Mol        Cal/Mol-Kelvin    Cal/Mol-Kelvin
 Total                  178.802             53.440            110.934
 Electronic               0.000              0.000              0.000
 Translational            0.889              2.981             41.649
 Rotational               0.889              2.981             31.572
 Vibrational            177.025             47.479             37.713
 Vibration     1          0.595              1.978              4.829
 Vibration     2          0.603              1.953              3.554
 Vibration     3          0.610              1.928              3.025
 Vibration     4          0.620              1.896              2.595
 Vibration     5          0.631              1.862              2.289
 Vibration     6          0.648              1.807              1.940
 Vibration     7          0.671              1.737              1.629
 Vibration     8          0.681              1.708              1.525
 Vibration     9          0.683              1.702              1.505
 Vibration    10          0.698              1.659              1.374
 Vibration    11          0.699              1.653              1.359
 Vibration    12          0.716              1.607              1.240
 Vibration    13          0.738              1.544              1.100
 Vibration    14          0.753              1.503              1.022
 Vibration    15          0.801              1.380              0.822
 Vibration    16          0.813              1.352              0.783
 Vibration    17          0.820              1.332              0.758
 Vibration    18          0.838              1.291              0.706
 Vibration    19          0.872              1.213              0.617
 Vibration    20          0.906              1.138              0.542
 Vibration    21          0.939              1.070              0.482
 Vibration    22          0.976              0.997              0.422

                           ! Non-Optimized Parameters !
 Normal termination of Gaussian 16 at Thu Dec 10 10:49:09 2020.

 ----------------------------------------------------------------------
 # B3LYP/6-311++G(d,p) empiricaldispersion=gd3bj scf=xqc pop=npa geom=c
 heck
 ----------------------------------------------------------------------

 --------------------------------------
 CID_84719726_JID_4850_Energie_neutraal
 --------------------------------------
 Structure from the checkpoint file:  "JID_4850.chk"
 Charge =  0 Multiplicity = 1

 SCF Done:  E(RB3LYP) =  -597.727429059     A.U. after   16 cycles
 Normal termination of Gaussian 16 at Thu Dec 10 10:54:33 2020.

 ----------------------------------------------------------------------
 # B3LYP/6-311++G(d,p) empiricaldispersion=gd3bj scf=xqc pop=npa geom=c
 heck
 ----------------------------------------------------------------------

 ------------------------------------
 CID_84719726_JID_4850_Energie_kation
 ------------------------------------
 Structure from the checkpoint file:  "JID_4850.chk"
 Charge =  1 Multiplicity = 2

 SCF Done:  E(UB3LYP) =  -597.475629550     A.U. after   20 cycles
 Normal termination of Gaussian 16 at Thu Dec 10 11:03:50 2020.
 Gaussian 16:  ES64L-G16RevA.03 25-Dec-2016

 ----------------------------------------------------------------------
 # B3LYP/6-311++G(d,p) empiricaldispersion=gd3bj scf=xqc pop=npa geom=c
 heck
 ----------------------------------------------------------------------

 -----------------------------------
 CID_84719726_JID_4850_Energie_anion
 -----------------------------------
 Structure from the checkpoint file:  "JID_4850.chk"
 Charge = -1 Multiplicity = 2

                         Standard orientation:
 ---------------------------------------------------------------------
 Center     Atomic      Atomic             Coordinates (Angstroms)
 Number     Number       Type             X           Y           Z
 ---------------------------------------------------------------------
      1          6           0       -4.462046    0.067727   -0.184342
      2          6           0       -3.187123   -0.721953   -0.490670
      3          6           0       -1.879856   -0.140874    0.084343
      4          6           0       -1.540446    1.208173   -0.576739
      5          6           0       -0.184737    1.750317   -0.109935
      6          6           0        0.885984    0.681422   -0.107496
      7          6           0        0.528263   -0.678052   -0.159042
      8          7           0       -0.811069   -1.071198   -0.307933
      9          6           0        1.544651   -1.647530   -0.119908
     10          6           0        2.883753   -1.291069   -0.037277
     11          6           0        3.238766    0.060058    0.006790
     12          6           0        2.238896    1.029090   -0.029801
     13          8           0        4.576593    0.367516    0.086242
     14          6           0       -1.960062   -0.007378    1.618142
     15          1           0       -4.655590    0.129283    0.891727
     16          1           0       -5.328518   -0.416723   -0.647111
     17          1           0       -4.411823    1.089682   -0.575002
     18          1           0       -3.302154   -1.744476   -0.100705
     19          1           0       -3.058297   -0.820375   -1.575183
     20          1           0       -1.521737    1.052605   -1.661994
     21          1           0       -2.326035    1.939183   -0.361517
     22          1           0        0.119721    2.586001   -0.752283
     23          1           0       -0.285521    2.172176    0.900417
     24          1           0       -0.980482   -2.017753    0.015854
     25          1           0        1.272114   -2.699835   -0.163264
     26          1           0        3.663559   -2.045029   -0.007979
     27          1           0        2.507825    2.084782    0.006989
     28          1           0        4.668303    1.332182    0.103862
     29          1           0       -2.653873    0.783537    1.923739
     30          1           0       -2.302413   -0.948633    2.065283
     31          1           0       -0.976613    0.222068    2.038370
 ---------------------------------------------------------------------

 SCF Done:  E(UB3LYP) =  -597.714206525     A.U. after   33 cycles
 SCF Done:  E(UB3LYP) =  -597.714206525     a.u. after    1 cycles

 The electronic state is 2-A.
 Alpha  occ. eigenvalues --  -19.04836 -14.21563 -10.12685 -10.11595 -10.10617
 Alpha  occ. eigenvalues --  -10.07874 -10.07557 -10.07439 -10.07189 -10.07079
 Alpha  occ. eigenvalues --  -10.07030 -10.07025 -10.06277 -10.06074  -0.95682
 Alpha  occ. eigenvalues --   -0.84225  -0.74872  -0.71061  -0.68329  -0.63922
 Alpha  occ. eigenvalues --   -0.63300  -0.60391  -0.55626  -0.53848  -0.52587
 Alpha  occ. eigenvalues --   -0.49232  -0.44291  -0.43382  -0.42513  -0.39109
 Alpha  occ. eigenvalues --   -0.36576  -0.36544  -0.35296  -0.34165  -0.32381
 Alpha  occ. eigenvalues --   -0.32301  -0.31309  -0.31194  -0.29914  -0.29161
 Alpha  occ. eigenvalues --   -0.29006  -0.27780  -0.26725  -0.26158  -0.25704
 Alpha  occ. eigenvalues --   -0.24777  -0.23117  -0.22333  -0.21815  -0.17763
 Alpha  occ. eigenvalues --   -0.15078  -0.09046   0.04206
 Alpha virt. eigenvalues --    0.05563   0.06922   0.07472   0.07892   0.08346
 Alpha virt. eigenvalues --    0.08697   0.09938   0.09956   0.10423   0.10918
 Alpha virt. eigenvalues --    0.10966   0.11715   0.12493   0.12944   0.13546

  Beta  occ. eigenvalues --  -19.04798 -14.21557 -10.12686 -10.11595 -10.10613
  Beta  occ. eigenvalues --  -10.07873 -10.07541 -10.07434 -10.07180 -10.07061
  Beta  occ. eigenvalues --  -10.07012 -10.07001 -10.06241 -10.06045  -0.95610
  Beta  occ. eigenvalues --   -0.84213  -0.74852  -0.71037  -0.68301  -0.63888
  Beta  occ. eigenvalues --   -0.63264  -0.60347  -0.55572  -0.53802  -0.52539
  Beta  occ. eigenvalues --   -0.49177  -0.44230  -0.43344  -0.42476  -0.39074
  Beta  occ. eigenvalues --   -0.36550  -0.36521  -0.35262  -0.34130  -0.32352
  Beta  occ. eigenvalues --   -0.32262  -0.31279  -0.31171  -0.29882  -0.29121
  Beta  occ. eigenvalues --   -0.28970  -0.27735  -0.26687  -0.26123  -0.25667
  Beta  occ. eigenvalues --   -0.24749  -0.23093  -0.22310  -0.21778  -0.17741
  Beta  occ. eigenvalues --   -0.15052  -0.09031
  Beta virt. eigenvalues --    0.06373   0.07182   0.07368   0.07690   0.08464
  Beta virt. eigenvalues --    0.08762   0.08932   0.10176   0.10484   0.10791
  Beta virt. eigenvalues --    0.11049   0.11277   0.11967   0.13015   0.13253

 Mulliken charges and spin densities:
               1          2
     1  C    1.131275  -1.786189
     2  C   -1.497360   1.442044
     3  C   -0.500352   0.635948
     4  C   -0.474259  -0.300444
     5  C    2.671503  -2.534003
     6  C    0.518244   0.419770
     7  C   -2.692595   1.056502
     8  N    0.226309  -0.014520
     9  C   -1.137777   0.958024
    10  C    1.078322  -1.083133
    11  C    0.991380  -1.650555
    12  C   -0.078757   0.713903
    13  O   -0.290752   0.044494
    14  C    1.258381  -1.937400
    15  H   -0.185496   0.335671
    16  H   -0.443959   0.593412
    17  H   -0.320380   0.453332
    18  H   -0.232111   0.336016
    19  H    0.001140   0.168978
    20  H    0.113693   0.059666
    21  H    0.045908   0.121722
    22  H   -0.019275   0.194625
    23  H    0.035829   0.155392
    24  H    0.084642   0.142781
    25  H   -0.079032   0.201763
    26  H    0.153454   0.016325
    27  H   -0.963802   1.116108
    28  H   -0.238193   0.509789
    29  H   -0.127659   0.287462
    30  H   -0.271733   0.441567
    31  H    0.243412  -0.099051
 Sum of Mulliken charges =  -1.00000   1.00000

 Dipole moment (field-independent basis, Debye):
    X=              0.9166    Y=             -2.8042    Z=             -0.9422  Tot=              3.0970
 Quadrupole moment (field-independent basis, Debye-Ang):
   XX=           -190.4702   YY=           -123.0247   ZZ=           -116.7379
   XY=            -13.1094   XZ=              1.2963   YZ=             -0.2249

 Summary of Natural Population Analysis:

                                       Natural Population
                Natural  -----------------------------------------------
    Atom  No    Charge         Core      Valence    Rydberg      Total
 -----------------------------------------------------------------------
      C    1   -0.28715      0.99966     2.28237    0.00511     3.28715
      C    2   -0.18771      0.99959     2.17686    0.01126     3.18771
      C    3    0.06474      0.99956     1.92185    0.01385     2.93526
      C    4   -0.18991      0.99958     2.18085    0.00948     3.18991
      C    5   -0.19644      0.99960     2.18764    0.00919     3.19644
      C    6   -0.02862      0.99949     2.01967    0.00945     3.02862
      C    7    0.07597      0.99944     1.91430    0.01028     2.92403
      N    8   -0.32334      0.99966     2.81304    0.01064     3.82334
      C    9   -0.11015      0.99954     2.10247    0.00815     3.11015
      C   10   -0.12115      0.99952     2.11261    0.00902     3.12115
      C   11    0.14354      0.99937     1.84356    0.01352     2.85646
      C   12   -0.12607      0.99948     2.11651    0.01007     3.12607
      O   13   -0.34633      0.99988     3.33960    0.00685     4.34633
      C   14   -0.29811      0.99962     2.29126    0.00723     3.29811
      H   15    0.09886      0.00000     0.39976    0.00138     0.40114
      H   16    0.10129      0.00000     0.39758    0.00113     0.39871
      H   17    0.09702      0.00000     0.40173    0.00125     0.40298
      H   18    0.09467      0.00000     0.40399    0.00133     0.40533
      H   19    0.10038      0.00000     0.39830    0.00132     0.39962
      H   20    0.10058      0.00000     0.39802    0.00140     0.39942
      H   21    0.10388      0.00000     0.39502    0.00111     0.39612
      H   22    0.10515      0.00000     0.39383    0.00102     0.39485
      H   23    0.10307      0.00000     0.39556    0.00136     0.39693
      H   24    0.18093      0.00000     0.31637    0.00271     0.31907
      H   25    0.09628      0.00000     0.40259    0.00113     0.40372
      H   26    0.10286      0.00000     0.39631    0.00083     0.39714
      H   27    0.10112      0.00000     0.39670    0.00218     0.39888
      H   28    0.23684      0.00000     0.25626    0.00690     0.26316
      H   29    0.10251      0.00000     0.39637    0.00112     0.39749
      H   30    0.10064      0.00000     0.39813    0.00123     0.39936
      H   31    0.10463      0.00000     0.39419    0.00117     0.39537
 =======================================================================
   * Total *   -0.00000     13.99400    37.84334    0.16267    52.00000

 Normal termination of Gaussian 16 at Thu Dec 10 11:19:25 2020.
