 Gaussian 16, Revision A.03,

 -----------------------------------------------------------
 # opt freq B3LYP/6-31G(d) empiricaldispersion=gd3bj scf=xqc
 -----------------------------------------------------------

 -------------------------------
 CID_115389455_JID_3037_neutraal
 -------------------------------
 Symbolic Z-matrix:
 Charge =  0 Multiplicity = 1

 SCF Done:  E(RB3LYP) =  -944.131330533     A.U. after   14 cycles
 SCF Done:  E(RB3LYP) =  -944.140447906     A.U. after   13 cycles
 SCF Done:  E(RB3LYP) =  -944.141178455     A.U. after   11 cycles
 SCF Done:  E(RB3LYP) =  -944.141210159     A.U. after   10 cycles
 SCF Done:  E(RB3LYP) =  -944.141222293     A.U. after   10 cycles
 SCF Done:  E(RB3LYP) =  -944.141229298     A.U. after    9 cycles
 SCF Done:  E(RB3LYP) =  -944.141229862     A.U. after    8 cycles
 SCF Done:  E(RB3LYP) =  -944.141230470     A.U. after    8 cycles
 SCF Done:  E(RB3LYP) =  -944.141230641     A.U. after    8 cycles
 SCF Done:  E(RB3LYP) =  -944.141230719     A.U. after    7 cycles
 SCF Done:  E(RB3LYP) =  -944.141230784     A.U. after    7 cycles
 SCF Done:  E(RB3LYP) =  -944.141230817     A.U. after    6 cycles
 Optimization completed.
    -- Stationary point found.
 Normal termination of Gaussian 16 at Wed Dec  9 22:21:08 2020.

 --------------------------------------------------------------------
 #N Geom=AllCheck Guess=TCheck SCRF=Check GenChk RB3LYP/6-31G(d) Freq
 --------------------------------------------------------------------

 Structure from the checkpoint file:  "JID_3037.chk"
 -------------------------------
 CID_115389455_JID_3037_neutraal
 -------------------------------
 Charge =  0 Multiplicity = 1

 SCF Done:  E(RB3LYP) =  -944.141230817     A.U. after    1 cycles

  Exact polarizability: 177.251  -3.971 113.129  -1.741   1.032  69.196
 Approx polarizability: 259.093 -11.862 192.452  -3.567  -3.083 109.676

                      1                      2                      3
                      A                      A                      A
 Frequencies --     51.9168                64.6532               108.7615
 Red. masses --      4.5295                 6.3184                 4.6331
 Frc consts  --      0.0072                 0.0156                 0.0323
 IR Inten    --      1.1121                 2.4329                 0.4852

                      4                      5                      6
                      A                      A                      A
 Frequencies --    121.4752               151.3983               176.6384
 Red. masses --      1.0976                 1.0582                 4.4054
 Frc consts  --      0.0095                 0.0143                 0.0810
 IR Inten    --      0.0162                 0.2269                 1.6574

                      7                      8                      9
                      A                      A                      A
 Frequencies --    221.1411               234.7563               265.3143
 Red. masses --      4.6865                 3.5132                 3.7564
 Frc consts  --      0.1350                 0.1141                 0.1558
 IR Inten    --      1.8610                 0.1559                 4.7825

                     10                     11                     12
                      A                      A                      A
 Frequencies --    289.3603               308.7553               379.1859
 Red. masses --      4.3567                 4.9399                 7.3186
 Frc consts  --      0.2149                 0.2775                 0.6200
 IR Inten    --      1.1120                 1.2330                 4.5945

                     13                     14                     15
                      A                      A                      A
 Frequencies --    431.3120               516.2455               524.3674
 Red. masses --      4.5319                 3.1698                 1.6077
 Frc consts  --      0.4967                 0.4977                 0.2605
 IR Inten    --      2.6705                32.8901                31.8327

                     16                     17                     18
                      A                      A                      A
 Frequencies --    529.9141               602.1157               672.0484
 Red. masses --      1.5509                 6.8656                 3.4250
 Frc consts  --      0.2566                 1.4665                 0.9114
 IR Inten    --     71.0156                15.9825                12.7884

                     19                     20                     21
                      A                      A                      A
 Frequencies --    678.2496               685.0440               695.8887
 Red. masses --      4.3615                 3.6797                 4.1463
 Frc consts  --      1.1821                 1.0174                 1.1830
 IR Inten    --      2.1664                15.6572                15.2172

                     22                     23                     24
                      A                      A                      A
 Frequencies --    729.7718               739.3050               884.8020
 Red. masses --      5.8393                 6.6328                 1.3349
 Frc consts  --      1.8322                 2.1360                 0.6157
 IR Inten    --      5.7268                12.5489                15.8557

                     25                     26                     27
                      A                      A                      A
 Frequencies --    949.4044               974.3898              1016.4800
 Red. masses --      4.9591                 3.7056                 1.6357
 Frc consts  --      2.6336                 2.0729                 0.9958
 IR Inten    --     40.6688                19.3666                 3.1223

                     28                     29                     30
                      A                      A                      A
 Frequencies --   1074.5354              1084.2098              1109.1717
 Red. masses --      1.5554                 2.6890                 4.0098
 Frc consts  --      1.0581                 1.8624                 2.9065
 IR Inten    --      5.4112                22.4472                40.2495

                     31                     32                     33
                      A                      A                      A
 Frequencies --   1136.5500              1169.4184              1178.7243
 Red. masses --      3.0947                 1.3025                 3.2854
 Frc consts  --      2.3553                 1.0495                 2.6895
 IR Inten    --     34.1133                 2.5254                48.5527

                     34                     35                     36
                      A                      A                      A
 Frequencies --   1202.3335              1256.4650              1272.0326
 Red. masses --      3.1874                 2.6160                 2.4289
 Frc consts  --      2.7148                 2.4332                 2.3156
 IR Inten    --     12.1699                 7.4773                51.4833

                     37                     38                     39
                      A                      A                      A
 Frequencies --   1324.9519              1346.8698              1373.7704
 Red. masses --      2.0222                 3.4239                 8.2311
 Frc consts  --      2.0916                 3.6595                 9.1524
 IR Inten    --     28.7754                56.4181                35.2541

                     40                     41                     42
                      A                      A                      A
 Frequencies --   1430.2770              1450.0161              1463.7585
 Red. masses --      2.3766                 1.4568                 1.8775
 Frc consts  --      2.8645                 1.8046                 2.3701
 IR Inten    --     20.1086                 4.5691                 0.1797

                     43                     44                     45
                      A                      A                      A
 Frequencies --   1482.9780              1502.3753              1505.8438
 Red. masses --      2.1778                 2.1015                 1.2242
 Frc consts  --      2.8219                 2.7947                 1.6356
 IR Inten    --    110.5893               180.6789                53.1110

                     46                     47                     48
                      A                      A                      A
 Frequencies --   1516.3638              1522.3149              1543.0549
 Red. masses --      1.0763                 1.2115                 1.2469
 Frc consts  --      1.4581                 1.6541                 1.7493
 IR Inten    --     20.9017                 6.1653                64.3313

                     49                     50                     51
                      A                      A                      A
 Frequencies --   1548.1401              1587.5466              1670.2378
 Red. masses --      2.2080                 4.1309                 7.8913
 Frc consts  --      3.1180                 6.1341                12.9704
 IR Inten    --     10.9518                47.7950                78.6103

                     52                     53                     54
                      A                      A                      A
 Frequencies --   3051.9242              3078.1184              3109.0903
 Red. masses --      1.0399                 1.0337                 1.0994
 Frc consts  --      5.7065                 5.7707                 6.2613
 IR Inten    --     16.5456                25.0991                13.0417

                     55                     56                     57
                      A                      A                      A
 Frequencies --   3144.9083              3149.3370              3180.7718
 Red. masses --      1.1005                 1.1030                 1.1058
 Frc consts  --      6.4126                 6.4453                 6.5919
 IR Inten    --      6.6499                 8.4877                 1.9174

                     58                     59                     60
                      A                      A                      A
 Frequencies --   3275.5378              3655.5797              3679.1266
 Red. masses --      1.0970                 1.0814                 1.0821
 Frc consts  --      6.9347                 8.5141                 8.6303
 IR Inten    --      1.3926                91.2774               102.1167

 - Thermochemistry -
 -------------------
 Temperature   298.150 Kelvin.  Pressure   1.00000 Atm.
 Atom     1 has atomic number  6 and mass  12.00000

 Molecular mass:   195.05787 amu.
 Principal axes and moments of inertia in atomic units:
                           1         2         3
     Eigenvalues --  1055.091154367.671035007.74112
           X            0.99990   0.01309   0.00482
           Y           -0.01316   0.99981   0.01412
           Z           -0.00463  -0.01418   0.99989
 This molecule is an asymmetric top.
 Rotational symmetry number  1.
 Warning -- assumption of classical behavior for rotation
           may cause significant error
 Rotational temperatures (Kelvin)      0.08209     0.01983     0.01730
 Rotational constants (GHZ):           1.71051     0.41320     0.36039
 Zero-point vibrational energy     449072.3 (Joules/Mol)
                                  107.33086 (Kcal/Mol)
 Warning -- explicit consideration of  17 degrees of freedom as
           vibrations may cause significant error
 Vibrational temperatures:     74.70    93.02   156.48   174.78   217.83
          (Kelvin)            254.14   318.17   337.76   381.73   416.32
                              444.23   545.56   620.56   742.76   754.45
                              762.43   866.31   966.93   975.85   985.63
                             1001.23  1049.98  1063.70  1273.03  1365.98
                             1401.93  1462.49  1546.02  1559.94  1595.85
                             1635.24  1682.53  1695.92  1729.89  1807.77
                             1830.17  1906.31  1937.85  1976.55  2057.85
                             2086.25  2106.02  2133.67  2161.58  2166.57
                             2181.71  2190.27  2220.11  2227.43  2284.13
                             2403.10  4391.04  4428.73  4473.29  4524.82
                             4531.19  4576.42  4712.77  5259.56  5293.44

 Zero-point correction=                           0.171043 (Hartree/Particle)
 Thermal correction to Energy=                    0.183017
 Thermal correction to Enthalpy=                  0.183961
 Thermal correction to Gibbs Free Energy=         0.132161
 Sum of electronic and zero-point Energies=           -943.970188
 Sum of electronic and thermal Energies=              -943.958214
 Sum of electronic and thermal Enthalpies=            -943.957270
 Sum of electronic and thermal Free Energies=         -944.009069

                     E (Thermal)             CV                S
                      KCal/Mol        Cal/Mol-Kelvin    Cal/Mol-Kelvin
 Total                  114.845             43.819            109.021
 Electronic               0.000              0.000              0.000
 Translational            0.889              2.981             41.710
 Rotational               0.889              2.981             31.512
 Vibrational            113.067             37.857             35.799
 Vibration     1          0.596              1.977              4.743
 Vibration     2          0.597              1.971              4.310
 Vibration     3          0.606              1.942              3.291
 Vibration     4          0.609              1.931              3.077
 Vibration     5          0.619              1.901              2.655
 Vibration     6          0.628              1.871              2.364
 Vibration     7          0.648              1.809              1.950
 Vibration     8          0.655              1.788              1.842
 Vibration     9          0.671              1.737              1.627
 Vibration    10          0.686              1.694              1.478
 Vibration    11          0.698              1.657              1.369
 Vibration    12          0.749              1.515              1.042
 Vibration    13          0.792              1.402              0.854
 Vibration    14          0.871              1.214              0.619
 Vibration    15          0.879              1.196              0.600
 Vibration    16          0.885              1.184              0.587
 Vibration    17          0.960              1.027              0.446

                           ! Non-Optimized Parameters !
 Normal termination of Gaussian 16 at Wed Dec  9 22:26:47 2020.

 ----------------------------------------------------------------------
 # B3LYP/6-311++G(d,p) empiricaldispersion=gd3bj scf=xqc pop=npa geom=c
 heck
 ----------------------------------------------------------------------

 ---------------------------------------
 CID_115389455_JID_3037_Energie_neutraal
 ---------------------------------------
 Structure from the checkpoint file:  "JID_3037.chk"
 Charge =  0 Multiplicity = 1

 SCF Done:  E(RB3LYP) =  -944.314526129     A.U. after   15 cycles
 Normal termination of Gaussian 16 at Wed Dec  9 22:28:41 2020.

 ----------------------------------------------------------------------
 # B3LYP/6-311++G(d,p) empiricaldispersion=gd3bj scf=xqc pop=npa geom=c
 heck
 ----------------------------------------------------------------------

 -------------------------------------
 CID_115389455_JID_3037_Energie_kation
 -------------------------------------
 Structure from the checkpoint file:  "JID_3037.chk"
 Charge =  1 Multiplicity = 2

 SCF Done:  E(UB3LYP) =  -944.032799851     A.U. after   24 cycles
 Normal termination of Gaussian 16 at Wed Dec  9 22:32:37 2020.
 Gaussian 16:  ES64L-G16RevA.03 25-Dec-2016

 ----------------------------------------------------------------------
 # B3LYP/6-311++G(d,p) empiricaldispersion=gd3bj scf=xqc pop=npa geom=c
 heck
 ----------------------------------------------------------------------

 ------------------------------------
 CID_115389455_JID_3037_Energie_anion
 ------------------------------------
 Structure from the checkpoint file:  "JID_3037.chk"
 Charge = -1 Multiplicity = 2

                         Standard orientation:
 ---------------------------------------------------------------------
 Center     Atomic      Atomic             Coordinates (Angstroms)
 Number     Number       Type             X           Y           Z
 ---------------------------------------------------------------------
      1          6           0        1.853466    1.943798    1.009489
      2          6           0        2.192653    0.660066    0.324424
      3          6           0        1.412105   -0.432216   -0.052133
      4          6           0        2.329109   -1.363297   -0.609929
      5          7           0        3.571632   -0.899555   -0.600527
      6          7           0        3.459479    0.325346   -0.031321
      7          6           0       -0.016852   -0.627578    0.130813
      8          7           0       -0.553074   -1.711481    0.636071
      9          7           0       -1.899209   -1.467546    0.584855
     10          6           0       -2.236654   -0.253837    0.072836
     11         16           0       -3.750292    0.415281   -0.150172
     12          7           0       -0.997948    0.286844   -0.230892
     13          6           0       -0.832959    1.544811   -0.936339
     14          1           0        2.627891    2.220711    1.732861
     15          1           0        1.744974    2.774339    0.301363
     16          1           0        0.910685    1.843442    1.553231
     17          1           0        2.109087   -2.342222   -1.012449
     18          1           0        4.295030    0.876344    0.101397
     19          1           0       -2.556499   -2.149359    0.931999
     20          1           0       -1.631338    1.629921   -1.676131
     21          1           0       -0.909265    2.391448   -0.248142
     22          1           0        0.142745    1.545142   -1.423631
 ---------------------------------------------------------------------

 SCF Done:  E(UB3LYP) =  -944.310742549     A.U. after   29 cycles

 The electronic state is 2-A.
 Alpha  occ. eigenvalues --  -88.70761 -14.31288 -14.30247 -14.29172 -14.26733
 Alpha  occ. eigenvalues --  -14.24254 -10.20054 -10.17663 -10.13490 -10.12380
 Alpha  occ. eigenvalues --  -10.10682 -10.09498 -10.08036  -7.79507  -5.75961
 Alpha  occ. eigenvalues --   -5.75286  -5.75048  -1.01063  -0.95808  -0.86854
 Alpha  occ. eigenvalues --   -0.78812  -0.74128  -0.71019  -0.66856  -0.62849
 Alpha  occ. eigenvalues --   -0.62452  -0.58153  -0.53286  -0.51989  -0.49507
 Alpha  occ. eigenvalues --   -0.46092  -0.42985  -0.41261  -0.39736  -0.37037
 Alpha  occ. eigenvalues --   -0.36534  -0.35323  -0.34656  -0.33368  -0.32138
 Alpha  occ. eigenvalues --   -0.31014  -0.29817  -0.29465  -0.24526  -0.23967
 Alpha  occ. eigenvalues --   -0.23295  -0.20683  -0.17543  -0.16101  -0.13440
 Alpha  occ. eigenvalues --   -0.12313   0.04074
 Alpha virt. eigenvalues --    0.06727   0.07012   0.07612   0.07862   0.08425
 Alpha virt. eigenvalues --    0.09278   0.09594   0.10359   0.10969   0.11477
 Alpha virt. eigenvalues --    0.12400   0.12678   0.13693   0.14165   0.14306

  Beta  occ. eigenvalues --  -88.70760 -14.31286 -14.30245 -14.29105 -14.26730
  Beta  occ. eigenvalues --  -14.24245 -10.20053 -10.17663 -10.13490 -10.12341
  Beta  occ. eigenvalues --  -10.10681 -10.09491 -10.07943  -7.79506  -5.75960
  Beta  occ. eigenvalues --   -5.75285  -5.75046  -1.01059  -0.95762  -0.86845
  Beta  occ. eigenvalues --   -0.78807  -0.74071  -0.70969  -0.66822  -0.62832
  Beta  occ. eigenvalues --   -0.62347  -0.58116  -0.53251  -0.51923  -0.49478
  Beta  occ. eigenvalues --   -0.46067  -0.42913  -0.41233  -0.39703  -0.37001
  Beta  occ. eigenvalues --   -0.36481  -0.35268  -0.34627  -0.33331  -0.32078
  Beta  occ. eigenvalues --   -0.30938  -0.29794  -0.29387  -0.24515  -0.23955
  Beta  occ. eigenvalues --   -0.23282  -0.20654  -0.17512  -0.16078  -0.13435
  Beta  occ. eigenvalues --   -0.12309
  Beta virt. eigenvalues --    0.06567   0.07100   0.07526   0.07920   0.08626
  Beta virt. eigenvalues --    0.08809   0.09712   0.10064   0.11008   0.11382
  Beta virt. eigenvalues --    0.12180   0.12734   0.12826   0.13809   0.14209

 Mulliken charges and spin densities:
               1          2
     1  C    2.797468  -3.516681
     2  C   -1.858509   1.539442
     3  C    1.063021  -0.595822
     4  C   -0.198194   0.005615
     5  N   -0.362794   0.139109
     6  N    0.058242   0.001031
     7  C    0.099664  -0.205221
     8  N   -0.088209   0.015130
     9  N   -0.087669  -0.000327
    10  C    0.269722   0.140427
    11  S   -0.819037  -0.016800
    12  N   -0.100154   0.156063
    13  C    0.684627  -1.081242
    14  H   -0.966064   1.149916
    15  H   -0.631462   0.831722
    16  H   -0.299647   0.472534
    17  H    0.068191   0.101398
    18  H   -0.501775   0.854725
    19  H    0.311359   0.044923
    20  H    0.085996   0.051548
    21  H   -0.165029   0.367502
    22  H   -0.359747   0.545010
 Sum of Mulliken charges =  -1.00000   1.00000

 Dipole moment (field-independent basis, Debye):
    X=             -6.8574    Y=             -7.4474    Z=             -1.4165  Tot=             10.2222
 Quadrupole moment (field-independent basis, Debye-Ang):
   XX=           -174.2348   YY=           -127.5770   ZZ=           -111.9255
   XY=            -11.1630   XZ=             -6.9935   YZ=             -5.4740

 Summary of Natural Population Analysis:

                                       Natural Population
                Natural  -----------------------------------------------
    Atom  No    Charge         Core      Valence    Rydberg      Total
 -----------------------------------------------------------------------
      C    1   -0.30828      0.99963     2.30165    0.00699     3.30828
      C    2    0.10811      0.99952     1.87966    0.01272     2.89189
      C    3   -0.12001      0.99944     2.10899    0.01158     3.12001
      C    4    0.00738      0.99959     1.97906    0.01398     2.99262
      N    5   -0.14986      0.99974     2.63679    0.01333     3.64986
      N    6   -0.16183      0.99965     2.64837    0.01382     3.66183
      C    7    0.20223      0.99956     1.78059    0.01761     2.79777
      N    8   -0.14983      0.99969     2.63931    0.01083     3.64983
      N    9   -0.19412      0.99963     2.68213    0.01236     3.69412
      C   10    0.11768      0.99962     1.86159    0.02110     2.88232
      S   11   -0.14436      4.99960     3.13124    0.01352     8.14436
      N   12   -0.21842      0.99958     2.70858    0.01026     3.71842
      C   13   -0.17937      0.99963     2.17125    0.00848     3.17937
      H   14    0.11932      0.00000     0.37549    0.00518     0.38068
      H   15    0.11851      0.00000     0.37467    0.00682     0.38149
      H   16    0.10971      0.00000     0.38829    0.00200     0.39029
      H   17    0.09988      0.00000     0.39917    0.00095     0.40012
      H   18    0.21050      0.00000     0.27489    0.01461     0.28950
      H   19    0.20400      0.00000     0.29405    0.00194     0.29600
      H   20    0.11151      0.00000     0.38752    0.00098     0.38849
      H   21    0.10717      0.00000     0.39157    0.00126     0.39283
      H   22    0.11007      0.00000     0.38860    0.00132     0.38993
 =======================================================================
   * Total *    0.00000     16.99487    33.80348    0.20165    51.00000

 Normal termination of Gaussian 16 at Wed Dec  9 22:37:35 2020.
