 Gaussian 16, Revision A.03,

 -----------------------------------------------------------
 # opt freq B3LYP/6-31G(d) empiricaldispersion=gd3bj scf=xqc
 -----------------------------------------------------------

 ------------------------------
 CID_61554563_JID_5050_neutraal
 ------------------------------
 Symbolic Z-matrix:
 Charge =  0 Multiplicity = 1

 SCF Done:  E(RB3LYP) =  -634.409671923     A.U. after   16 cycles
 SCF Done:  E(RB3LYP) =  -634.435792027     A.U. after   14 cycles
 SCF Done:  E(RB3LYP) =  -634.435940541     A.U. after   16 cycles
 SCF Done:  E(RB3LYP) =  -634.438131044     A.U. after   13 cycles
 SCF Done:  E(RB3LYP) =  -634.438700916     A.U. after   15 cycles
 SCF Done:  E(RB3LYP) =  -634.437691721     A.U. after   13 cycles
 SCF Done:  E(RB3LYP) =  -634.440161514     A.U. after   13 cycles
 SCF Done:  E(RB3LYP) =  -634.441208403     A.U. after   14 cycles
 SCF Done:  E(RB3LYP) =  -634.441644776     A.U. after   12 cycles
 SCF Done:  E(RB3LYP) =  -634.441638623     A.U. after   13 cycles
 SCF Done:  E(RB3LYP) =  -634.451027562     A.U. after   11 cycles
 SCF Done:  E(RB3LYP) =  -634.451029262     A.U. after   10 cycles
 SCF Done:  E(RB3LYP) =  -634.451029990     A.U. after    9 cycles
 SCF Done:  E(RB3LYP) =  -634.451030618     A.U. after    8 cycles
 SCF Done:  E(RB3LYP) =  -634.451030704     A.U. after    8 cycles
 SCF Done:  E(RB3LYP) =  -634.451030716     A.U. after    7 cycles
 Optimization completed.
    -- Stationary point found.
 Normal termination of Gaussian 16 at Thu Dec 10 16:38:58 2020.

 --------------------------------------------------------------------
 #N Geom=AllCheck Guess=TCheck SCRF=Check GenChk RB3LYP/6-31G(d) Freq
 --------------------------------------------------------------------

 Structure from the checkpoint file:  "JID_5050.chk"
 ------------------------------
 CID_61554563_JID_5050_neutraal
 ------------------------------
 Charge =  0 Multiplicity = 1

 SCF Done:  E(RB3LYP) =  -634.451030716     A.U. after    1 cycles

  Exact polarizability: 167.710 -11.022 156.554   3.108   7.104  90.204
 Approx polarizability: 248.638 -26.871 248.803   1.400  17.739 139.818

                      1                      2                      3
                      A                      A                      A
 Frequencies --     26.4954                33.6912                35.9482
 Red. masses --      3.6072                 2.7085                 1.4115
 Frc consts  --      0.0015                 0.0018                 0.0011
 IR Inten    --      3.3908                 1.1852                 1.1704

                      4                      5                      6
                      A                      A                      A
 Frequencies --     75.5147               108.8127               135.0078
 Red. masses --      5.5864                 3.7811                 3.0720
 Frc consts  --      0.0188                 0.0264                 0.0330
 IR Inten    --      5.2700                 0.7786                 1.6199

                      7                      8                      9
                      A                      A                      A
 Frequencies --    141.1010               164.3005               189.1969
 Red. masses --      4.0971                 4.5395                 1.0319
 Frc consts  --      0.0481                 0.0722                 0.0218
 IR Inten    --      3.8433                 2.0102                 0.1770

                     10                     11                     12
                      A                      A                      A
 Frequencies --    247.0770               247.8663               260.8928
 Red. masses --      2.5228                 1.3815                 2.7024
 Frc consts  --      0.0907                 0.0500                 0.1084
 IR Inten    --      2.1421                 2.1485                 5.2308

                     13                     14                     15
                      A                      A                      A
 Frequencies --    298.0493               316.3145               325.6494
 Red. masses --      3.2589                 3.1547                 3.7035
 Frc consts  --      0.1706                 0.1860                 0.2314
 IR Inten    --      1.0256                 0.0377                10.2582

                     16                     17                     18
                      A                      A                      A
 Frequencies --    385.8071               397.9993               401.2820
 Red. masses --      3.4117                 4.7343                 3.3886
 Frc consts  --      0.2992                 0.4418                 0.3215
 IR Inten    --      1.8193                 0.0956                10.5072

                     19                     20                     21
                      A                      A                      A
 Frequencies --    439.0603               475.5542               487.4305
 Red. masses --      3.1858                 4.4155                 3.2213
 Frc consts  --      0.3618                 0.5883                 0.4509
 IR Inten    --      2.6547                 0.1124                 4.0378

                     22                     23                     24
                      A                      A                      A
 Frequencies --    548.8764               551.9809               672.2327
 Red. masses --      5.7814                 4.0496                 3.8532
 Frc consts  --      1.0262                 0.7270                 1.0259
 IR Inten    --      0.8750                 5.4030                 5.1492

                     25                     26                     27
                      A                      A                      A
 Frequencies --    707.4776               720.9278               765.7452
 Red. masses --      3.6786                 4.2307                 3.8702
 Frc consts  --      1.0848                 1.2955                 1.3371
 IR Inten    --      0.7118                 0.6865                 2.9430

                     28                     29                     30
                      A                      A                      A
 Frequencies --    792.3108               839.9857               872.8701
 Red. masses --      4.2067                 1.3418                 3.2821
 Frc consts  --      1.5559                 0.5578                 1.4733
 IR Inten    --      4.8837                15.1845                11.1264

                     31                     32                     33
                      A                      A                      A
 Frequencies --    906.5956               915.5023               939.3508
 Red. masses --      1.8579                 1.7462                 1.8187
 Frc consts  --      0.8997                 0.8623                 0.9455
 IR Inten    --      8.5542                 4.5431                 0.3647

                     34                     35                     36
                      A                      A                      A
 Frequencies --    965.2593               970.5754               999.2325
 Red. masses --      3.2267                 1.3334                 2.0748
 Frc consts  --      1.7713                 0.7400                 1.2206
 IR Inten    --      1.6736                 0.1619                37.5300

                     37                     38                     39
                      A                      A                      A
 Frequencies --   1033.4648              1048.5452              1068.0009
 Red. masses --      2.0658                 1.3520                 2.2123
 Frc consts  --      1.3000                 0.8758                 1.4868
 IR Inten    --      9.2879                 1.6187                 2.1341

                     40                     41                     42
                      A                      A                      A
 Frequencies --   1073.8098              1080.3569              1109.0053
 Red. masses --      1.6363                 1.5322                 1.9637
 Frc consts  --      1.1116                 1.0537                 1.4229
 IR Inten    --      1.3968                 9.7763                 9.4070

                     43                     44                     45
                      A                      A                      A
 Frequencies --   1139.8389              1181.7682              1207.2082
 Red. masses --      1.9030                 1.5942                 2.1253
 Frc consts  --      1.4567                 1.3117                 1.8249
 IR Inten    --      3.2792                10.2305                37.4135

                     46                     47                     48
                      A                      A                      A
 Frequencies --   1239.9763              1248.9403              1283.1200
 Red. masses --      1.5036                 1.7447                 3.1891
 Frc consts  --      1.3621                 1.6035                 3.0935
 IR Inten    --      1.1903                23.0963                77.6294

                     49                     50                     51
                      A                      A                      A
 Frequencies --   1321.5965              1334.5856              1351.7988
 Red. masses --      1.3367                 1.4337                 5.4334
 Frc consts  --      1.3756                 1.5045                 5.8499
 IR Inten    --      0.3998                10.4820                12.3944

                     52                     53                     54
                      A                      A                      A
 Frequencies --   1380.1932              1392.5068              1432.2567
 Red. masses --      1.3250                 1.7190                 1.2225
 Frc consts  --      1.4871                 1.9639                 1.4775
 IR Inten    --      2.9530                32.8708                 9.7021

                     55                     56                     57
                      A                      A                      A
 Frequencies --   1444.1241              1447.2789              1450.8646
 Red. masses --      1.3237                 1.2200                 2.3006
 Frc consts  --      1.6265                 1.5057                 2.8532
 IR Inten    --      0.1662                 1.8097                 4.1238

                     58                     59                     60
                      A                      A                      A
 Frequencies --   1495.5560              1508.2167              1513.4544
 Red. masses --      1.0923                 1.0737                 1.0675
 Frc consts  --      1.4395                 1.4390                 1.4406
 IR Inten    --     11.6564                 9.2824                 4.1814

                     61                     62                     63
                      A                      A                      A
 Frequencies --   1519.4094              1523.0323              1526.2149
 Red. masses --      1.0490                 1.0466                 1.1217
 Frc consts  --      1.4269                 1.4303                 1.5394
 IR Inten    --      6.6178                10.5706                14.1035

                     64                     65                     66
                      A                      A                      A
 Frequencies --   1533.8908              1546.8817              1623.3260
 Red. masses --      1.0685                 2.7368                 5.0459
 Frc consts  --      1.4812                 3.8583                 7.8342
 IR Inten    --      5.6604                25.7668                31.6851

                     67                     68                     69
                      A                      A                      A
 Frequencies --   1673.2185              1760.2189              2368.4636
 Red. masses --      5.5582                10.8349                12.5970
 Frc consts  --      9.1683                19.7792                41.6343
 IR Inten    --      1.9903               151.2265                 7.8222

                     70                     71                     72
                      A                      A                      A
 Frequencies --   3043.5908              3058.0439              3062.9244
 Red. masses --      1.0413                 1.0354                 1.0360
 Frc consts  --      5.6832                 5.7048                 5.7262
 IR Inten    --     30.4508                19.7900                22.9887

                     73                     74                     75
                      A                      A                      A
 Frequencies --   3066.1191              3102.3767              3106.6469
 Red. masses --      1.0584                 1.0953                 1.0960
 Frc consts  --      5.8626                 6.2112                 6.2322
 IR Inten    --     12.2786                18.0753                 2.9698

                     76                     77                     78
                      A                      A                      A
 Frequencies --   3119.1311              3125.6361              3129.1238
 Red. masses --      1.0932                 1.1029                 1.1001
 Frc consts  --      6.2663                 6.3486                 6.3465
 IR Inten    --      3.9600                23.9462                10.1493

                     79                     80                     81
                      A                      A                      A
 Frequencies --   3132.0582              3133.2385              3146.4091
 Red. masses --      1.1026                 1.1033                 1.1016
 Frc consts  --      6.3729                 6.3818                 6.4256
 IR Inten    --     11.4131                21.2110                15.8639

                     82                     83                     84
                      A                      A                      A
 Frequencies --   3176.7666              3194.2798              3212.2284
 Red. masses --      1.0871                 1.0942                 1.0891
 Frc consts  --      6.4636                 6.5782                 6.6209
 IR Inten    --     10.8056                29.8651                 3.8405

 - Thermochemistry -
 -------------------
 Temperature   298.150 Kelvin.  Pressure   1.00000 Atm.
 Atom     1 has atomic number  6 and mass  12.00000

 Molecular mass:   201.11536 amu.
 Principal axes and moments of inertia in atomic units:
                           1         2         3
     Eigenvalues --  2365.680363748.650645256.01975
           X            0.99899  -0.04141   0.01719
           Y            0.04110   0.99900   0.01779
           Z           -0.01791  -0.01706   0.99969
 This molecule is an asymmetric top.
 Rotational symmetry number  1.
 Warning -- assumption of classical behavior for rotation
           may cause significant error
 Rotational temperatures (Kelvin)      0.03661     0.02311     0.01648
 Rotational constants (GHZ):           0.76288     0.48144     0.34337
 Zero-point vibrational energy     658135.5 (Joules/Mol)
                                  157.29817 (Kcal/Mol)
 Warning -- explicit consideration of  23 degrees of freedom as
           vibrations may cause significant error
 Vibrational temperatures:     38.12    48.47    51.72   108.65   156.56
          (Kelvin)            194.25   203.01   236.39   272.21   355.49
                              356.62   375.37   428.83   455.11   468.54
                              555.09   572.63   577.36   631.71   684.22
                              701.30   789.71   794.18   967.19  1017.90
                             1037.25  1101.74  1139.96  1208.55  1255.87
                             1304.39  1317.20  1351.52  1388.79  1396.44
                             1437.67  1486.93  1508.62  1536.62  1544.97
                             1554.39  1595.61  1639.97  1700.30  1736.90
                             1784.05  1796.95  1846.12  1901.48  1920.17
                             1944.94  1985.79  2003.51  2060.70  2077.77
                             2082.31  2087.47  2151.77  2169.99  2177.52
                             2186.09  2191.30  2195.88  2206.93  2225.62
                             2335.60  2407.39  2532.56  3407.69  4379.05
                             4399.84  4406.87  4411.46  4463.63  4469.77
                             4487.73  4497.09  4502.11  4506.33  4508.03
                             4526.98  4570.66  4595.86  4621.68

 Zero-point correction=                           0.250671 (Hartree/Particle)
 Thermal correction to Energy=                    0.266167
 Thermal correction to Enthalpy=                  0.267111
 Thermal correction to Gibbs Free Energy=         0.206463
 Sum of electronic and zero-point Energies=           -634.200360
 Sum of electronic and thermal Energies=              -634.184864
 Sum of electronic and thermal Enthalpies=            -634.183920
 Sum of electronic and thermal Free Energies=         -634.244568

                     E (Thermal)             CV                S
                      KCal/Mol        Cal/Mol-Kelvin    Cal/Mol-Kelvin
 Total                  167.022             56.597            127.645
 Electronic               0.000              0.000              0.000
 Translational            0.889              2.981             41.801
 Rotational               0.889              2.981             32.211
 Vibrational            165.245             50.636             53.633
 Vibration     1          0.593              1.984              6.076
 Vibration     2          0.594              1.983              5.599
 Vibration     3          0.594              1.982              5.471
 Vibration     4          0.599              1.965              4.004
 Vibration     5          0.606              1.942              3.290
 Vibration     6          0.613              1.918              2.873
 Vibration     7          0.615              1.912              2.789
 Vibration     8          0.623              1.886              2.500
 Vibration     9          0.633              1.855              2.236
 Vibration    10          0.661              1.768              1.751
 Vibration    11          0.661              1.766              1.746
 Vibration    12          0.669              1.744              1.656
 Vibration    13          0.691              1.677              1.428
 Vibration    14          0.703              1.642              1.329
 Vibration    15          0.710              1.624              1.282
 Vibration    16          0.754              1.500              1.016
 Vibration    17          0.764              1.474              0.970
 Vibration    18          0.767              1.467              0.958
 Vibration    19          0.799              1.385              0.830
 Vibration    20          0.832              1.304              0.722
 Vibration    21          0.843              1.278              0.690
 Vibration    22          0.904              1.142              0.547
 Vibration    23          0.907              1.135              0.540

 Optimization completed.
    -- Stationary point found.
 Normal termination of Gaussian 16 at Thu Dec 10 16:50:05 2020.

 ----------------------------------------------------------------------
 # B3LYP/6-311++G(d,p) empiricaldispersion=gd3bj scf=xqc pop=npa geom=c
 heck
 ----------------------------------------------------------------------

 --------------------------------------
 CID_61554563_JID_5050_Energie_neutraal
 --------------------------------------
 Structure from the checkpoint file:  "JID_5050.chk"
 Charge =  0 Multiplicity = 1

 SCF Done:  E(RB3LYP) =  -634.620955489     A.U. after   16 cycles
 Normal termination of Gaussian 16 at Thu Dec 10 16:56:27 2020.

 ----------------------------------------------------------------------
 # B3LYP/6-311++G(d,p) empiricaldispersion=gd3bj scf=xqc pop=npa geom=c
 heck
 ----------------------------------------------------------------------

 ------------------------------------
 CID_61554563_JID_5050_Energie_kation
 ------------------------------------
 Structure from the checkpoint file:  "JID_5050.chk"
 Charge =  1 Multiplicity = 2

 SCF Done:  E(UB3LYP) =  -634.303803193     A.U. after   28 cycles
 Normal termination of Gaussian 16 at Thu Dec 10 17:18:23 2020.
 Gaussian 16:  ES64L-G16RevA.03 25-Dec-2016

 ----------------------------------------------------------------------
 # B3LYP/6-311++G(d,p) empiricaldispersion=gd3bj scf=xqc pop=npa geom=c
 heck
 ----------------------------------------------------------------------

 -----------------------------------
 CID_61554563_JID_5050_Energie_anion
 -----------------------------------
 Structure from the checkpoint file:  "JID_5050.chk"
 Charge = -1 Multiplicity = 2

                         Standard orientation:
 ---------------------------------------------------------------------
 Center     Atomic      Atomic             Coordinates (Angstroms)
 Number     Number       Type             X           Y           Z
 ---------------------------------------------------------------------
      1          6           0       -2.556708    2.698207    0.597170
      2          6           0       -2.193502    1.262843    0.306716
      3          6           0       -0.861230    0.852372    0.265891
      4          6           0       -0.495762   -0.474476   -0.014099
      5          6           0       -1.496271   -1.446214   -0.258527
      6          6           0       -2.828654   -1.031123   -0.178564
      7          6           0       -3.175402    0.291255    0.089653
      8          6           0       -1.191510   -2.886498   -0.587221
      9          6           0        0.946536   -0.825098   -0.103433
     10          8           0        1.361070   -1.723055   -0.824502
     11          6           0        1.972503   -0.075090    0.768748
     12          6           0        2.662200   -1.098937    1.682458
     13          6           0        3.015654    0.614397   -0.142333
     14          6           0        2.444870    1.757331   -0.857457
     15          7           0        1.948505    2.663105   -1.387373
     16          1           0       -1.736101    3.374634    0.339150
     17          1           0       -3.441687    3.007511    0.031183
     18          1           0       -2.783998    2.844039    1.661405
     19          1           0       -0.089198    1.601780    0.404537
     20          1           0       -3.614460   -1.763671   -0.344114
     21          1           0       -4.225352    0.572524    0.125110
     22          1           0       -0.786548   -2.982991   -1.598861
     23          1           0       -0.437668   -3.311256    0.082279
     24          1           0       -2.102258   -3.489285   -0.515685
     25          1           0        1.482801    0.679353    1.387763
     26          1           0        1.933067   -1.580474    2.342435
     27          1           0        3.141941   -1.876381    1.081040
     28          1           0        3.417766   -0.612444    2.308456
     29          1           0        3.866206    0.963748    0.454348
     30          1           0        3.391054   -0.118188   -0.865430
 ---------------------------------------------------------------------

 SCF Done:  E(UB3LYP) =  -634.633845481     A.U. after   29 cycles

 The electronic state is 2-A.
 Alpha  occ. eigenvalues --  -18.91601 -14.19573 -10.09678 -10.09393 -10.05851
 Alpha  occ. eigenvalues --  -10.05821 -10.04847 -10.04587 -10.03281 -10.02649
 Alpha  occ. eigenvalues --  -10.02311 -10.02291 -10.01576 -10.01496 -10.01420
 Alpha  occ. eigenvalues --   -0.86176  -0.79356  -0.71172  -0.69456  -0.64515
 Alpha  occ. eigenvalues --   -0.61154  -0.60128  -0.58350  -0.52301  -0.50796
 Alpha  occ. eigenvalues --   -0.46978  -0.43516  -0.39927  -0.38917  -0.36377
 Alpha  occ. eigenvalues --   -0.33675  -0.33110  -0.31956  -0.30845  -0.29761
 Alpha  occ. eigenvalues --   -0.29314  -0.27725  -0.27472  -0.27027  -0.26766
 Alpha  occ. eigenvalues --   -0.25685  -0.25097  -0.24526  -0.23447  -0.22548
 Alpha  occ. eigenvalues --   -0.22108  -0.21358  -0.20424  -0.20259  -0.19359
 Alpha  occ. eigenvalues --   -0.19065  -0.11008  -0.09572  -0.08242   0.04676
 Alpha virt. eigenvalues --    0.07899   0.08796   0.09629   0.10071   0.10919
 Alpha virt. eigenvalues --    0.11115   0.11842   0.12404   0.12783   0.13061
 Alpha virt. eigenvalues --    0.13226   0.13815   0.14160   0.14714   0.14935

  Beta  occ. eigenvalues --  -18.90960 -14.19564 -10.09677 -10.09354 -10.05880
  Beta  occ. eigenvalues --  -10.05409 -10.04812 -10.04583 -10.03344 -10.02455
  Beta  occ. eigenvalues --  -10.02374 -10.02306 -10.01459 -10.01381 -10.01110
  Beta  occ. eigenvalues --   -0.85024  -0.79335  -0.70865  -0.69323  -0.64319
  Beta  occ. eigenvalues --   -0.60928  -0.59785  -0.58227  -0.52008  -0.50502
  Beta  occ. eigenvalues --   -0.46505  -0.43308  -0.39820  -0.38597  -0.36167
  Beta  occ. eigenvalues --   -0.33357  -0.32992  -0.31578  -0.30711  -0.29686
  Beta  occ. eigenvalues --   -0.29098  -0.27544  -0.27223  -0.26921  -0.26532
  Beta  occ. eigenvalues --   -0.25565  -0.25041  -0.24321  -0.23320  -0.22260
  Beta  occ. eigenvalues --   -0.21320  -0.21219  -0.20064  -0.19836  -0.19134
  Beta  occ. eigenvalues --   -0.16987  -0.09755  -0.08491  -0.07604
  Beta virt. eigenvalues --    0.07825   0.08741   0.09553   0.09932   0.10889
  Beta virt. eigenvalues --    0.11046   0.11208   0.12047   0.12368   0.12853
  Beta virt. eigenvalues --    0.13042   0.13457   0.13788   0.14170   0.14838

 Mulliken charges and spin densities:
               1          2
     1  C   -0.354804   0.017449
     2  C    0.441862  -0.035161
     3  C   -0.800545   0.112881
     4  C    0.583206   0.052686
     5  C    0.702394   0.136421
     6  C   -0.685557  -0.066369
     7  C   -0.636348   0.258394
     8  C   -0.587623   0.002282
     9  C   -0.355616   0.265157
    10  O   -0.349040   0.216650
    11  C    0.529145   0.049310
    12  C   -0.535728  -0.039640
    13  C   -0.142896  -0.016893
    14  C   -0.333865  -0.020075
    15  N   -0.286334   0.002282
    16  H    0.153539  -0.001836
    17  H    0.106335   0.014269
    18  H    0.131435  -0.001433
    19  H   -0.046329  -0.015816
    20  H    0.073462   0.004386
    21  H    0.088225  -0.022965
    22  H    0.168099   0.006573
    23  H    0.143943   0.006853
    24  H    0.094453  -0.000532
    25  H    0.185441   0.008413
    26  H    0.110360   0.025325
    27  H    0.176811  -0.002649
    28  H    0.090524   0.011730
    29  H    0.126681   0.041496
    30  H    0.208771  -0.009192
 Sum of Mulliken charges =  -1.00000   1.00000

 Dipole moment (field-independent basis, Debye):
    X=              1.0082    Y=              0.1894    Z=              3.3401  Tot=              3.4941
 Quadrupole moment (field-independent basis, Debye-Ang):
   XX=           -113.1055   YY=           -120.0628   ZZ=           -105.1470
   XY=             -0.0610   XZ=              5.6442   YZ=              3.9034

 Summary of Natural Population Analysis:

                                       Natural Population
                Natural  -----------------------------------------------
    Atom  No    Charge         Core      Valence    Rydberg      Total
 -----------------------------------------------------------------------
      C    1   -0.28737      0.99964     2.28306    0.00467     3.28737
      C    2   -0.04624      0.99951     2.03903    0.00769     3.04624
      C    3   -0.05479      0.99949     2.04727    0.00804     3.05479
      C    4   -0.05364      0.99943     2.04289    0.01132     3.05364
      C    5    0.03729      0.99949     1.95550    0.00772     2.96271
      C    6   -0.12551      0.99953     2.11718    0.00881     3.12551
      C    7   -0.04322      0.99952     2.03462    0.00908     3.04322
      C    8   -0.29225      0.99964     2.28787    0.00474     3.29225
      C    9    0.32458      0.99960     1.65188    0.02394     2.67542
      O   10   -0.25026      0.99988     3.24400    0.00638     4.25026
      C   11   -0.14117      0.99957     2.13087    0.01072     3.14117
      C   12   -0.27599      0.99965     2.27151    0.00483     3.27599
      C   13   -0.24270      0.99953     2.23485    0.00832     3.24270
      C   14    0.16625      0.99967     1.81650    0.01758     2.83375
      N   15   -0.19366      0.99979     2.68300    0.01087     3.69366
      H   16    0.09994      0.00000     0.39920    0.00086     0.40006
      H   17    0.09496      0.00000     0.40411    0.00093     0.40504
      H   18    0.09346      0.00000     0.40539    0.00115     0.40654
      H   19    0.09197      0.00000     0.40648    0.00155     0.40803
      H   20    0.08708      0.00000     0.41128    0.00164     0.41292
      H   21    0.08350      0.00000     0.41501    0.00149     0.41650
      H   22    0.10999      0.00000     0.38899    0.00102     0.39001
      H   23    0.10611      0.00000     0.39284    0.00105     0.39389
      H   24    0.08506      0.00000     0.41389    0.00104     0.41494
      H   25    0.09845      0.00000     0.40007    0.00148     0.40155
      H   26    0.10200      0.00000     0.39729    0.00071     0.39800
      H   27    0.10399      0.00000     0.39484    0.00118     0.39601
      H   28    0.08627      0.00000     0.41274    0.00099     0.41373
      H   29    0.10919      0.00000     0.38966    0.00115     0.39081
      H   30    0.12671      0.00000     0.37184    0.00145     0.37329
 =======================================================================
   * Total *   -0.00000     14.99396    38.84367    0.16237    54.00000

 Normal termination of Gaussian 16 at Thu Dec 10 17:33:13 2020.
