 Gaussian 16, Revision A.03,

 -----------------------------------------------------------
 # opt freq B3LYP/6-31G(d) empiricaldispersion=gd3bj scf=xqc
 -----------------------------------------------------------

 -------------------------------
 CID_112731746_JID_7290_neutraal
 -------------------------------
 Symbolic Z-matrix:
 Charge =  0 Multiplicity = 1

 SCF Done:  E(RB3LYP) =  -852.850323056     A.U. after   16 cycles
 SCF Done:  E(RB3LYP) =  -852.879780075     A.U. after   13 cycles
 SCF Done:  E(RB3LYP) =  -852.881415102     A.U. after   13 cycles
 SCF Done:  E(RB3LYP) =  -852.881792465     A.U. after   13 cycles
 SCF Done:  E(RB3LYP) =  -852.881867164     A.U. after   12 cycles
 SCF Done:  E(RB3LYP) =  -852.881934845     A.U. after   11 cycles
 SCF Done:  E(RB3LYP) =  -852.881959799     A.U. after   11 cycles
 SCF Done:  E(RB3LYP) =  -852.881963119     A.U. after    9 cycles
 SCF Done:  E(RB3LYP) =  -852.881963974     A.U. after    9 cycles
 SCF Done:  E(RB3LYP) =  -852.881964273     A.U. after    8 cycles
 SCF Done:  E(RB3LYP) =  -852.881964306     A.U. after    7 cycles
 Optimization completed.
    -- Stationary point found.
 Normal termination of Gaussian 16 at Sun Dec 13 12:28:28 2020.

 --------------------------------------------------------------------
 #N Geom=AllCheck Guess=TCheck SCRF=Check GenChk RB3LYP/6-31G(d) Freq
 --------------------------------------------------------------------

 Structure from the checkpoint file:  "JID_7290.chk"
 -------------------------------
 CID_112731746_JID_7290_neutraal
 -------------------------------
 Charge =  0 Multiplicity = 1

 SCF Done:  E(RB3LYP) =  -852.881964306     A.U. after    1 cycles

  Exact polarizability: 162.880 -23.588 132.013 -17.712  -2.995 100.421
 Approx polarizability: 234.684 -49.658 220.263 -43.857  -2.539 151.801

                      1                      2                      3
                      A                      A                      A
 Frequencies --     28.1911                35.2664                47.5659
 Red. masses --      4.9560                 6.9457                 6.0666
 Frc consts  --      0.0023                 0.0051                 0.0081
 IR Inten    --      0.5317                 0.2382                 0.5359

                      4                      5                      6
                      A                      A                      A
 Frequencies --     84.8546               122.9005               138.0896
 Red. masses --     10.8319                 5.4849                 7.9370
 Frc consts  --      0.0460                 0.0488                 0.0892
 IR Inten    --      1.7903                 1.5786                 5.9876

                      7                      8                      9
                      A                      A                      A
 Frequencies --    158.2174               178.9889               230.5883
 Red. masses --      5.4412                 6.8608                 6.1023
 Frc consts  --      0.0803                 0.1295                 0.1912
 IR Inten    --      4.3888                 0.5877                 1.8595

                     10                     11                     12
                      A                      A                      A
 Frequencies --    265.5267               306.1962               332.8021
 Red. masses --      2.4682                 7.5446                 3.0739
 Frc consts  --      0.1025                 0.4168                 0.2006
 IR Inten    --     13.5282                 1.4004                 1.1998

                     13                     14                     15
                      A                      A                      A
 Frequencies --    368.0521               382.8381               414.7623
 Red. masses --      2.8282                 3.8754                 3.7939
 Frc consts  --      0.2257                 0.3347                 0.3845
 IR Inten    --      9.4218                11.8010                10.8800

                     16                     17                     18
                      A                      A                      A
 Frequencies --    432.8967               455.5441               470.5034
 Red. masses --      6.4567                 9.3277                11.0663
 Frc consts  --      0.7129                 1.1405                 1.4434
 IR Inten    --     10.9091                 2.1627                 0.8490

                     19                     20                     21
                      A                      A                      A
 Frequencies --    489.6900               506.9506               528.8777
 Red. masses --      2.1979                 3.4921                 9.4603
 Frc consts  --      0.3105                 0.5288                 1.5591
 IR Inten    --      2.7763                 5.2903                 1.5840

                     22                     23                     24
                      A                      A                      A
 Frequencies --    565.4564               637.0571               682.3728
 Red. masses --      5.5344                 2.1464                 2.7663
 Frc consts  --      1.0426                 0.5132                 0.7589
 IR Inten    --     21.6517                12.5418                18.0217

                     25                     26                     27
                      A                      A                      A
 Frequencies --    689.5727               694.2663               752.8327
 Red. masses --      1.6155                 5.3916                 8.5303
 Frc consts  --      0.4526                 1.5312                 2.8485
 IR Inten    --     29.1061                14.4351                38.8760

                     28                     29                     30
                      A                      A                      A
 Frequencies --    768.0806               784.4509               833.8962
 Red. masses --      7.7844                 8.1378                 2.9917
 Frc consts  --      2.7058                 2.9504                 1.2257
 IR Inten    --     46.2851                 6.2201                15.3494

                     31                     32                     33
                      A                      A                      A
 Frequencies --    863.1483               890.7624               908.2261
 Red. masses --      3.5644                 2.7195                 1.8691
 Frc consts  --      1.5646                 1.2713                 0.9084
 IR Inten    --      2.5887                26.8471                10.8113

                     34                     35                     36
                      A                      A                      A
 Frequencies --    947.4357               959.6968              1000.3593
 Red. masses --      1.3983                 2.1210                 3.0309
 Frc consts  --      0.7395                 1.1510                 1.7870
 IR Inten    --     10.3192                41.9463                 8.5392

                     37                     38                     39
                      A                      A                      A
 Frequencies --   1082.3006              1099.2405              1117.8943
 Red. masses --      2.7187                 3.6612                 2.4431
 Frc consts  --      1.8763                 2.6065                 1.7988
 IR Inten    --     20.6289                16.6303                 4.0178

                     40                     41                     42
                      A                      A                      A
 Frequencies --   1140.0916              1149.6898              1156.1868
 Red. masses --      2.8122                 2.9129                 4.7118
 Frc consts  --      2.1537                 2.2685                 3.7110
 IR Inten    --     31.6430                 5.8376                47.3739

                     43                     44                     45
                      A                      A                      A
 Frequencies --   1165.8244              1189.4670              1249.2804
 Red. masses --      4.6178                 3.3062                 5.9479
 Frc consts  --      3.6978                 2.7560                 5.4694
 IR Inten    --    128.6122                 9.7768                 9.7854

                     46                     47                     48
                      A                      A                      A
 Frequencies --   1264.2516              1274.8451              1318.1720
 Red. masses --      1.1958                 1.2455                 1.2733
 Frc consts  --      1.1261                 1.1927                 1.3036
 IR Inten    --     32.9528                56.9364                27.1177

                     49                     50                     51
                      A                      A                      A
 Frequencies --   1323.7769              1341.7614              1376.9196
 Red. masses --      1.2042                 1.2258                 1.4806
 Frc consts  --      1.2433                 1.3003                 1.6539
 IR Inten    --      2.5432                 9.2385                87.2896

                     52                     53                     54
                      A                      A                      A
 Frequencies --   1380.6689              1394.4835              1409.8800
 Red. masses --      1.7782                 2.2032                 1.2759
 Frc consts  --      1.9972                 2.5243                 1.4942
 IR Inten    --     53.1720                61.8023                32.1462

                     55                     56                     57
                      A                      A                      A
 Frequencies --   1426.8593              1429.1648              1438.3366
 Red. masses --      1.6612                 1.5975                 1.3961
 Frc consts  --      1.9927                 1.9225                 1.7017
 IR Inten    --      3.5484                38.9944                13.3577

                     58                     59                     60
                      A                      A                      A
 Frequencies --   1449.2196              1477.7083              1502.9595
 Red. masses --      1.4987                 3.4565                 1.1194
 Frc consts  --      1.8546                 4.4470                 1.4898
 IR Inten    --      0.2552               169.7752                20.1376

                     61                     62                     63
                      A                      A                      A
 Frequencies --   1509.5923              1515.6854              1522.3464
 Red. masses --      1.0896                 1.1042                 1.1058
 Frc consts  --      1.4630                 1.4946                 1.5099
 IR Inten    --      2.7926                 5.3053                 3.0126

                     64                     65                     66
                      A                      A                      A
 Frequencies --   1684.8726              1818.4809              1836.0113
 Red. masses --      5.8832                 9.5664                10.6645
 Frc consts  --      9.8401                18.6386                21.1808
 IR Inten    --    202.1227               576.9893               463.3644

                     67                     68                     69
                      A                      A                      A
 Frequencies --   2356.6911              2967.7178              2998.1485
 Red. masses --     12.6677                 1.0818                 1.0698
 Frc consts  --     41.4528                 5.6139                 5.6656
 IR Inten    --     39.8934                29.9705                45.6781

                     70                     71                     72
                      A                      A                      A
 Frequencies --   3008.7463              3018.6693              3090.4711
 Red. masses --      1.0714                 1.0675                 1.0678
 Frc consts  --      5.7146                 5.7315                 6.0091
 IR Inten    --     21.0733                76.8016                18.0081

                     73                     74                     75
                      A                      A                      A
 Frequencies --   3110.6652              3122.5550              3125.5364
 Red. masses --      1.0946                 1.0962                 1.0963
 Frc consts  --      6.2403                 6.2972                 6.3100
 IR Inten    --     35.6085                31.8381                26.3340

                     76                     77                     78
                      A                      A                      A
 Frequencies --   3173.8902              3229.9405              3602.7298
 Red. masses --      1.0986                 1.0932                 1.0773
 Frc consts  --      6.5207                 6.7198                 8.2387
 IR Inten    --      2.5959                 0.7294                74.5129

 - Thermochemistry -
 -------------------
 Temperature   298.150 Kelvin.  Pressure   1.00000 Atm.
 Atom     1 has atomic number  6 and mass  12.00000

 Molecular mass:   237.07496 amu.
 Principal axes and moments of inertia in atomic units:
                           1         2         3
     Eigenvalues --  2099.806296784.636217599.51895
           X            0.99996   0.00747   0.00498
           Y           -0.00745   0.99997  -0.00337
           Z           -0.00501   0.00333   0.99998
 This molecule is an asymmetric top.
 Rotational symmetry number  1.
 Warning -- assumption of classical behavior for rotation
           may cause significant error
 Rotational temperatures (Kelvin)      0.04125     0.01277     0.01140
 Rotational constants (GHZ):           0.85948     0.26600     0.23748
 Zero-point vibrational energy     573063.0 (Joules/Mol)
                                  136.96534 (Kcal/Mol)
 Warning -- explicit consideration of  22 degrees of freedom as
           vibrations may cause significant error
 Vibrational temperatures:     40.56    50.74    68.44   122.09   176.83
          (Kelvin)            198.68   227.64   257.53   331.77   382.03
                              440.55   478.83   529.54   550.82   596.75
                              622.84   655.43   676.95   704.55   729.39
                              760.94   813.57   916.58   981.78   992.14
                              998.89  1083.16  1105.10  1128.65  1199.79
                             1241.88  1281.61  1306.73  1363.15  1380.79
                             1439.29  1557.19  1581.56  1608.40  1640.34
                             1654.15  1663.49  1677.36  1711.38  1797.44
                             1818.98  1834.22  1896.56  1904.62  1930.50
                             1981.08  1986.47  2006.35  2028.50  2052.93
                             2056.25  2069.45  2085.10  2126.09  2162.42
                             2171.97  2180.73  2190.32  2424.16  2616.39
                             2641.61  3390.75  4269.88  4313.67  4328.91
                             4343.19  4446.50  4475.55  4492.66  4496.95
                             4566.52  4647.16  5183.52

 Zero-point correction=                           0.218268 (Hartree/Particle)
 Thermal correction to Energy=                    0.232836
 Thermal correction to Enthalpy=                  0.233780
 Thermal correction to Gibbs Free Energy=         0.174847
 Sum of electronic and zero-point Energies=           -852.663696
 Sum of electronic and thermal Energies=              -852.649128
 Sum of electronic and thermal Enthalpies=            -852.648184
 Sum of electronic and thermal Free Energies=         -852.707117

                     E (Thermal)             CV                S
                      KCal/Mol        Cal/Mol-Kelvin    Cal/Mol-Kelvin
 Total                  146.107             54.810            124.036
 Electronic               0.000              0.000              0.000
 Translational            0.889              2.981             42.291
 Rotational               0.889              2.981             33.048
 Vibrational            144.329             48.849             48.697
 Vibration     1          0.593              1.984              5.953
 Vibration     2          0.594              1.982              5.509
 Vibration     3          0.595              1.979              4.916
 Vibration     4          0.601              1.960              3.775
 Vibration     5          0.610              1.930              3.054
 Vibration     6          0.614              1.915              2.830
 Vibration     7          0.621              1.893              2.571
 Vibration     8          0.629              1.868              2.339
 Vibration     9          0.652              1.794              1.874
 Vibration    10          0.671              1.736              1.625
 Vibration    11          0.697              1.662              1.383
 Vibration    12          0.715              1.610              1.246
 Vibration    13          0.741              1.538              1.088
 Vibration    14          0.752              1.507              1.028
 Vibration    15          0.778              1.438              0.910
 Vibration    16          0.794              1.399              0.849
 Vibration    17          0.814              1.349              0.779
 Vibration    18          0.828              1.315              0.736
 Vibration    19          0.846              1.273              0.684
 Vibration    20          0.862              1.235              0.641
 Vibration    21          0.884              1.186              0.590
 Vibration    22          0.921              1.106              0.513

                           ! Non-Optimized Parameters !
 Normal termination of Gaussian 16 at Sun Dec 13 12:38:10 2020.

 ----------------------------------------------------------------------
 # B3LYP/6-311++G(d,p) empiricaldispersion=gd3bj scf=xqc pop=npa geom=c
 heck
 ----------------------------------------------------------------------

 ---------------------------------------
 CID_112731746_JID_7290_Energie_neutraal
 ---------------------------------------
 Structure from the checkpoint file:  "JID_7290.chk"
 Charge =  0 Multiplicity = 1

 SCF Done:  E(RB3LYP) =  -853.128163235     A.U. after   16 cycles
 Normal termination of Gaussian 16 at Sun Dec 13 12:42:50 2020.

 ----------------------------------------------------------------------
 # B3LYP/6-311++G(d,p) empiricaldispersion=gd3bj scf=xqc pop=npa geom=c
 heck
 ----------------------------------------------------------------------

 -------------------------------------
 CID_112731746_JID_7290_Energie_kation
 -------------------------------------
 Structure from the checkpoint file:  "JID_7290.chk"
 Charge =  1 Multiplicity = 2

 SCF Done:  E(UB3LYP) =  -852.798611395     A.U. after   26 cycles
 Normal termination of Gaussian 16 at Sun Dec 13 12:53:30 2020.
 Gaussian 16:  ES64L-G16RevA.03 25-Dec-2016

 ----------------------------------------------------------------------
 # B3LYP/6-311++G(d,p) empiricaldispersion=gd3bj scf=xqc pop=npa geom=c
 heck
 ----------------------------------------------------------------------

 ------------------------------------
 CID_112731746_JID_7290_Energie_anion
 ------------------------------------
 Structure from the checkpoint file:  "JID_7290.chk"
 Charge = -1 Multiplicity = 2

                         Standard orientation:
 ---------------------------------------------------------------------
 Center     Atomic      Atomic             Coordinates (Angstroms)
 Number     Number       Type             X           Y           Z
 ---------------------------------------------------------------------
      1          6           0        4.043486    0.335454    1.154800
      2          6           0        2.613913    0.366000    1.677240
      3          8           0        1.731916   -0.237613    0.731992
      4          6           0        1.812465    0.399095   -0.534391
      5          6           0        3.252906    0.374434   -1.048110
      6          8           0        4.120248    0.988936   -0.109315
      7          6           0        0.856346   -0.339355   -1.466505
      8          7           0       -0.489432   -0.429813   -0.891288
      9          6           0       -1.265723    0.681825   -0.781577
     10          6           0       -2.464829    0.704200   -0.132658
     11          6           0       -2.961014   -0.518312    0.514141
     12          8           0       -4.000618   -0.635325    1.131658
     13          7           0       -2.086169   -1.605301    0.346054
     14          6           0       -0.870072   -1.657214   -0.309272
     15          8           0       -0.199879   -2.665746   -0.396325
     16          6           0       -3.236464    1.897220   -0.071393
     17          7           0       -3.847915    2.885923   -0.033641
     18          1           0        4.721673    0.871306    1.824899
     19          1           0        4.381556   -0.708679    1.061262
     20          1           0        2.306859    1.407107    1.862779
     21          1           0        2.512596   -0.206708    2.603108
     22          1           0        1.503360    1.454612   -0.429964
     23          1           0        3.351340    0.936241   -1.982138
     24          1           0        3.554413   -0.671367   -1.224889
     25          1           0        0.796657    0.168418   -2.434201
     26          1           0        1.191916   -1.364881   -1.619188
     27          1           0       -0.873316    1.574272   -1.256520
     28          1           0       -2.381853   -2.478089    0.769257
 ---------------------------------------------------------------------

 SCF Done:  E(UB3LYP) =  -853.154386779     A.U. after   25 cycles

 The electronic state is 2-A.
 Alpha  occ. eigenvalues --  -19.05745 -19.04456 -18.97553 -18.95166 -14.23948
 Alpha  occ. eigenvalues --  -14.22530 -14.15247 -10.18599 -10.14837 -10.14242
 Alpha  occ. eigenvalues --  -10.14206 -10.13952 -10.13874 -10.11139 -10.06049
 Alpha  occ. eigenvalues --  -10.05841 -10.04285  -0.98555  -0.95058  -0.94446
 Alpha  occ. eigenvalues --   -0.90724  -0.84729  -0.79749  -0.75365  -0.71699
 Alpha  occ. eigenvalues --   -0.66622  -0.63857  -0.60707  -0.56383  -0.55251
 Alpha  occ. eigenvalues --   -0.51604  -0.50213  -0.45784  -0.43241  -0.42645
 Alpha  occ. eigenvalues --   -0.41455  -0.40755  -0.39271  -0.37729  -0.36067
 Alpha  occ. eigenvalues --   -0.35385  -0.34437  -0.32625  -0.32419  -0.31187
 Alpha  occ. eigenvalues --   -0.29895  -0.29780  -0.29262  -0.28013  -0.27332
 Alpha  occ. eigenvalues --   -0.26887  -0.23614  -0.22985  -0.21914  -0.21247
 Alpha  occ. eigenvalues --   -0.19623  -0.18681  -0.17218  -0.16643  -0.15819
 Alpha  occ. eigenvalues --   -0.13048  -0.10401   0.03446
 Alpha virt. eigenvalues --    0.06175   0.07144   0.08016   0.09200   0.10097
 Alpha virt. eigenvalues --    0.10416   0.10768   0.11042   0.12505   0.12733
 Alpha virt. eigenvalues --    0.13135   0.13352   0.14384   0.14708   0.15575

  Beta  occ. eigenvalues --  -19.05743 -19.04453 -18.97504 -18.95016 -14.23871
  Beta  occ. eigenvalues --  -14.22426 -14.15133 -10.18554 -10.14836 -10.14241
  Beta  occ. eigenvalues --  -10.14201 -10.13868 -10.13848 -10.11131 -10.05828
  Beta  occ. eigenvalues --  -10.05261 -10.04198  -0.98548  -0.94944  -0.94392
  Beta  occ. eigenvalues --   -0.90465  -0.84357  -0.79518  -0.75179  -0.71632
  Beta  occ. eigenvalues --   -0.66079  -0.63673  -0.60661  -0.56322  -0.54387
  Beta  occ. eigenvalues --   -0.51440  -0.50156  -0.45588  -0.43197  -0.42344
  Beta  occ. eigenvalues --   -0.41407  -0.40633  -0.39189  -0.37617  -0.35826
  Beta  occ. eigenvalues --   -0.35019  -0.34097  -0.32524  -0.32198  -0.30961
  Beta  occ. eigenvalues --   -0.29787  -0.29605  -0.29228  -0.27772  -0.27229
  Beta  occ. eigenvalues --   -0.26185  -0.23260  -0.22027  -0.21714  -0.21111
  Beta  occ. eigenvalues --   -0.18633  -0.18567  -0.17124  -0.16615  -0.15113
  Beta  occ. eigenvalues --   -0.12871  -0.08830
  Beta virt. eigenvalues --    0.06116   0.07122   0.07981   0.09189   0.09924
  Beta virt. eigenvalues --    0.10316   0.10698   0.10952   0.11185   0.12785
  Beta virt. eigenvalues --    0.13063   0.13272   0.13341   0.14425   0.14858

 Mulliken charges and spin densities:
               1          2
     1  C   -0.242540  -0.024824
     2  C   -0.074957   0.002648
     3  O   -0.025673   0.004072
     4  C    0.194567   0.030854
     5  C   -0.290477  -0.161929
     6  O   -0.111680   0.002486
     7  C   -0.850806  -0.104912
     8  N    0.162566  -0.008231
     9  C   -0.255301   0.604578
    10  C    1.506090   0.132757
    11  C    0.023523   0.056207
    12  O   -0.407284   0.054244
    13  N   -0.409259   0.039042
    14  C    0.279593   0.034628
    15  O   -0.372183   0.018038
    16  C   -1.460473  -0.020023
    17  N   -0.316979   0.060201
    18  H    0.162793   0.001515
    19  H    0.107113   0.013633
    20  H    0.136749   0.000398
    21  H    0.157833  -0.000492
    22  H    0.183214  -0.022291
    23  H    0.073707   0.090717
    24  H    0.138665   0.013857
    25  H   -0.011135   0.198942
    26  H    0.232559  -0.013070
    27  H    0.129707  -0.000445
    28  H    0.340067  -0.002601
 Sum of Mulliken charges =  -1.00000   1.00000

 Dipole moment (field-independent basis, Debye):
    X=             12.7667    Y=             -2.6275    Z=              0.2136  Tot=             13.0361
 Quadrupole moment (field-independent basis, Debye-Ang):
   XX=           -169.4913   YY=           -134.3145   ZZ=           -105.8825
   XY=             18.6642   XZ=             10.8217   YZ=              0.5899

 Summary of Natural Population Analysis:

                                       Natural Population
                Natural  -----------------------------------------------
    Atom  No    Charge         Core      Valence    Rydberg      Total
 -----------------------------------------------------------------------
      C    1   -0.02457      0.99959     2.01491    0.01007     3.02457
      C    2   -0.02370      0.99959     2.01400    0.01011     3.02370
      O    3   -0.29345      0.99988     3.28381    0.00976     4.29345
      C    4    0.04538      0.99956     1.94004    0.01502     2.95462
      C    5   -0.02080      0.99956     2.00971    0.01153     3.02080
      O    6   -0.29912      0.99989     3.28913    0.01010     4.29912
      C    7   -0.09273      0.99958     2.08007    0.01307     3.09273
      N    8   -0.22813      0.99962     2.71855    0.00995     3.72813
      C    9    0.21315      0.99954     1.77442    0.01289     2.78685
      C   10   -0.17086      0.99938     2.16144    0.01003     3.17086
      C   11    0.35190      0.99964     1.62561    0.02285     2.64810
      O   12   -0.30886      0.99987     3.30286    0.00613     4.30886
      N   13   -0.31169      0.99964     2.80444    0.00761     3.81169
      C   14    0.42329      0.99969     1.55388    0.02314     2.57671
      O   15   -0.33179      0.99987     3.32668    0.00524     4.33179
      C   16    0.16779      0.99965     1.81460    0.01796     2.83221
      N   17   -0.20284      0.99979     2.69200    0.01106     3.70284
      H   18    0.09010      0.00000     0.40882    0.00108     0.40990
      H   19    0.07997      0.00000     0.41865    0.00138     0.42003
      H   20    0.08238      0.00000     0.41634    0.00128     0.41762
      H   21    0.09339      0.00000     0.40559    0.00102     0.40661
      H   22    0.08596      0.00000     0.41254    0.00150     0.41404
      H   23    0.09394      0.00000     0.40455    0.00151     0.40606
      H   24    0.08030      0.00000     0.41799    0.00171     0.41970
      H   25    0.10082      0.00000     0.39784    0.00134     0.39918
      H   26    0.11653      0.00000     0.38207    0.00140     0.38347
      H   27    0.08568      0.00000     0.41314    0.00119     0.41432
      H   28    0.19796      0.00000     0.29960    0.00245     0.30204
 =======================================================================
   * Total *    0.00000     16.99436    44.78326    0.22238    62.00000

 Normal termination of Gaussian 16 at Sun Dec 13 13:03:14 2020.
