 Gaussian 16, Revision A.03,

 -----------------------------------------------------------
 # opt freq B3LYP/6-31G(d) empiricaldispersion=gd3bj scf=xqc
 -----------------------------------------------------------

 ------------------------------
 CID_80418914_JID_7840_neutraal
 ------------------------------
 Symbolic Z-matrix:
 Charge =  0 Multiplicity = 1

 SCF Done:  E(RB3LYP) =  -777.176967874     A.U. after   15 cycles
 SCF Done:  E(RB3LYP) =  -777.182365822     A.U. after   12 cycles
 SCF Done:  E(RB3LYP) =  -777.183039247     A.U. after   12 cycles
 SCF Done:  E(RB3LYP) =  -777.183137500     A.U. after   12 cycles
 SCF Done:  E(RB3LYP) =  -777.183193015     A.U. after   11 cycles
 SCF Done:  E(RB3LYP) =  -777.183237726     A.U. after   11 cycles
 SCF Done:  E(RB3LYP) =  -777.183359184     A.U. after   12 cycles
 SCF Done:  E(RB3LYP) =  -777.183428424     A.U. after   13 cycles
 SCF Done:  E(RB3LYP) =  -777.183669856     A.U. after   11 cycles
 SCF Done:  E(RB3LYP) =  -777.184651264     A.U. after   12 cycles
 SCF Done:  E(RB3LYP) =  -777.186970582     A.U. after   13 cycles
 SCF Done:  E(RB3LYP) =  -777.187757254     A.U. after   11 cycles
 SCF Done:  E(RB3LYP) =  -777.187761335     A.U. after    7 cycles
 SCF Done:  E(RB3LYP) =  -777.187762707     A.U. after    9 cycles
 SCF Done:  E(RB3LYP) =  -777.187762912     A.U. after    8 cycles
 SCF Done:  E(RB3LYP) =  -777.187762871     A.U. after    7 cycles
 Optimization completed.
    -- Stationary point found.
 Normal termination of Gaussian 16 at Fri Dec 11 13:41:30 2020.

 --------------------------------------------------------------------
 #N Geom=AllCheck Guess=TCheck SCRF=Check GenChk RB3LYP/6-31G(d) Freq
 --------------------------------------------------------------------

 Structure from the checkpoint file:  "JID_7840.chk"
 ------------------------------
 CID_80418914_JID_7840_neutraal
 ------------------------------
 Charge =  0 Multiplicity = 1

 SCF Done:  E(RB3LYP) =  -777.187762871     A.U. after    1 cycles

  Exact polarizability: 199.441  19.313 139.860  19.153 -11.618 104.787
 Approx polarizability: 279.037  40.958 247.562  40.219 -24.783 165.782

                      1                      2                      3
                      A                      A                      A
 Frequencies --     11.9004                58.2548                71.7351
 Red. masses --      5.0921                 4.9615                 3.3485
 Frc consts  --      0.0004                 0.0099                 0.0102
 IR Inten    --      1.4453                 0.1491                 2.6493

                      4                      5                      6
                      A                      A                      A
 Frequencies --    122.6568               124.6974               157.3228
 Red. masses --      1.3056                 3.3028                 3.1217
 Frc consts  --      0.0116                 0.0303                 0.0455
 IR Inten    --      0.0647                 4.6915                 0.8255

                      7                      8                      9
                      A                      A                      A
 Frequencies --    170.3935               193.3863               265.4278
 Red. masses --      3.9702                 3.9408                 2.2237
 Frc consts  --      0.0679                 0.0868                 0.0923
 IR Inten    --      0.9295                 0.4399                 6.8219

                     10                     11                     12
                      A                      A                      A
 Frequencies --    275.2118               307.1723               342.1221
 Red. masses --      4.5953                 2.7142                 2.4604
 Frc consts  --      0.2051                 0.1509                 0.1697
 IR Inten    --      1.2809                 1.6413                 4.7481

                     13                     14                     15
                      A                      A                      A
 Frequencies --    365.8500               386.9527               432.5543
 Red. masses --      2.5360                 3.4769                 4.7310
 Frc consts  --      0.2000                 0.3067                 0.5215
 IR Inten    --      2.3253                 6.3909                 0.1833

                     16                     17                     18
                      A                      A                      A
 Frequencies --    452.5045               474.2214               485.9276
 Red. masses --      4.8893                 2.9485                 5.3485
 Frc consts  --      0.5898                 0.3907                 0.7441
 IR Inten    --      3.0179                 3.0073                 7.2052

                     19                     20                     21
                      A                      A                      A
 Frequencies --    526.9743               553.0173               601.6352
 Red. masses --      4.1220                 2.8411                 3.1129
 Frc consts  --      0.6744                 0.5119                 0.6639
 IR Inten    --      4.9569                 2.2559                 0.8516

                     22                     23                     24
                      A                      A                      A
 Frequencies --    622.3310               642.3138               683.8729
 Red. masses --      3.0899                 4.0636                 5.3464
 Frc consts  --      0.7051                 0.9878                 1.4732
 IR Inten    --      1.2987                 1.2167                 0.2877

                     25                     26                     27
                      A                      A                      A
 Frequencies --    739.9218               767.9014               776.0586
 Red. masses --      6.2169                 6.0442                 6.8438
 Frc consts  --      2.0054                 2.0999                 2.4285
 IR Inten    --      1.4330                 6.3120                 9.5671

                     28                     29                     30
                      A                      A                      A
 Frequencies --    819.5967               826.8924               836.6913
 Red. masses --      2.4593                 1.4648                 4.2698
 Frc consts  --      0.9734                 0.5901                 1.7611
 IR Inten    --     72.6059                24.7484                19.5075

                     31                     32                     33
                      A                      A                      A
 Frequencies --    855.9019               882.9756               903.3902
 Red. masses --      2.2151                 2.1513                 1.9408
 Frc consts  --      0.9561                 0.9882                 0.9332
 IR Inten    --     30.4361                15.5260                12.6725

                     34                     35                     36
                      A                      A                      A
 Frequencies --    960.0577               967.6792               994.1188
 Red. masses --      2.2005                 2.5418                 1.2864
 Frc consts  --      1.1950                 1.4024                 0.7490
 IR Inten    --      1.5463                 1.6950                 0.1915

                     37                     38                     39
                      A                      A                      A
 Frequencies --    995.9673              1020.2474              1040.6724
 Red. masses --      2.2776                 2.4545                 2.0912
 Frc consts  --      1.3311                 1.5053                 1.3343
 IR Inten    --      1.0260                28.2007                10.8762

                     40                     41                     42
                      A                      A                      A
 Frequencies --   1055.3320              1074.5358              1093.7950
 Red. masses --      2.1078                 1.5260                 5.7934
 Frc consts  --      1.3831                 1.0381                 4.0837
 IR Inten    --      3.0960                 3.8658                15.9932

                     43                     44                     45
                      A                      A                      A
 Frequencies --   1109.6547              1120.4722              1144.4886
 Red. masses --      2.5071                 3.0051                 5.2698
 Frc consts  --      1.8188                 2.2228                 4.0670
 IR Inten    --      8.6784                 7.8715               136.5571

                     46                     47                     48
                      A                      A                      A
 Frequencies --   1160.4004              1165.1916              1184.7074
 Red. masses --      3.2760                 1.3015                 2.4289
 Frc consts  --      2.5990                 1.0411                 2.0085
 IR Inten    --      3.8959                 3.2152                 5.4454

                     49                     50                     51
                      A                      A                      A
 Frequencies --   1233.6653              1255.9477              1278.9972
 Red. masses --      1.5201                 1.3703                 1.5662
 Frc consts  --      1.3631                 1.2735                 1.5095
 IR Inten    --     10.3864                12.4108                 3.3546

                     52                     53                     54
                      A                      A                      A
 Frequencies --   1287.9925              1314.8221              1334.3500
 Red. masses --      1.7037                 3.2838                 1.3923
 Frc consts  --      1.6653                 3.3448                 1.4606
 IR Inten    --     10.9701                 1.9429                 2.0791

                     55                     56                     57
                      A                      A                      A
 Frequencies --   1347.7459              1354.1734              1370.9313
 Red. masses --      1.5358                 2.8115                 1.4779
 Frc consts  --      1.6437                 3.0377                 1.6365
 IR Inten    --     13.0760                63.1145                 1.1982

                     58                     59                     60
                      A                      A                      A
 Frequencies --   1383.5739              1407.2119              1414.7779
 Red. masses --      1.3707                 1.3027                 1.5320
 Frc consts  --      1.5459                 1.5199                 1.8067
 IR Inten    --     11.3973                12.2271                 5.3816

                     61                     62                     63
                      A                      A                      A
 Frequencies --   1416.4689              1433.1860              1442.8804
 Red. masses --      2.2567                 1.5671                 1.3805
 Frc consts  --      2.6678                 1.8965                 1.6934
 IR Inten    --      6.1408                 3.5628                 1.5270

                     64                     65                     66
                      A                      A                      A
 Frequencies --   1454.8684              1495.9468              1498.2599
 Red. masses --      2.5063                 1.2012                 1.2303
 Frc consts  --      3.1256                 1.5837                 1.6272
 IR Inten    --     23.0337                15.7857                15.2447

                     67                     68                     69
                      A                      A                      A
 Frequencies --   1502.6638              1509.9174              1510.7499
 Red. masses --      1.0932                 1.0440                 1.0874
 Frc consts  --      1.4543                 1.4023                 1.4623
 IR Inten    --      1.7717                 8.0931                 2.9220

                     70                     71                     72
                      A                      A                      A
 Frequencies --   1523.2140              1540.8529              1546.4578
 Red. masses --      1.1073                 3.6518                 2.6335
 Frc consts  --      1.5136                 5.1084                 3.7108
 IR Inten    --      3.8366                28.0432                26.3791

                     73                     74                     75
                      A                      A                      A
 Frequencies --   1550.9371              1595.6019              1677.5026
 Red. masses --      1.5849                 5.5251                 7.2237
 Frc consts  --      2.2461                 8.2878                11.9768
 IR Inten    --     33.3557                25.7331                20.9073

                     76                     77                     78
                      A                      A                      A
 Frequencies --   2974.7991              2983.4968              3032.2877
 Red. masses --      1.0702                 1.0695                 1.0819
 Frc consts  --      5.5797                 5.6088                 5.8610
 IR Inten    --     33.3739                75.1178                24.5473

                     79                     80                     81
                      A                      A                      A
 Frequencies --   3039.8110              3055.6768              3075.2936
 Red. masses --      1.0643                 1.0386                 1.0626
 Frc consts  --      5.7944                 5.7136                 5.9208
 IR Inten    --     74.9388                13.0553                11.3065

                     82                     83                     84
                      A                      A                      A
 Frequencies --   3091.2201              3093.9846              3100.0092
 Red. masses --      1.0944                 1.1012                 1.0955
 Frc consts  --      6.1617                 6.2107                 6.2025
 IR Inten    --     46.2337                34.9877                64.4901

                     85                     86                     87
                      A                      A                      A
 Frequencies --   3109.6960              3128.0047              3166.0420
 Red. masses --      1.1010                 1.1019                 1.1005
 Frc consts  --      6.2728                 6.3521                 6.4994
 IR Inten    --     10.7771                 3.9003                 4.8970

                     88                     89                     90
                      A                      A                      A
 Frequencies --   3217.4333              3240.2590              3456.9935
 Red. masses --      1.0894                 1.0961                 1.0746
 Frc consts  --      6.6447                 6.7806                 7.5668
 IR Inten    --      1.9711                 2.4044                33.7571

 - Thermochemistry -
 -------------------
 Temperature   298.150 Kelvin.  Pressure   1.00000 Atm.
 Atom     1 has atomic number  6 and mass  12.00000

 Molecular mass:   233.12766 amu.
 Principal axes and moments of inertia in atomic units:
                           1         2         3
     Eigenvalues --  1836.790226590.289927283.17600
           X            0.99986   0.01656   0.00121
           Y           -0.01651   0.99937  -0.03140
           Z           -0.00173   0.03138   0.99951
 This molecule is an asymmetric top.
 Rotational symmetry number  1.
 Warning -- assumption of classical behavior for rotation
           may cause significant error
 Rotational temperatures (Kelvin)      0.04716     0.01314     0.01189
 Rotational constants (GHZ):           0.98255     0.27385     0.24780
 Zero-point vibrational energy     701453.0 (Joules/Mol)
                                  167.65130 (Kcal/Mol)
 Warning -- explicit consideration of  21 degrees of freedom as
           vibrations may cause significant error
 Vibrational temperatures:     17.12    83.82   103.21   176.48   179.41
          (Kelvin)            226.35   245.16   278.24   381.89   395.97
                              441.95   492.24   526.38   556.74   622.35
                              651.05   682.30   699.14   758.20   795.67
                              865.62   895.40   924.15   983.94  1064.58
                             1104.84  1116.58  1179.22  1189.71  1203.81
                             1231.45  1270.40  1299.78  1381.31  1392.27
                             1430.32  1432.97  1467.91  1497.30  1518.39
                             1546.02  1573.73  1596.55  1612.11  1646.66
                             1669.56  1676.45  1704.53  1774.97  1807.03
                             1840.19  1853.13  1891.74  1919.83  1939.11
                             1948.35  1972.46  1990.65  2024.66  2035.55
                             2037.98  2062.03  2075.98  2093.23  2152.33
                             2155.66  2162.00  2172.43  2173.63  2191.57
                             2216.94  2225.01  2231.45  2295.72  2413.55
                             4280.07  4292.59  4362.79  4373.61  4396.44
                             4424.66  4447.58  4451.55  4460.22  4474.16
                             4500.50  4555.23  4629.17  4662.01  4973.84

 Zero-point correction=                           0.267169 (Hartree/Particle)
 Thermal correction to Energy=                    0.281344
 Thermal correction to Enthalpy=                  0.282288
 Thermal correction to Gibbs Free Energy=         0.224515
 Sum of electronic and zero-point Energies=           -776.920594
 Sum of electronic and thermal Energies=              -776.906419
 Sum of electronic and thermal Enthalpies=            -776.905475
 Sum of electronic and thermal Free Energies=         -776.963248

                     E (Thermal)             CV                S
                      KCal/Mol        Cal/Mol-Kelvin    Cal/Mol-Kelvin
 Total                  176.546             55.531            121.594
 Electronic               0.000              0.000              0.000
 Translational            0.889              2.981             42.241
 Rotational               0.889              2.981             32.844
 Vibrational            174.768             49.570             46.509
 Vibration     1          0.593              1.987              7.665
 Vibration     2          0.596              1.974              4.515
 Vibration     3          0.598              1.967              4.105
 Vibration     4          0.610              1.930              3.058
 Vibration     5          0.610              1.928              3.026
 Vibration     6          0.621              1.894              2.582
 Vibration     7          0.625              1.879              2.431
 Vibration     8          0.635              1.849              2.195
 Vibration     9          0.671              1.736              1.626
 Vibration    10          0.677              1.719              1.563
 Vibration    11          0.697              1.660              1.378
 Vibration    12          0.721              1.591              1.202
 Vibration    13          0.739              1.543              1.097
 Vibration    14          0.755              1.498              1.012
 Vibration    15          0.793              1.399              0.850
 Vibration    16          0.811              1.355              0.788
 Vibration    17          0.831              1.307              0.726
 Vibration    18          0.842              1.281              0.694
 Vibration    19          0.882              1.190              0.594
 Vibration    20          0.908              1.133              0.538
 Vibration    21          0.960              1.028              0.447

 Optimization completed.
    -- Stationary point found.
 Normal termination of Gaussian 16 at Fri Dec 11 13:52:17 2020.

 ----------------------------------------------------------------------
 # B3LYP/6-311++G(d,p) empiricaldispersion=gd3bj scf=xqc pop=npa geom=c
 heck
 ----------------------------------------------------------------------

 --------------------------------------
 CID_80418914_JID_7840_Energie_neutraal
 --------------------------------------
 Structure from the checkpoint file:  "JID_7840.chk"
 Charge =  0 Multiplicity = 1

 SCF Done:  E(RB3LYP) =  -777.395447735     A.U. after   15 cycles
 Normal termination of Gaussian 16 at Fri Dec 11 13:56:39 2020.

 ----------------------------------------------------------------------
 # B3LYP/6-311++G(d,p) empiricaldispersion=gd3bj scf=xqc pop=npa geom=c
 heck
 ----------------------------------------------------------------------

 ------------------------------------
 CID_80418914_JID_7840_Energie_kation
 ------------------------------------
 Structure from the checkpoint file:  "JID_7840.chk"
 Charge =  1 Multiplicity = 2

 SCF Done:  E(UB3LYP) =  -777.112820857     A.U. after   26 cycles
 Normal termination of Gaussian 16 at Fri Dec 11 14:06:48 2020.
 Gaussian 16:  ES64L-G16RevA.03 25-Dec-2016

 ----------------------------------------------------------------------
 # B3LYP/6-311++G(d,p) empiricaldispersion=gd3bj scf=xqc pop=npa geom=c
 heck
 ----------------------------------------------------------------------

 -----------------------------------
 CID_80418914_JID_7840_Energie_anion
 -----------------------------------
 Structure from the checkpoint file:  "JID_7840.chk"
 Charge = -1 Multiplicity = 2

                         Standard orientation:
 ---------------------------------------------------------------------
 Center     Atomic      Atomic             Coordinates (Angstroms)
 Number     Number       Type             X           Y           Z
 ---------------------------------------------------------------------
      1          6           0        4.027105    2.178908   -0.097031
      2          6           0        3.247432    0.902028    0.046037
      3          7           0        2.060864    0.878158   -0.513126
      4          7           0        1.385424   -0.287762   -0.363176
      5          6           0        1.817102   -1.427436    0.317387
      6          7           0        0.877148   -2.358094    0.264918
      7          7           0       -0.163605   -1.828555   -0.451958
      8          6           0        0.135101   -0.593095   -0.830861
      9          6           0       -0.739370    0.356038   -1.580760
     10          6           0       -2.064019    0.653359   -0.855421
     11          6           0       -1.841612    1.198004    0.563971
     12          8           0       -3.079271    1.422871    1.224770
     13          6           0       -3.837234    0.220178    1.319327
     14          6           0       -4.130508   -0.339502   -0.073139
     15          7           0       -2.919304   -0.536735   -0.871909
     16          6           0        3.102924   -1.371957    0.905565
     17          6           0        3.808769   -0.211448    0.766949
     18          1           0        3.451303    2.908418   -0.669328
     19          1           0        4.260920    2.602618    0.886739
     20          1           0        4.979314    1.996331   -0.608888
     21          1           0       -0.180070    1.282139   -1.741733
     22          1           0       -0.982749   -0.071550   -2.559428
     23          1           0       -2.587240    1.434445   -1.424794
     24          1           0       -1.232103    0.484964    1.145651
     25          1           0       -1.321762    2.162217    0.543980
     26          1           0       -4.756670    0.479686    1.854354
     27          1           0       -3.282772   -0.525559    1.915894
     28          1           0       -4.780162    0.368810   -0.604998
     29          1           0       -4.666475   -1.293005   -0.001517
     30          1           0       -2.385044   -1.331788   -0.516366
     31          1           0        3.480547   -2.235678    1.441001
     32          1           0        4.799307   -0.104564    1.195893
 ---------------------------------------------------------------------

 SCF Done:  E(UB3LYP) =  -777.417153823     A.U. after   22 cycles

 The electronic state is 2-A.
 Alpha  occ. eigenvalues --  -19.02680 -14.24708 -14.18750 -14.17257 -14.17075
 Alpha  occ. eigenvalues --  -14.16126 -10.12039 -10.10585 -10.09773 -10.09415
 Alpha  occ. eigenvalues --  -10.08587 -10.07662 -10.06341 -10.05789 -10.04485
 Alpha  occ. eigenvalues --  -10.01568 -10.00726  -0.94199  -0.92689  -0.83725
 Alpha  occ. eigenvalues --   -0.80218  -0.71174  -0.69164  -0.67157  -0.63604
 Alpha  occ. eigenvalues --   -0.60384  -0.59296  -0.56942  -0.52891  -0.49500
 Alpha  occ. eigenvalues --   -0.48526  -0.48134  -0.44645  -0.39697  -0.39071
 Alpha  occ. eigenvalues --   -0.38221  -0.36322  -0.35949  -0.35605  -0.34756
 Alpha  occ. eigenvalues --   -0.33402  -0.32264  -0.30030  -0.29809  -0.28808
 Alpha  occ. eigenvalues --   -0.28052  -0.27963  -0.27084  -0.25617  -0.24574
 Alpha  occ. eigenvalues --   -0.24151  -0.23845  -0.22317  -0.22128  -0.18175
 Alpha  occ. eigenvalues --   -0.17527  -0.17324  -0.14124  -0.12544  -0.11308
 Alpha  occ. eigenvalues --   -0.10629  -0.08447   0.04322
 Alpha virt. eigenvalues --    0.07379   0.08544   0.08996   0.09981   0.10527
 Alpha virt. eigenvalues --    0.10618   0.11301   0.12121   0.12459   0.12630
 Alpha virt. eigenvalues --    0.12845   0.13854   0.14449   0.14678   0.15295

  Beta  occ. eigenvalues --  -19.02680 -14.24513 -14.18747 -14.17089 -14.16436
  Beta  occ. eigenvalues --  -14.15950 -10.12038 -10.10584 -10.09773 -10.09419
  Beta  occ. eigenvalues --  -10.08659 -10.07761 -10.06338 -10.05685 -10.04493
  Beta  occ. eigenvalues --  -10.01411 -10.00154  -0.94198  -0.92294  -0.83123
  Beta  occ. eigenvalues --   -0.80213  -0.70871  -0.68907  -0.66839  -0.63071
  Beta  occ. eigenvalues --   -0.60199  -0.59014  -0.56927  -0.52856  -0.48953
  Beta  occ. eigenvalues --   -0.48452  -0.47718  -0.44397  -0.39593  -0.38958
  Beta  occ. eigenvalues --   -0.38156  -0.36296  -0.35836  -0.35568  -0.34509
  Beta  occ. eigenvalues --   -0.32666  -0.31991  -0.29875  -0.29635  -0.28788
  Beta  occ. eigenvalues --   -0.27929  -0.27841  -0.27057  -0.25440  -0.24516
  Beta  occ. eigenvalues --   -0.23925  -0.23646  -0.22268  -0.20622  -0.18013
  Beta  occ. eigenvalues --   -0.17205  -0.15573  -0.13552  -0.11590  -0.10653
  Beta  occ. eigenvalues --   -0.10304  -0.06755
  Beta virt. eigenvalues --    0.07374   0.08515   0.08982   0.09954   0.10509
  Beta virt. eigenvalues --    0.10595   0.11189   0.11823   0.12221   0.12458
  Beta virt. eigenvalues --    0.12623   0.12841   0.13852   0.14518   0.14805

 Mulliken charges and spin densities:
               1          2
     1  C   -0.644591   0.003448
     2  C   -0.206895   0.051447
     3  N   -0.136864   0.358988
     4  N    0.223945   0.013469
     5  C    0.067497  -0.059814
     6  N   -0.063175   0.073905
     7  N   -0.146269   0.074627
     8  C   -0.147814  -0.069125
     9  C   -0.654586  -0.003167
    10  C    0.192191   0.012354
    11  C   -0.782660  -0.012599
    12  O   -0.120033  -0.000110
    13  C   -0.206428  -0.001303
    14  C   -0.246922  -0.001560
    15  N   -0.122185  -0.003194
    16  C   -0.283882   0.450754
    17  C   -0.106979   0.137765
    18  H    0.125814  -0.000073
    19  H    0.128548   0.001269
    20  H    0.123146   0.001438
    21  H    0.177994  -0.004510
    22  H    0.190177   0.000476
    23  H    0.178375   0.002483
    24  H    0.213438   0.006943
    25  H    0.156812   0.010515
    26  H    0.145390   0.000051
    27  H    0.110891   0.000094
    28  H    0.131807  -0.000397
    29  H    0.136762   0.000150
    30  H    0.306079   0.001888
    31  H    0.135551  -0.035523
    32  H    0.124864  -0.010689
 Sum of Mulliken charges =  -1.00000   1.00000

 Dipole moment (field-independent basis, Debye):
    X=             -4.4980    Y=              3.8712    Z=             -0.0317  Tot=              5.9346
 Quadrupole moment (field-independent basis, Debye-Ang):
   XX=           -134.7522   YY=           -129.9588   ZZ=           -113.0985
   XY=              5.5689   XZ=             -2.6669   YZ=             -2.6988

 Summary of Natural Population Analysis:

                                       Natural Population
                Natural  -----------------------------------------------
    Atom  No    Charge         Core      Valence    Rydberg      Total
 -----------------------------------------------------------------------
      C    1   -0.29283      0.99964     2.28886    0.00432     3.29283
      C    2    0.10750      0.99961     1.87957    0.01331     2.89250
      N    3   -0.07688      0.99964     2.56323    0.01400     3.57688
      N    4   -0.08409      0.99954     2.57189    0.01265     3.58409
      C    5    0.14163      0.99958     1.83992    0.01886     2.85837
      N    6   -0.15412      0.99969     2.63954    0.01489     3.65412
      N    7   -0.15864      0.99967     2.64571    0.01326     3.65864
      C    8    0.14627      0.99961     1.83572    0.01840     2.85373
      C    9   -0.21478      0.99958     2.20672    0.00849     3.21478
      C   10   -0.01489      0.99960     2.00442    0.01087     3.01489
      C   11   -0.02104      0.99956     2.01035    0.01113     3.02104
      O   12   -0.30500      0.99989     3.29415    0.01096     4.30500
      C   13   -0.01974      0.99959     2.00965    0.01050     3.01974
      C   14   -0.10071      0.99964     2.09211    0.00896     3.10071
      N   15   -0.35610      0.99975     2.83835    0.01800     3.85610
      C   16    0.00672      0.99953     1.98471    0.00904     2.99328
      C   17   -0.10593      0.99954     2.09739    0.00901     3.10593
      H   18    0.10270      0.00000     0.39623    0.00106     0.39730
      H   19    0.09565      0.00000     0.40330    0.00105     0.40435
      H   20    0.09550      0.00000     0.40346    0.00105     0.40450
      H   21    0.11806      0.00000     0.38094    0.00100     0.38194
      H   22    0.10882      0.00000     0.38985    0.00133     0.39118
      H   23    0.08623      0.00000     0.41191    0.00185     0.41377
      H   24    0.08760      0.00000     0.41124    0.00117     0.41240
      H   25    0.09289      0.00000     0.40610    0.00100     0.40711
      H   26    0.08464      0.00000     0.41416    0.00121     0.41536
      H   27    0.07835      0.00000     0.42004    0.00161     0.42165
      H   28    0.08625      0.00000     0.41233    0.00142     0.41375
      H   29    0.09294      0.00000     0.40601    0.00104     0.40706
      H   30    0.19294      0.00000     0.30436    0.00269     0.30706
      H   31    0.09125      0.00000     0.40709    0.00167     0.40875
      H   32    0.08878      0.00000     0.41018    0.00104     0.41122
 =======================================================================
   * Total *   -0.00000     16.99367    44.77951    0.22682    62.00000

 Normal termination of Gaussian 16 at Fri Dec 11 14:15:13 2020.
