 Gaussian 16, Revision A.03,

 -----------------------------------------------------------
 # opt freq B3LYP/6-31G(d) empiricaldispersion=gd3bj scf=xqc
 -----------------------------------------------------------

 ------------------------------
 CID_79787876_JID_7371_neutraal
 ------------------------------
 Symbolic Z-matrix:
 Charge =  0 Multiplicity = 1

 SCF Done:  E(RB3LYP) =  -777.207183437     A.U. after   15 cycles
 SCF Done:  E(RB3LYP) =  -777.211963291     A.U. after   12 cycles
 SCF Done:  E(RB3LYP) =  -777.212912802     A.U. after   12 cycles
 SCF Done:  E(RB3LYP) =  -777.213415663     A.U. after   12 cycles
 SCF Done:  E(RB3LYP) =  -777.213751997     A.U. after   12 cycles
 SCF Done:  E(RB3LYP) =  -777.214037544     A.U. after   11 cycles
 SCF Done:  E(RB3LYP) =  -777.214119028     A.U. after   12 cycles
 SCF Done:  E(RB3LYP) =  -777.214172023     A.U. after   10 cycles
 SCF Done:  E(RB3LYP) =  -777.214188575     A.U. after   10 cycles
 SCF Done:  E(RB3LYP) =  -777.214199620     A.U. after   10 cycles
 SCF Done:  E(RB3LYP) =  -777.214212025     A.U. after    7 cycles
 SCF Done:  E(RB3LYP) =  -777.214211114     A.U. after    7 cycles
 SCF Done:  E(RB3LYP) =  -777.214210668     A.U. after    7 cycles
 SCF Done:  E(RB3LYP) =  -777.214211223     A.U. after    8 cycles
 SCF Done:  E(RB3LYP) =  -777.214211257     A.U. after    7 cycles
 Optimization completed.
    -- Stationary point found.
 Normal termination of Gaussian 16 at Fri Dec 11 12:08:49 2020.

 --------------------------------------------------------------------
 #N Geom=AllCheck Guess=TCheck SCRF=Check GenChk RB3LYP/6-31G(d) Freq
 --------------------------------------------------------------------

 Structure from the checkpoint file:  "JID_7371.chk"
 ------------------------------
 CID_79787876_JID_7371_neutraal
 ------------------------------
 Charge =  0 Multiplicity = 1

 SCF Done:  E(RB3LYP) =  -777.214211257     A.U. after    1 cycles

  Exact polarizability: 166.114   5.078 137.223  -8.109  13.604 124.132
 Approx polarizability: 224.049   7.388 230.282 -14.100  33.598 204.152

                      1                      2                      3
                      A                      A                      A
 Frequencies --     19.5276                28.7714                50.4054
 Red. masses --      4.8026                 4.3677                 3.2773
 Frc consts  --      0.0011                 0.0021                 0.0049
 IR Inten    --      0.7015                 1.6215                 2.9327

                      4                      5                      6
                      A                      A                      A
 Frequencies --     69.3947                84.2855                89.6167
 Red. masses --      4.4488                 2.6027                 5.1425
 Frc consts  --      0.0126                 0.0109                 0.0243
 IR Inten    --      4.0266                 0.3445                 0.4750

                      7                      8                      9
                      A                      A                      A
 Frequencies --    138.9441               169.2228               186.3164
 Red. masses --      4.7289                 3.1677                 4.3233
 Frc consts  --      0.0538                 0.0534                 0.0884
 IR Inten    --      0.5921                 0.7427                 1.7442

                     10                     11                     12
                      A                      A                      A
 Frequencies --    217.3662               234.5728               244.9194
 Red. masses --      1.2702                 1.3210                 3.7391
 Frc consts  --      0.0354                 0.0428                 0.1321
 IR Inten    --      7.8124                41.7792                 7.5868

                     13                     14                     15
                      A                      A                      A
 Frequencies --    292.0889               320.1637               367.7980
 Red. masses --      2.4170                 2.7882                 2.7483
 Frc consts  --      0.1215                 0.1684                 0.2190
 IR Inten    --     12.2734                 4.0284                 4.6679

                     16                     17                     18
                      A                      A                      A
 Frequencies --    394.9622               409.3345               427.2079
 Red. masses --      2.9849                 4.1422                 3.4843
 Frc consts  --      0.2743                 0.4089                 0.3747
 IR Inten    --      0.2841                 4.7772                 3.0689

                     19                     20                     21
                      A                      A                      A
 Frequencies --    449.0476               509.2302               551.8093
 Red. masses --      4.1206                 4.7981                 3.5444
 Frc consts  --      0.4895                 0.7331                 0.6359
 IR Inten    --      2.1653                 4.9420                 2.3481

                     22                     23                     24
                      A                      A                      A
 Frequencies --    588.2817               653.7494               660.1515
 Red. masses --      3.4189                 7.3077                 5.8200
 Frc consts  --      0.6971                 1.8401                 1.4944
 IR Inten    --     20.9475                 6.3937                12.5481

                     25                     26                     27
                      A                      A                      A
 Frequencies --    696.7084               708.6032               734.0343
 Red. masses --      4.1716                 3.8702                 4.1402
 Frc consts  --      1.1931                 1.1450                 1.3143
 IR Inten    --     16.6485                 1.9096                 7.6267

                     28                     29                     30
                      A                      A                      A
 Frequencies --    776.2777               783.8527               813.3939
 Red. masses --      3.3746                 4.2935                 1.3375
 Frc consts  --      1.1981                 1.5543                 0.5214
 IR Inten    --     30.9313                 7.7228                 1.7377

                     31                     32                     33
                      A                      A                      A
 Frequencies --    850.2140               854.5834               877.6848
 Red. masses --      1.3884                 3.5478                 1.5657
 Frc consts  --      0.5913                 1.5266                 0.7106
 IR Inten    --    125.8121                 2.8568                21.2862

                     34                     35                     36
                      A                      A                      A
 Frequencies --    889.2622               934.2202               969.9169
 Red. masses --      1.3761                 1.4018                 1.3187
 Frc consts  --      0.6411                 0.7209                 0.7309
 IR Inten    --      5.9914                 5.2154                 4.1322

                     37                     38                     39
                      A                      A                      A
 Frequencies --    984.7975               997.5408              1006.9450
 Red. masses --      2.4449                 6.5243                 2.0693
 Frc consts  --      1.3970                 3.8251                 1.2362
 IR Inten    --      4.5369                 5.2814                26.6869

                     40                     41                     42
                      A                      A                      A
 Frequencies --   1026.8894              1041.9134              1058.9759
 Red. masses --      2.4920                 2.7633                 3.2052
 Frc consts  --      1.5483                 1.7675                 2.1178
 IR Inten    --     19.5758                 4.9060                36.8205

                     43                     44                     45
                      A                      A                      A
 Frequencies --   1071.1421              1078.2952              1119.7612
 Red. masses --      2.5464                 2.6178                 1.9372
 Frc consts  --      1.7213                 1.7933                 1.4311
 IR Inten    --     36.1386                31.5223                 9.5047

                     46                     47                     48
                      A                      A                      A
 Frequencies --   1166.5254              1185.8665              1199.2905
 Red. masses --      1.2881                 1.2555                 1.6981
 Frc consts  --      1.0327                 1.0402                 1.4390
 IR Inten    --      6.4092                 6.6233                 6.8118

                     49                     50                     51
                      A                      A                      A
 Frequencies --   1221.9522              1258.3797              1266.7204
 Red. masses --      2.6800                 4.4104                 1.7216
 Frc consts  --      2.3577                 4.1148                 1.6276
 IR Inten    --     15.8418                98.0441                36.8419

                     52                     53                     54
                      A                      A                      A
 Frequencies --   1284.0042              1295.2485              1308.6474
 Red. masses --      2.6002                 1.9854                 1.4074
 Frc consts  --      2.5257                 1.9625                 1.4200
 IR Inten    --     85.7256                19.1521                10.7299

                     55                     56                     57
                      A                      A                      A
 Frequencies --   1318.7574              1336.3477              1354.3415
 Red. masses --      3.2083                 1.9800                 1.5619
 Frc consts  --      3.2874                 2.0834                 1.6880
 IR Inten    --     23.8963                70.0504                 6.7611

                     58                     59                     60
                      A                      A                      A
 Frequencies --   1355.4787              1405.6530              1410.4495
 Red. masses --      1.6892                 1.5275                 1.3066
 Frc consts  --      1.8286                 1.7782                 1.5315
 IR Inten    --     14.8740                12.9317                 9.6316

                     61                     62                     63
                      A                      A                      A
 Frequencies --   1439.9533              1443.8167              1452.1170
 Red. masses --      1.2855                 1.5072                 2.9777
 Frc consts  --      1.5704                 1.8511                 3.6994
 IR Inten    --      3.6842                49.4259                 8.8488

                     64                     65                     66
                      A                      A                      A
 Frequencies --   1453.3067              1506.4656              1517.1524
 Red. masses --      2.9148                 1.5584                 1.3082
 Frc consts  --      3.6272                 2.0838                 1.7742
 IR Inten    --      6.4751                21.0800                31.6130

                     67                     68                     69
                      A                      A                      A
 Frequencies --   1519.7980              1527.3290              1531.4504
 Red. masses --      1.0675                 1.6820                 1.0925
 Frc consts  --      1.4527                 2.3118                 1.5096
 IR Inten    --      3.2819                11.4272                 0.1530

                     70                     71                     72
                      A                      A                      A
 Frequencies --   1535.3725              1536.9785              1565.4611
 Red. masses --      2.5884                 1.0678                 5.9726
 Frc consts  --      3.5951                 1.4861                 8.6238
 IR Inten    --     78.8635                 3.2893                13.9560

                     73                     74                     75
                      A                      A                      A
 Frequencies --   1630.3171              1653.5430              1691.9359
 Red. masses --      5.6339                 5.7996                 1.0978
 Frc consts  --      8.8228                 9.3429                 1.8515
 IR Inten    --     43.5284                15.3168                27.3217

                     76                     77                     78
                      A                      A                      A
 Frequencies --   2957.3116              3069.3843              3074.7463
 Red. masses --      1.0733                 1.0353                 1.0590
 Frc consts  --      5.5307                 5.7469                 5.8989
 IR Inten    --     87.7833                13.9790                28.5438

                     79                     80                     81
                      A                      A                      A
 Frequencies --   3096.5931              3107.8513              3123.2263
 Red. masses --      1.0630                 1.0890                 1.1071
 Frc consts  --      6.0056                 6.1970                 6.3627
 IR Inten    --     19.1494                18.0174                 8.5582

                     82                     83                     84
                      A                      A                      A
 Frequencies --   3141.9860              3145.3601              3165.4889
 Red. masses --      1.1027                 1.1014                 1.1054
 Frc consts  --      6.4138                 6.4202                 6.5262
 IR Inten    --     17.3318                 4.5828                15.7572

                     85                     86                     87
                      A                      A                      A
 Frequencies --   3176.3921              3191.9019              3235.8694
 Red. masses --      1.0904                 1.0904                 1.0932
 Frc consts  --      6.4817                 6.5452                 6.7439
 IR Inten    --     21.0867                10.6706                 0.4880

                     88                     89                     90
                      A                      A                      A
 Frequencies --   3278.0864              3454.0676              3543.3994
 Red. masses --      1.0972                 1.0494                 1.0926
 Frc consts  --      6.9464                 7.3768                 8.0827
 IR Inten    --      7.5570                 4.2144                 2.9588

 - Thermochemistry -
 -------------------
 Temperature   298.150 Kelvin.  Pressure   1.00000 Atm.
 Atom     1 has atomic number  6 and mass  12.00000

 Molecular mass:   233.12766 amu.
 Principal axes and moments of inertia in atomic units:
                           1         2         3
     Eigenvalues --  2218.683346621.885496702.00286
           X            0.99976   0.01960   0.00977
           Y           -0.02104   0.98321   0.18128
           Z           -0.00606  -0.18144   0.98338
 This molecule is an asymmetric top.
 Rotational symmetry number  1.
 Warning -- assumption of classical behavior for rotation
           may cause significant error
 Rotational temperatures (Kelvin)      0.03904     0.01308     0.01292
 Rotational constants (GHZ):           0.81343     0.27254     0.26928
 Zero-point vibrational energy     697222.5 (Joules/Mol)
                                  166.64018 (Kcal/Mol)
 Warning -- explicit consideration of  22 degrees of freedom as
           vibrations may cause significant error
 Vibrational temperatures:     28.10    41.40    72.52    99.84   121.27
          (Kelvin)            128.94   199.91   243.47   268.07   312.74
                              337.50   352.38   420.25   460.64   529.18
                              568.26   588.94   614.66   646.08   732.67
                              793.93   846.41   940.60   949.81  1002.41
                             1019.52  1056.11  1116.89  1127.79  1170.29
                             1223.27  1229.55  1262.79  1279.45  1344.13
                             1395.49  1416.90  1435.24  1448.77  1477.46
                             1499.08  1523.63  1541.13  1551.43  1611.09
                             1678.37  1706.20  1725.51  1758.12  1810.53
                             1822.53  1847.40  1863.57  1882.85  1897.40
                             1922.71  1948.60  1950.23  2022.42  2029.32
                             2071.77  2077.33  2089.27  2090.98  2167.47
                             2182.84  2186.65  2197.49  2203.42  2209.06
                             2211.37  2252.35  2345.66  2379.08  2434.32
                             4254.91  4416.16  4423.87  4455.31  4471.50
                             4493.63  4520.62  4525.47  4554.43  4570.12
                             4592.43  4655.69  4716.44  4969.63  5098.16

 Zero-point correction=                           0.265558 (Hartree/Particle)
 Thermal correction to Energy=                    0.281309
 Thermal correction to Enthalpy=                  0.282253
 Thermal correction to Gibbs Free Energy=         0.220084
 Sum of electronic and zero-point Energies=           -776.948653
 Sum of electronic and thermal Energies=              -776.932902
 Sum of electronic and thermal Enthalpies=            -776.931958
 Sum of electronic and thermal Free Energies=         -776.994127

                     E (Thermal)             CV                S
                      KCal/Mol        Cal/Mol-Kelvin    Cal/Mol-Kelvin
 Total                  176.524             58.485            130.846
 Electronic               0.000              0.000              0.000
 Translational            0.889              2.981             42.241
 Rotational               0.889              2.981             32.954
 Vibrational            174.747             52.524             55.651
 Vibration     1          0.593              1.986              6.682
 Vibration     2          0.593              1.984              5.912
 Vibration     3          0.595              1.977              4.801
 Vibration     4          0.598              1.969              4.170
 Vibration     5          0.601              1.960              3.789
 Vibration     6          0.602              1.957              3.668
 Vibration     7          0.615              1.914              2.818
 Vibration     8          0.625              1.880              2.444
 Vibration     9          0.632              1.859              2.264
 Vibration    10          0.646              1.815              1.981
 Vibration    11          0.654              1.788              1.844
 Vibration    12          0.660              1.771              1.767
 Vibration    13          0.687              1.688              1.462
 Vibration    14          0.706              1.635              1.309
 Vibration    15          0.740              1.538              1.089
 Vibration    16          0.762              1.481              0.981
 Vibration    17          0.774              1.450              0.929
 Vibration    18          0.789              1.411              0.868
 Vibration    19          0.808              1.363              0.799
 Vibration    20          0.864              1.230              0.635
 Vibration    21          0.907              1.136              0.540
 Vibration    22          0.945              1.057              0.470

                           ! Non-Optimized Parameters !
 Normal termination of Gaussian 16 at Fri Dec 11 12:21:40 2020.

 ----------------------------------------------------------------------
 # B3LYP/6-311++G(d,p) empiricaldispersion=gd3bj scf=xqc pop=npa geom=c
 heck
 ----------------------------------------------------------------------

 --------------------------------------
 CID_79787876_JID_7371_Energie_neutraal
 --------------------------------------
 Structure from the checkpoint file:  "JID_7371.chk"
 Charge =  0 Multiplicity = 1

 SCF Done:  E(RB3LYP) =  -777.429738291     A.U. after   16 cycles
 Normal termination of Gaussian 16 at Fri Dec 11 12:28:10 2020.

 ----------------------------------------------------------------------
 # B3LYP/6-311++G(d,p) empiricaldispersion=gd3bj scf=xqc pop=npa geom=c
 heck
 ----------------------------------------------------------------------

 ------------------------------------
 CID_79787876_JID_7371_Energie_kation
 ------------------------------------
 Structure from the checkpoint file:  "JID_7371.chk"
 Charge =  1 Multiplicity = 2

 SCF Done:  E(UB3LYP) =  -777.121243717     A.U. after   29 cycles
 Normal termination of Gaussian 16 at Fri Dec 11 12:45:22 2020.
 Gaussian 16:  ES64L-G16RevA.03 25-Dec-2016

 ----------------------------------------------------------------------
 # B3LYP/6-311++G(d,p) empiricaldispersion=gd3bj scf=xqc pop=npa geom=c
 heck
 ----------------------------------------------------------------------

 -----------------------------------
 CID_79787876_JID_7371_Energie_anion
 -----------------------------------
 Structure from the checkpoint file:  "JID_7371.chk"
 Charge = -1 Multiplicity = 2

                         Standard orientation:
 ---------------------------------------------------------------------
 Center     Atomic      Atomic             Coordinates (Angstroms)
 Number     Number       Type             X           Y           Z
 ---------------------------------------------------------------------
      1          6           0        1.326084    0.202076    2.569797
      2          6           0        2.490976    0.642808    1.686471
      3          7           0        2.635466   -0.218864    0.515326
      4          6           0        2.299465   -0.000489   -0.778896
      5          7           0        2.521687   -1.097276   -1.496195
      6          6           0        3.002171   -1.971672   -0.569973
      7          7           0        3.082665   -1.493534    0.664102
      8          6           0        1.764779    1.286475   -1.328368
      9          8           0        0.675052    1.819638   -0.578029
     10          6           0       -0.505649    1.123799   -0.564311
     11          6           0       -1.524710    1.675338    0.227029
     12          7           0       -2.728779    1.129805    0.359874
     13          6           0       -2.991762   -0.010417   -0.304117
     14          6           0       -2.038665   -0.616572   -1.123740
     15          6           0       -0.768576   -0.054316   -1.262392
     16          6           0       -4.347560   -0.639337   -0.086079
     17          7           0       -4.307655   -1.526744    1.087468
     18          1           0        0.379344    0.265166    2.026058
     19          1           0        1.262564    0.848027    3.451554
     20          1           0        1.473011   -0.829622    2.900722
     21          1           0        2.341417    1.660750    1.322638
     22          1           0        3.437308    0.600988    2.232505
     23          1           0        3.299418   -2.983600   -0.808079
     24          1           0        2.522236    2.074802   -1.297229
     25          1           0        1.487760    1.116448   -2.374353
     26          1           0       -1.328642    2.602078    0.763367
     27          1           0       -2.281643   -1.532291   -1.655893
     28          1           0       -0.019983   -0.537355   -1.878900
     29          1           0       -5.065065    0.159215    0.123709
     30          1           0       -4.664524   -1.140489   -1.018443
     31          1           0       -5.229935   -1.936063    1.231841
     32          1           0       -3.676688   -2.305010    0.898187
 ---------------------------------------------------------------------

 SCF Done:  E(UB3LYP) =  -777.420721258     A.U. after   33 cycles
 SCF Done:  E(UB3LYP) =  -777.420721258     a.u. after    1 cycles

 The electronic state is 2-A.
 Alpha  occ. eigenvalues --  -19.06321 -14.30125 -14.24076 -14.21143 -14.18439
 Alpha  occ. eigenvalues --  -14.18164 -10.15555 -10.14622 -10.12735 -10.12420
 Alpha  occ. eigenvalues --  -10.12343 -10.08802 -10.08411 -10.08264 -10.06713
 Alpha  occ. eigenvalues --  -10.06672 -10.06572  -0.98831  -0.97583  -0.82657
 Alpha  occ. eigenvalues --   -0.81330  -0.77064  -0.75627  -0.69278  -0.67581
 Alpha  occ. eigenvalues --   -0.65924  -0.62532  -0.56625  -0.55319  -0.53444
 Alpha  occ. eigenvalues --   -0.52524  -0.49874  -0.47426  -0.44839  -0.41557
 Alpha  occ. eigenvalues --   -0.40906  -0.39122  -0.38748  -0.37304  -0.36519
 Alpha  occ. eigenvalues --   -0.35301  -0.34701  -0.34078  -0.33299  -0.32334
 Alpha  occ. eigenvalues --   -0.30938  -0.30229  -0.29529  -0.28322  -0.27583
 Alpha  occ. eigenvalues --   -0.26744  -0.25782  -0.24686  -0.24283  -0.23152
 Alpha  occ. eigenvalues --   -0.19706  -0.18998  -0.17564  -0.17094  -0.14199
 Alpha  occ. eigenvalues --   -0.13475  -0.12596   0.04500
 Alpha virt. eigenvalues --    0.06146   0.06844   0.07470   0.07863   0.08551
 Alpha virt. eigenvalues --    0.08892   0.09451   0.09565   0.09999   0.10342
 Alpha virt. eigenvalues --    0.11084   0.11295   0.11836   0.12331   0.12954

  Beta  occ. eigenvalues --  -19.06298 -14.30061 -14.24009 -14.21129 -14.18394
  Beta  occ. eigenvalues --  -14.17897 -10.15550 -10.14562 -10.12744 -10.12423
  Beta  occ. eigenvalues --  -10.12329 -10.08822 -10.08401 -10.08189 -10.06687
  Beta  occ. eigenvalues --  -10.06564 -10.06505  -0.98748  -0.97520  -0.82326
  Beta  occ. eigenvalues --   -0.81252  -0.76955  -0.75518  -0.69067  -0.67455
  Beta  occ. eigenvalues --   -0.65828  -0.62438  -0.56534  -0.55231  -0.53396
  Beta  occ. eigenvalues --   -0.52287  -0.49779  -0.47330  -0.44767  -0.41453
  Beta  occ. eigenvalues --   -0.40834  -0.39004  -0.38623  -0.37237  -0.36442
  Beta  occ. eigenvalues --   -0.35196  -0.34615  -0.34042  -0.33209  -0.32275
  Beta  occ. eigenvalues --   -0.30829  -0.30082  -0.29317  -0.28227  -0.27508
  Beta  occ. eigenvalues --   -0.26698  -0.25702  -0.24404  -0.24201  -0.22945
  Beta  occ. eigenvalues --   -0.19456  -0.18945  -0.17034  -0.16420  -0.13965
  Beta  occ. eigenvalues --   -0.13342  -0.12212
  Beta virt. eigenvalues --    0.06703   0.07081   0.07517   0.08062   0.08534
  Beta virt. eigenvalues --    0.08908   0.09184   0.09779   0.09894   0.10227
  Beta virt. eigenvalues --    0.10485   0.11294   0.11473   0.11842   0.12355

 Mulliken charges and spin densities:
               1          2
     1  C    0.035207  -0.543248
     2  C   -0.095242  -0.150123
     3  N    0.254448   0.054027
     4  C   -0.289856   0.292600
     5  N   -0.025019   0.018747
     6  C    0.021992   0.044431
     7  N   -0.214726   0.043699
     8  C   -0.307800  -0.502057
     9  O   -0.038602   0.006724
    10  C    0.016593  -0.459370
    11  C   -1.078497   0.717178
    12  N    0.054972   0.121636
    13  C    0.005526  -0.060898
    14  C   -0.368873   0.211615
    15  C    0.634709  -0.030724
    16  C    0.411741  -1.137393
    17  N   -0.234033  -0.096615
    18  H    0.523988  -0.289744
    19  H   -0.274715   0.405316
    20  H    0.139895   0.017846
    21  H    0.082741   0.071792
    22  H   -0.408774   0.614407
    23  H    0.081050   0.071801
    24  H    0.079193   0.109822
    25  H    0.158666   0.034517
    26  H    0.076321   0.093509
    27  H   -0.312546   0.497846
    28  H    0.182380   0.030309
    29  H   -0.006103   0.180724
    30  H   -0.003753   0.097955
    31  H   -0.120889   0.346821
    32  H    0.020006   0.186850
 Sum of Mulliken charges =  -1.00000   1.00000

 Dipole moment (field-independent basis, Debye):
    X=              4.3232    Y=              1.8501    Z=             -4.1092  Tot=              6.2449
 Quadrupole moment (field-independent basis, Debye-Ang):
   XX=           -177.5150   YY=           -127.9563   ZZ=           -138.6131
   XY=             -4.0663   XZ=             -0.9557   YZ=             -3.4651

 Summary of Natural Population Analysis:

                                       Natural Population
                Natural  -----------------------------------------------
    Atom  No    Charge         Core      Valence    Rydberg      Total
 -----------------------------------------------------------------------
      C    1   -0.29105      0.99965     2.28598    0.00543     3.29105
      C    2   -0.08489      0.99962     2.07426    0.01101     3.08489
      N    3   -0.10441      0.99960     2.59134    0.01348     3.60441
      C    4    0.18691      0.99959     1.79782    0.01568     2.81309
      N    5   -0.26803      0.99970     2.75878    0.00955     3.76803
      C    6    0.08330      0.99970     1.89828    0.01871     2.91670
      N    7   -0.14997      0.99973     2.63916    0.01108     3.64997
      C    8   -0.03168      0.99952     2.02139    0.01078     3.03168
      O    9   -0.27655      0.99986     3.26749    0.00920     4.27655
      C   10    0.13045      0.99937     1.85698    0.01321     2.86955
      C   11    0.02126      0.99955     1.96623    0.01296     2.97874
      N   12   -0.19252      0.99968     2.68257    0.01027     3.69252
      C   13    0.08343      0.99953     1.90145    0.01559     2.91657
      C   14   -0.10928      0.99951     2.10043    0.00934     3.10928
      C   15   -0.10935      0.99952     2.10108    0.00875     3.10935
      C   16   -0.10142      0.99959     2.08834    0.01348     3.10142
      N   17   -0.41432      0.99977     2.90398    0.01057     3.91432
      H   18    0.10914      0.00000     0.38950    0.00136     0.39086
      H   19    0.10157      0.00000     0.39726    0.00118     0.39843
      H   20    0.10406      0.00000     0.39491    0.00103     0.39594
      H   21    0.10415      0.00000     0.39427    0.00158     0.39585
      H   22    0.10250      0.00000     0.39541    0.00209     0.39750
      H   23    0.09043      0.00000     0.40877    0.00080     0.40957
      H   24    0.09972      0.00000     0.39917    0.00112     0.40028
      H   25    0.10034      0.00000     0.39826    0.00140     0.39966
      H   26    0.08795      0.00000     0.41033    0.00172     0.41205
      H   27    0.10071      0.00000     0.39821    0.00108     0.39929
      H   28    0.10881      0.00000     0.38868    0.00251     0.39119
      H   29    0.09717      0.00000     0.40106    0.00177     0.40283
      H   30    0.07750      0.00000     0.42091    0.00159     0.42250
      H   31    0.17172      0.00000     0.32562    0.00266     0.32828
      H   32    0.17237      0.00000     0.32564    0.00199     0.32763
 =======================================================================
   * Total *    0.00000     16.99351    44.78352    0.22297    62.00000

 Normal termination of Gaussian 16 at Fri Dec 11 13:04:29 2020.
