 Gaussian 16, Revision A.03,

 -----------------------------------------------------------
 # opt freq B3LYP/6-31G(d) empiricaldispersion=gd3bj scf=xqc
 -----------------------------------------------------------

 -------------------------------
 CID_144153915_JID_6897_neutraal
 -------------------------------
 Symbolic Z-matrix:
 Charge =  0 Multiplicity = 1

 SCF Done:  E(RB3LYP) =  -620.609226851     A.U. after   14 cycles
 SCF Done:  E(RB3LYP) =  -620.614509739     A.U. after   12 cycles
 SCF Done:  E(RB3LYP) =  -620.615378582     A.U. after   12 cycles
 SCF Done:  E(RB3LYP) =  -620.615815325     A.U. after   12 cycles
 SCF Done:  E(RB3LYP) =  -620.614903731     A.U. after   12 cycles
 SCF Done:  E(RB3LYP) =  -620.616152116     A.U. after   11 cycles
 SCF Done:  E(RB3LYP) =  -620.616201933     A.U. after   10 cycles
 SCF Done:  E(RB3LYP) =  -620.616203680     A.U. after    8 cycles
 SCF Done:  E(RB3LYP) =  -620.616203989     A.U. after    7 cycles
 Optimization completed.
    -- Stationary point found.
 Normal termination of Gaussian 16 at Fri Dec 11 00:59:15 2020.

 --------------------------------------------------------------------
 #N Geom=AllCheck Guess=TCheck SCRF=Check GenChk RB3LYP/6-31G(d) Freq
 --------------------------------------------------------------------

 Structure from the checkpoint file:  "JID_6897.chk"
 -------------------------------
 CID_144153915_JID_6897_neutraal
 -------------------------------
 Charge =  0 Multiplicity = 1

 SCF Done:  E(RB3LYP) =  -620.616203989     A.U. after    1 cycles

  Exact polarizability: 247.087   9.051 196.352  -2.195  -2.117  86.527
 Approx polarizability: 352.463  19.652 343.103  -3.369  -4.212 128.936

                      1                      2                      3
                      A                      A                      A
 Frequencies --     48.8140                77.0828                88.4110
 Red. masses --      3.5691                 2.5908                 2.6898
 Frc consts  --      0.0050                 0.0091                 0.0124
 IR Inten    --      0.2414                 0.0572                 0.1901

                      4                      5                      6
                      A                      A                      A
 Frequencies --    105.1672               133.6887               177.7496
 Red. masses --      3.0387                 1.6787                 2.6336
 Frc consts  --      0.0198                 0.0177                 0.0490
 IR Inten    --      0.0548                 0.0728                 0.8346

                      7                      8                      9
                      A                      A                      A
 Frequencies --    180.9966               186.8566               207.6041
 Red. masses --      1.6878                 1.6077                 1.4533
 Frc consts  --      0.0326                 0.0331                 0.0369
 IR Inten    --      0.4609                 0.1161                 0.8273

                     10                     11                     12
                      A                      A                      A
 Frequencies --    215.5186               222.2692               260.6567
 Red. masses --      1.7527                 1.8755                 2.8037
 Frc consts  --      0.0480                 0.0546                 0.1122
 IR Inten    --      0.9833                 0.0218                 0.2429

                     13                     14                     15
                      A                      A                      A
 Frequencies --    289.8281               332.4451               361.9105
 Red. masses --      3.5562                 3.3415                 3.1449
 Frc consts  --      0.1760                 0.2176                 0.2427
 IR Inten    --      0.8298                 0.5886                 1.4492

                     16                     17                     18
                      A                      A                      A
 Frequencies --    425.1039               430.6640               450.5071
 Red. masses --      3.2025                 3.5174                 3.1948
 Frc consts  --      0.3410                 0.3844                 0.3820
 IR Inten    --      1.1260                 0.5342                 4.3082

                     19                     20                     21
                      A                      A                      A
 Frequencies --    487.6772               491.1374               514.4257
 Red. masses --      3.5719                 3.7669                 4.7543
 Frc consts  --      0.5005                 0.5353                 0.7413
 IR Inten    --      0.1641                 0.3915                 0.7941

                     22                     23                     24
                      A                      A                      A
 Frequencies --    568.4402               613.2081               646.3437
 Red. masses --      4.8936                 3.3373                 3.1227
 Frc consts  --      0.9316                 0.7394                 0.7686
 IR Inten    --      0.2872                 1.3513                 1.2596

                     25                     26                     27
                      A                      A                      A
 Frequencies --    665.1897               695.9720               768.9647
 Red. masses --      3.6790                 4.5380                 1.9502
 Frc consts  --      0.9591                 1.2951                 0.6794
 IR Inten    --      0.1667                 2.7302                14.2916

                     28                     29                     30
                      A                      A                      A
 Frequencies --    784.8247               801.6874               817.2739
 Red. masses --      2.2169                 2.8489                 3.9796
 Frc consts  --      0.8045                 1.0788                 1.5661
 IR Inten    --     24.2366                 5.3447                 2.2795

                     31                     32                     33
                      A                      A                      A
 Frequencies --    825.7793               866.0293               882.6309
 Red. masses --      1.7185                 1.4660                 1.8054
 Frc consts  --      0.6904                 0.6478                 0.8287
 IR Inten    --      8.8028                13.3826                 1.2667

                     34                     35                     36
                      A                      A                      A
 Frequencies --    896.6571               941.1329               945.7210
 Red. masses --      2.5639                 1.2337                 1.6767
 Frc consts  --      1.2145                 0.6438                 0.8836
 IR Inten    --      0.6640                 1.6717                 9.4040

                     37                     38                     39
                      A                      A                      A
 Frequencies --    957.2859               962.4603               977.1922
 Red. masses --      1.4278                 1.3525                 1.4087
 Frc consts  --      0.7709                 0.7381                 0.7925
 IR Inten    --      2.8536                 1.3375                 0.2045

                     40                     41                     42
                      A                      A                      A
 Frequencies --    991.4055              1003.6801              1013.1886
 Red. masses --      1.2487                 2.4511                 1.1330
 Frc consts  --      0.7231                 1.4548                 0.6852
 IR Inten    --      0.1115                14.7238                27.2714

                     43                     44                     45
                      A                      A                      A
 Frequencies --   1062.9603              1077.1834              1077.6966
 Red. masses --      3.5448                 2.1291                 1.5291
 Frc consts  --      2.3598                 1.4555                 1.0463
 IR Inten    --      1.8209                 3.0184                 1.1510

                     46                     47                     48
                      A                      A                      A
 Frequencies --   1133.7767              1137.1603              1138.0672
 Red. masses --      2.3048                 1.8066                 2.4291
 Frc consts  --      1.7456                 1.3765                 1.8537
 IR Inten    --      0.6020                13.8946                 1.5557

                     49                     50                     51
                      A                      A                      A
 Frequencies --   1170.9490              1195.8460              1203.9466
 Red. masses --      1.8516                 1.5333                 1.1732
 Frc consts  --      1.4958                 1.2919                 1.0020
 IR Inten    --      3.4269                 0.7519                 0.5581

                     52                     53                     54
                      A                      A                      A
 Frequencies --   1224.2314              1260.7094              1274.7230
 Red. masses --      1.7089                 2.5342                 1.5315
 Frc consts  --      1.5090                 2.3732                 1.4663
 IR Inten    --      7.6755                 2.5865                 0.4639

                     55                     56                     57
                      A                      A                      A
 Frequencies --   1299.3332              1335.8167              1352.4817
 Red. masses --      1.6540                 1.3856                 2.2768
 Frc consts  --      1.6452                 1.4567                 2.4538
 IR Inten    --      2.8183                 1.6742                 4.6585

                     58                     59                     60
                      A                      A                      A
 Frequencies --   1357.6075              1370.7610              1392.2442
 Red. masses --      1.5979                 1.2946                 5.3232
 Frc consts  --      1.7351                 1.4332                 6.0793
 IR Inten    --      1.2019                 2.7705                 0.4878

                     61                     62                     63
                      A                      A                      A
 Frequencies --   1419.8384              1429.4343              1440.6406
 Red. masses --      2.4114                 1.2155                 1.4735
 Frc consts  --      2.8641                 1.4633                 1.8018
 IR Inten    --      2.2565                 3.9584                 2.2501

                     64                     65                     66
                      A                      A                      A
 Frequencies --   1442.9869              1449.2652              1483.2359
 Red. masses --      1.4571                 1.2335                 2.2469
 Frc consts  --      1.7876                 1.5265                 2.9124
 IR Inten    --     12.2321                 4.0917                 1.4131

                     67                     68                     69
                      A                      A                      A
 Frequencies --   1507.6704              1508.3149              1521.4964
 Red. masses --      1.9645                 1.1566                 1.0451
 Frc consts  --      2.6310                 1.5502                 1.4255
 IR Inten    --      1.6564                 4.8532                 0.1097

                     70                     71                     72
                      A                      A                      A
 Frequencies --   1521.6000              1522.9067              1531.9527
 Red. masses --      1.0812                 1.0501                 1.0582
 Frc consts  --      1.4749                 1.4349                 1.4632
 IR Inten    --      9.1508                 1.0583                 6.5437

                     73                     74                     75
                      A                      A                      A
 Frequencies --   1541.8595              1573.8931              1639.8346
 Red. masses --      1.0622                 3.3133                 7.0542
 Frc consts  --      1.4878                 4.8357                11.1763
 IR Inten    --      3.6762                 7.9743                 0.0325

                     76                     77                     78
                      A                      A                      A
 Frequencies --   1642.4735              1677.8180              1734.2973
 Red. masses --      5.2161                 5.5924                 5.6345
 Frc consts  --      8.2908                 9.2755                 9.9850
 IR Inten    --      6.4858                 0.4513                 5.9547

                     79                     80                     81
                      A                      A                      A
 Frequencies --   3029.5766              3031.0638              3052.5146
 Red. masses --      1.0376                 1.0838                 1.0379
 Frc consts  --      5.6113                 5.8664                 5.6979
 IR Inten    --     54.4091                16.8377                28.6118

                     82                     83                     84
                      A                      A                      A
 Frequencies --   3056.7910              3074.6211              3115.9559
 Red. masses --      1.0385                 1.0998                 1.1012
 Frc consts  --      5.7172                 6.1255                 6.2996
 IR Inten    --     45.9724                24.0400                16.1990

                     85                     86                     87
                      A                      A                      A
 Frequencies --   3116.2490              3118.3761              3138.6716
 Red. masses --      1.0993                 1.1015                 1.1000
 Frc consts  --      6.2899                 6.3106                 6.3845
 IR Inten    --     14.4399                56.2499                 2.6713

                     88                     89                     90
                      A                      A                      A
 Frequencies --   3141.4951              3150.1359              3157.4141
 Red. masses --      1.0994                 1.0901                 1.0865
 Frc consts  --      6.3924                 6.3736                 6.3819
 IR Inten    --     50.8637                 2.9943                38.9106

                     91                     92                     93
                      A                      A                      A
 Frequencies --   3175.9173              3186.0123              3201.4318
 Red. masses --      1.0879                 1.0864                 1.0919
 Frc consts  --      6.4652                 6.4974                 6.5939
 IR Inten    --     21.8767                 4.6517                24.3816

                     94                     95                     96
                      A                      A                      A
 Frequencies --   3202.8980              3221.9096              3262.4215
 Red. masses --      1.0922                 1.0928                 1.0895
 Frc consts  --      6.6016                 6.6834                 6.8323
 IR Inten    --     20.2347                22.4338                15.4964

 - Thermochemistry -
 -------------------
 Temperature   298.150 Kelvin.  Pressure   1.00000 Atm.
 Atom     1 has atomic number  6 and mass  12.00000

 Molecular mass:   210.14085 amu.
 Principal axes and moments of inertia in atomic units:
                           1         2         3
     Eigenvalues --  2078.693235247.151406878.79919
           X            0.99998  -0.00649  -0.00003
           Y            0.00649   0.99997  -0.00301
           Z            0.00005   0.00301   1.00000
 This molecule is an asymmetric top.
 Rotational symmetry number  1.
 Warning -- assumption of classical behavior for rotation
           may cause significant error
 Rotational temperatures (Kelvin)      0.04167     0.01651     0.01259
 Rotational constants (GHZ):           0.86821     0.34395     0.26236
 Zero-point vibrational energy     773996.1 (Joules/Mol)
                                  184.98952 (Kcal/Mol)
 Warning -- explicit consideration of  23 degrees of freedom as
           vibrations may cause significant error
 Vibrational temperatures:     70.23   110.91   127.20   151.31   192.35
          (Kelvin)            255.74   260.41   268.84   298.70   310.08
                              319.80   375.03   417.00   478.31   520.71
                              611.63   619.63   648.18   701.66   706.64
                              740.14   817.86   882.27   929.94   957.06
                             1001.35  1106.37  1129.19  1153.45  1175.87
                             1188.11  1246.02  1269.91  1290.09  1354.08
                             1360.68  1377.32  1384.77  1405.96  1426.41
                             1444.07  1457.75  1529.36  1549.83  1550.56
                             1631.25  1636.12  1637.42  1684.73  1720.56
                             1732.21  1761.40  1813.88  1834.04  1869.45
                             1921.94  1945.92  1953.29  1972.22  2003.13
                             2042.83  2056.64  2072.76  2076.14  2085.17
                             2134.05  2169.20  2170.13  2189.09  2189.24
                             2191.12  2204.14  2218.39  2264.48  2359.36
                             2363.15  2414.01  2495.27  4358.88  4361.02
                             4391.89  4398.04  4423.69  4483.17  4483.59
                             4486.65  4515.85  4519.91  4532.34  4542.81
                             4569.44  4583.96  4606.15  4608.26  4635.61
                             4693.90

 Zero-point correction=                           0.294800 (Hartree/Particle)
 Thermal correction to Energy=                    0.309907
 Thermal correction to Enthalpy=                  0.310852
 Thermal correction to Gibbs Free Energy=         0.253095
 Sum of electronic and zero-point Energies=           -620.321404
 Sum of electronic and thermal Energies=              -620.306297
 Sum of electronic and thermal Enthalpies=            -620.305352
 Sum of electronic and thermal Free Energies=         -620.363109

                     E (Thermal)             CV                S
                      KCal/Mol        Cal/Mol-Kelvin    Cal/Mol-Kelvin
 Total                  194.470             59.007            121.559
 Electronic               0.000              0.000              0.000
 Translational            0.889              2.981             41.932
 Rotational               0.889              2.981             32.684
 Vibrational            192.692             53.046             46.944
 Vibration     1          0.595              1.978              4.865
 Vibration     2          0.599              1.964              3.964
 Vibration     3          0.601              1.957              3.695
 Vibration     4          0.605              1.945              3.356
 Vibration     5          0.613              1.920              2.892
 Vibration     6          0.628              1.870              2.352
 Vibration     7          0.630              1.866              2.318
 Vibration     8          0.632              1.858              2.259
 Vibration     9          0.641              1.829              2.065
 Vibration    10          0.645              1.817              1.996
 Vibration    11          0.648              1.807              1.941
 Vibration    12          0.669              1.745              1.657
 Vibration    13          0.686              1.693              1.475
 Vibration    14          0.714              1.611              1.248
 Vibration    15          0.736              1.551              1.114
 Vibration    16          0.787              1.416              0.875
 Vibration    17          0.792              1.403              0.856
 Vibration    18          0.809              1.360              0.794
 Vibration    19          0.844              1.277              0.690
 Vibration    20          0.847              1.270              0.681
 Vibration    21          0.869              1.218              0.623
 Vibration    22          0.924              1.100              0.507
 Vibration    23          0.973              1.004              0.427

                           ! Non-Optimized Parameters !
 Normal termination of Gaussian 16 at Fri Dec 11 01:10:00 2020.

 ----------------------------------------------------------------------
 # B3LYP/6-311++G(d,p) empiricaldispersion=gd3bj scf=xqc pop=npa geom=c
 heck
 ----------------------------------------------------------------------

 ---------------------------------------
 CID_144153915_JID_6897_Energie_neutraal
 ---------------------------------------
 Structure from the checkpoint file:  "JID_6897.chk"
 Charge =  0 Multiplicity = 1

 SCF Done:  E(RB3LYP) =  -620.772478142     A.U. after   14 cycles
 Normal termination of Gaussian 16 at Fri Dec 11 01:14:18 2020.

 ----------------------------------------------------------------------
 # B3LYP/6-311++G(d,p) empiricaldispersion=gd3bj scf=xqc pop=npa geom=c
 heck
 ----------------------------------------------------------------------

 -------------------------------------
 CID_144153915_JID_6897_Energie_kation
 -------------------------------------
 Structure from the checkpoint file:  "JID_6897.chk"
 Charge =  1 Multiplicity = 2

 SCF Done:  E(UB3LYP) =  -620.506693371     A.U. after   19 cycles
 Normal termination of Gaussian 16 at Fri Dec 11 01:22:18 2020.
 Gaussian 16:  ES64L-G16RevA.03 25-Dec-2016

 ----------------------------------------------------------------------
 # B3LYP/6-311++G(d,p) empiricaldispersion=gd3bj scf=xqc pop=npa geom=c
 heck
 ----------------------------------------------------------------------

 ------------------------------------
 CID_144153915_JID_6897_Energie_anion
 ------------------------------------
 Structure from the checkpoint file:  "JID_6897.chk"
 Charge = -1 Multiplicity = 2

                         Standard orientation:
 ---------------------------------------------------------------------
 Center     Atomic      Atomic             Coordinates (Angstroms)
 Number     Number       Type             X           Y           Z
 ---------------------------------------------------------------------
      1          6           0       -5.343491   -0.640347    0.133929
      2          6           0       -3.871193   -0.873834    0.291744
      3          6           0       -2.914748   -0.125856   -0.275286
      4          6           0       -1.468347   -0.381933   -0.169067
      5          6           0       -0.983681   -1.676050   -0.173928
      6          6           0        0.395301   -1.943039   -0.092124
      7          6           0        1.344881   -0.941722   -0.027548
      8          6           0        0.887556    0.419708   -0.026005
      9          6           0        1.774888    1.530356    0.042817
     10          6           0        1.318247    2.828177    0.067679
     11          6           0       -0.066674    3.092588    0.035238
     12          6           0       -0.959215    2.048329   -0.034843
     13          6           0       -0.524259    0.696666   -0.084627
     14          6           0        2.810200   -1.360481    0.034167
     15          6           0        3.626426   -0.938008   -1.202586
     16          6           0        3.505343   -0.982710    1.356491
     17          1           0       -5.546353    0.227608   -0.502310
     18          1           0       -5.827175   -0.473016    1.105796
     19          1           0       -5.838292   -1.512655   -0.314842
     20          1           0       -3.578743   -1.711409    0.925414
     21          1           0       -3.221739    0.730459   -0.874817
     22          1           0       -1.679727   -2.503338   -0.274598
     23          1           0        0.723758   -2.979538   -0.101750
     24          1           0        2.840426    1.355718    0.080865
     25          1           0        2.027310    3.649544    0.121039
     26          1           0       -0.427112    4.116722    0.072029
     27          1           0       -2.022990    2.257202   -0.034255
     28          1           0        2.792313   -2.457851    0.014187
     29          1           0        3.756397    0.144825   -1.277241
     30          1           0        4.624221   -1.390796   -1.165121
     31          1           0        3.133365   -1.274873   -2.120554
     32          1           0        2.927143   -1.348659    2.211481
     33          1           0        4.502042   -1.437515    1.398597
     34          1           0        3.627748    0.096507    1.479765
 ---------------------------------------------------------------------

 SCF Done:  E(UB3LYP) =  -620.772053296     A.U. after   30 cycles

 The electronic state is 2-A.
 Alpha  occ. eigenvalues --  -10.05525 -10.05366 -10.04436 -10.04410 -10.03213
 Alpha  occ. eigenvalues --  -10.02995 -10.02729 -10.02628 -10.02231 -10.02081
 Alpha  occ. eigenvalues --  -10.01414 -10.01347 -10.01217 -10.01154 -10.01065
 Alpha  occ. eigenvalues --  -10.00881  -0.72426  -0.68406  -0.67594  -0.65053
 Alpha  occ. eigenvalues --   -0.61556  -0.58794  -0.58208  -0.57129  -0.54459
 Alpha  occ. eigenvalues --   -0.48576  -0.46864  -0.45593  -0.43952  -0.40594
 Alpha  occ. eigenvalues --   -0.36564  -0.35934  -0.34835  -0.33240  -0.32160
 Alpha  occ. eigenvalues --   -0.30664  -0.30043  -0.29763  -0.28984  -0.27869
 Alpha  occ. eigenvalues --   -0.27624  -0.27485  -0.26194  -0.25369  -0.24332
 Alpha  occ. eigenvalues --   -0.23788  -0.22763  -0.22588  -0.21480  -0.20411
 Alpha  occ. eigenvalues --   -0.18511  -0.18136  -0.17100  -0.14719  -0.11514
 Alpha  occ. eigenvalues --   -0.09982  -0.06578   0.05358
 Alpha virt. eigenvalues --    0.07935   0.08124   0.09312   0.10015   0.10165
 Alpha virt. eigenvalues --    0.10505   0.11151   0.11693   0.11843   0.12393
 Alpha virt. eigenvalues --    0.12722   0.12876   0.13538   0.13868   0.14192

  Beta  occ. eigenvalues --  -10.05549 -10.05381 -10.04417 -10.04390 -10.03295
  Beta  occ. eigenvalues --  -10.03054 -10.02671 -10.02497 -10.02191 -10.02013
  Beta  occ. eigenvalues --  -10.01399 -10.01108 -10.00936 -10.00852 -10.00802
  Beta  occ. eigenvalues --  -10.00742  -0.72129  -0.68180  -0.67242  -0.64818
  Beta  occ. eigenvalues --   -0.61201  -0.58586  -0.57876  -0.57084  -0.54205
  Beta  occ. eigenvalues --   -0.48259  -0.46531  -0.45435  -0.43725  -0.40362
  Beta  occ. eigenvalues --   -0.36336  -0.35681  -0.34692  -0.33151  -0.32108
  Beta  occ. eigenvalues --   -0.30561  -0.29843  -0.29588  -0.28908  -0.27704
  Beta  occ. eigenvalues --   -0.27566  -0.27335  -0.26043  -0.25225  -0.24068
  Beta  occ. eigenvalues --   -0.23474  -0.22657  -0.22315  -0.21326  -0.20295
  Beta  occ. eigenvalues --   -0.18119  -0.17319  -0.16968  -0.13730  -0.10513
  Beta  occ. eigenvalues --   -0.09333  -0.04888
  Beta virt. eigenvalues --    0.07883   0.08057   0.09248   0.09987   0.10101
  Beta virt. eigenvalues --    0.10242   0.10608   0.11120   0.11650   0.11791
  Beta virt. eigenvalues --    0.12608   0.12902   0.13164   0.13587   0.14026

 Mulliken charges and spin densities:
               1          2
     1  C   -0.749601  -0.008805
     2  C   -0.207696   0.135349
     3  C   -0.294871  -0.041504
     4  C    0.925036   0.171673
     5  C   -0.677836   0.113159
     6  C   -0.464519   0.067307
     7  C    0.458533   0.223015
     8  C    0.277116  -0.050647
     9  C   -0.203448   0.159594
    10  C   -0.363421   0.059411
    11  C   -0.601423   0.066471
    12  C   -0.608053   0.132847
    13  C    0.816292  -0.037153
    14  C    0.243010  -0.048628
    15  C   -0.701620   0.014807
    16  C   -0.710318   0.007525
    17  H    0.115064   0.007879
    18  H    0.113744   0.008782
    19  H    0.118019   0.005845
    20  H    0.123758  -0.002651
    21  H    0.096500   0.027681
    22  H    0.080857   0.001904
    23  H    0.084645  -0.003110
    24  H    0.007613  -0.015963
    25  H    0.104654  -0.000752
    26  H    0.105076  -0.000712
    27  H    0.032292  -0.002995
    28  H    0.149351   0.001682
    29  H    0.129298   0.000087
    30  H    0.103684   0.000694
    31  H    0.134798   0.000047
    32  H    0.138447  -0.002516
    33  H    0.096102   0.007189
    34  H    0.128919   0.002488
 Sum of Mulliken charges =  -1.00000   1.00000

 Dipole moment (field-independent basis, Debye):
    X=              1.6298    Y=             -1.0666    Z=              0.0496  Tot=              1.9485
 Quadrupole moment (field-independent basis, Debye-Ang):
   XX=           -130.7658   YY=           -118.7674   ZZ=           -111.7465
   XY=             -2.9262   XZ=              0.2013   YZ=             -1.0164

 Summary of Natural Population Analysis:

                                       Natural Population
                Natural  -----------------------------------------------
    Atom  No    Charge         Core      Valence    Rydberg      Total
 -----------------------------------------------------------------------
      C    1   -0.29750      0.99966     2.29342    0.00441     3.29750
      C    2   -0.06126      0.99954     2.05405    0.00767     3.06126
      C    3   -0.10432      0.99952     2.09576    0.00904     3.10432
      C    4    0.01420      0.99938     1.97487    0.01155     2.98580
      C    5   -0.07271      0.99947     2.06322    0.01002     3.07271
      C    6   -0.10136      0.99944     2.09320    0.00873     3.10136
      C    7    0.04179      0.99947     1.94459    0.01414     2.95821
      C    8   -0.03733      0.99943     2.02809    0.00981     3.03733
      C    9   -0.06026      0.99955     2.05294    0.00778     3.06026
      C   10   -0.10844      0.99957     2.09909    0.00978     3.10844
      C   11   -0.10007      0.99957     2.09085    0.00965     3.10007
      C   12   -0.06149      0.99954     2.05406    0.00789     3.06149
      C   13   -0.02982      0.99950     2.01988    0.01044     3.02982
      C   14   -0.11876      0.99961     2.11054    0.00861     3.11876
      C   15   -0.27421      0.99961     2.26991    0.00469     3.27421
      C   16   -0.27499      0.99960     2.27042    0.00497     3.27499
      H   17    0.09478      0.00000     0.40420    0.00102     0.40522
      H   18    0.09378      0.00000     0.40502    0.00120     0.40622
      H   19    0.09384      0.00000     0.40492    0.00125     0.40616
      H   20    0.08497      0.00000     0.41349    0.00155     0.41503
      H   21    0.09084      0.00000     0.40751    0.00165     0.40916
      H   22    0.08962      0.00000     0.40861    0.00177     0.41038
      H   23    0.08896      0.00000     0.41046    0.00059     0.41104
      H   24    0.08624      0.00000     0.41216    0.00160     0.41376
      H   25    0.08859      0.00000     0.41074    0.00067     0.41141
      H   26    0.08758      0.00000     0.41139    0.00103     0.41242
      H   27    0.09185      0.00000     0.40670    0.00145     0.40815
      H   28    0.08920      0.00000     0.40870    0.00211     0.41080
      H   29    0.09683      0.00000     0.40216    0.00101     0.40317
      H   30    0.08630      0.00000     0.41251    0.00119     0.41370
      H   31    0.09915      0.00000     0.39999    0.00086     0.40085
      H   32    0.09917      0.00000     0.39993    0.00090     0.40083
      H   33    0.08623      0.00000     0.41249    0.00128     0.41377
      H   34    0.09874      0.00000     0.40061    0.00065     0.40126
 =======================================================================
   * Total *    0.00013     15.99245    40.84649    0.16093    56.99987

 Normal termination of Gaussian 16 at Fri Dec 11 01:35:26 2020.
