 Gaussian 16, Revision A.03,

 -----------------------------------------------------------
 # opt freq B3LYP/6-31G(d) empiricaldispersion=gd3bj scf=xqc
 -----------------------------------------------------------

 -------------------------------
 CID_142904001_JID_6774_neutraal
 -------------------------------
 Symbolic Z-matrix:
 Charge =  0 Multiplicity = 1

 SCF Done:  E(RB3LYP) =  -767.834623354     A.U. after   15 cycles
 SCF Done:  E(RB3LYP) =  -767.838386019     A.U. after   13 cycles
 SCF Done:  E(RB3LYP) =  -767.834203595     A.U. after   15 cycles
 SCF Done:  E(RB3LYP) =  -767.838411621     A.U. after   13 cycles
 SCF Done:  E(RB3LYP) =  -767.839711442     A.U. after   12 cycles
 SCF Done:  E(RB3LYP) =  -767.839848927     A.U. after   13 cycles
 SCF Done:  E(RB3LYP) =  -767.840614297     A.U. after   12 cycles
 SCF Done:  E(RB3LYP) =  -767.840784785     A.U. after   12 cycles
 SCF Done:  E(RB3LYP) =  -767.841003541     A.U. after   12 cycles
 SCF Done:  E(RB3LYP) =  -767.841089667     A.U. after   12 cycles
 SCF Done:  E(RB3LYP) =  -767.841115572     A.U. after   10 cycles
 SCF Done:  E(RB3LYP) =  -767.841122372     A.U. after   10 cycles
 SCF Done:  E(RB3LYP) =  -767.841122956     A.U. after    8 cycles
 SCF Done:  E(RB3LYP) =  -767.841123509     A.U. after    8 cycles
 SCF Done:  E(RB3LYP) =  -767.841123769     A.U. after    8 cycles
 SCF Done:  E(RB3LYP) =  -767.841123894     A.U. after    7 cycles
 Optimization completed.
    -- Stationary point found.
 Normal termination of Gaussian 16 at Fri Dec 11 00:34:54 2020.

 --------------------------------------------------------------------
 #N Geom=AllCheck Guess=TCheck SCRF=Check GenChk RB3LYP/6-31G(d) Freq
 --------------------------------------------------------------------

 Structure from the checkpoint file:  "JID_6774.chk"
 -------------------------------
 CID_142904001_JID_6774_neutraal
 -------------------------------
 Charge =  0 Multiplicity = 1

 SCF Done:  E(RB3LYP) =  -767.841123893     A.U. after    1 cycles

  Exact polarizability: 167.626 -10.569 127.939  28.309 -10.053 133.169
 Approx polarizability: 234.856 -31.742 188.957  59.301 -32.865 217.975

                      1                      2                      3
                      A                      A                      A
 Frequencies --     29.2069                42.2158                50.1115
 Red. masses --      4.6753                 4.5797                 8.3898
 Frc consts  --      0.0023                 0.0048                 0.0124
 IR Inten    --      0.3895                 0.2943                 0.5253

                      4                      5                      6
                      A                      A                      A
 Frequencies --     61.6897                74.6393                91.4832
 Red. masses --      4.2770                 3.6475                 4.7986
 Frc consts  --      0.0096                 0.0120                 0.0237
 IR Inten    --      1.9380                 0.5508                 1.3080

                      7                      8                      9
                      A                      A                      A
 Frequencies --    109.6002               112.0132               154.9095
 Red. masses --      4.2182                 3.8182                 3.1742
 Frc consts  --      0.0299                 0.0282                 0.0449
 IR Inten    --      0.3623                 2.9512                 1.4985

                     10                     11                     12
                      A                      A                      A
 Frequencies --    173.9246               196.2481               211.6288
 Red. masses --      1.9757                 2.0327                 2.5153
 Frc consts  --      0.0352                 0.0461                 0.0664
 IR Inten    --      1.4680                 0.9417                 0.4204

                     13                     14                     15
                      A                      A                      A
 Frequencies --    230.5191               238.6928               252.8682
 Red. masses --      2.3575                 2.0698                 1.2910
 Frc consts  --      0.0738                 0.0695                 0.0486
 IR Inten    --      1.0468                 0.9425                 1.3376

                     16                     17                     18
                      A                      A                      A
 Frequencies --    266.0250               326.4505               360.7668
 Red. masses --      3.3544                 2.0141                 3.8072
 Frc consts  --      0.1399                 0.1265                 0.2920
 IR Inten    --      1.1988                 7.3852                 2.8653

                     19                     20                     21
                      A                      A                      A
 Frequencies --    388.2492               397.5647               429.4866
 Red. masses --      3.0468                 3.4960                 3.7284
 Frc consts  --      0.2706                 0.3256                 0.4052
 IR Inten    --      4.3447                 5.7782                 2.8056

                     22                     23                     24
                      A                      A                      A
 Frequencies --    455.8699               487.1239               515.9564
 Red. masses --      3.4104                 4.6712                 4.1539
 Frc consts  --      0.4176                 0.6531                 0.6515
 IR Inten    --      5.5760                 0.1899                25.1685

                     25                     26                     27
                      A                      A                      A
 Frequencies --    571.7450               635.2047               649.5695
 Red. masses --      1.7437                 2.1647                 2.7800
 Frc consts  --      0.3358                 0.5146                 0.6911
 IR Inten    --     54.4588                30.8996                17.7428

                     28                     29                     30
                      A                      A                      A
 Frequencies --    669.3368               693.7190               727.3433
 Red. masses --      3.0543                 1.9822                 3.0417
 Frc consts  --      0.8062                 0.5621                 0.9481
 IR Inten    --      3.1434                30.7105                10.1207

                     31                     32                     33
                      A                      A                      A
 Frequencies --    752.9595               799.5642               818.8265
 Red. masses --      3.6841                 1.5109                 3.8482
 Frc consts  --      1.2306                 0.5691                 1.5202
 IR Inten    --     62.1479                 5.2681                 3.1205

                     34                     35                     36
                      A                      A                      A
 Frequencies --    861.6231               884.4474               912.0007
 Red. masses --      2.0783                 1.4503                 1.5230
 Frc consts  --      0.9091                 0.6684                 0.7463
 IR Inten    --      2.8918                 0.7529                 1.3122

                     37                     38                     39
                      A                      A                      A
 Frequencies --    929.8661               938.4252               957.0118
 Red. masses --      1.4818                 2.4546                 1.9067
 Frc consts  --      0.7549                 1.2736                 1.0289
 IR Inten    --     40.1875                 3.8078                 9.3077

                     40                     41                     42
                      A                      A                      A
 Frequencies --    985.5777              1008.7542              1029.1296
 Red. masses --      2.0975                 2.0194                 1.1928
 Frc consts  --      1.2004                 1.2107                 0.7443
 IR Inten    --     28.6887                 5.9876                 7.0792

                     43                     44                     45
                      A                      A                      A
 Frequencies --   1042.3410              1064.2909              1080.4324
 Red. masses --      2.3229                 4.0131                 1.5802
 Frc consts  --      1.4870                 2.6783                 1.0868
 IR Inten    --     10.4042                67.8002                 4.5518

                     46                     47                     48
                      A                      A                      A
 Frequencies --   1123.7759              1136.9179              1153.9938
 Red. masses --      2.5305                 1.9766                 3.0871
 Frc consts  --      1.8828                 1.5053                 2.4222
 IR Inten    --     16.1269                33.8516               142.7884

                     49                     50                     51
                      A                      A                      A
 Frequencies --   1184.2125              1210.5250              1217.8550
 Red. masses --      1.5012                 1.8193                 1.8469
 Frc consts  --      1.2404                 1.5708                 1.6139
 IR Inten    --     58.8710                44.6908               127.0403

                     52                     53                     54
                      A                      A                      A
 Frequencies --   1247.0681              1307.3434              1323.1977
 Red. masses --      2.0648                 1.7760                 1.4839
 Frc consts  --      1.8919                 1.7884                 1.5307
 IR Inten    --     18.3408               201.9002                22.6511

                     55                     56                     57
                      A                      A                      A
 Frequencies --   1340.4548              1343.4520              1362.9697
 Red. masses --      1.3248                 1.1695                 1.4177
 Frc consts  --      1.4025                 1.2436                 1.5517
 IR Inten    --      1.6920                23.9529                38.1856

                     58                     59                     60
                      A                      A                      A
 Frequencies --   1380.2694              1418.2077              1422.7274
 Red. masses --      2.1947                 1.3945                 1.3699
 Frc consts  --      2.4635                 1.6525                 1.6338
 IR Inten    --     50.8708                 3.6481                11.9817

                     61                     62                     63
                      A                      A                      A
 Frequencies --   1438.2995              1446.3426              1480.9289
 Red. masses --      1.5200                 1.3233                 1.3356
 Frc consts  --      1.8526                 1.6310                 1.7258
 IR Inten    --     28.5202                 9.4267                10.3754

                     64                     65                     66
                      A                      A                      A
 Frequencies --   1491.7089              1510.9958              1517.8553
 Red. masses --      1.1107                 1.0755                 1.0496
 Frc consts  --      1.4562                 1.4467                 1.4247
 IR Inten    --      5.6592                16.1202                11.9916

                     67                     68                     69
                      A                      A                      A
 Frequencies --   1520.7619              1525.9154              1540.6484
 Red. masses --      1.0838                 1.0568                 1.0571
 Frc consts  --      1.4767                 1.4497                 1.4784
 IR Inten    --      5.3103                 4.9489                15.9086

                     70                     71                     72
                      A                      A                      A
 Frequencies --   1669.3260              1700.4442              1726.8329
 Red. masses --      5.3765                 5.8176                 5.6425
 Frc consts  --      8.8275                 9.9110                 9.9134
 IR Inten    --     11.2183                11.4464                 1.2611

                     73                     74                     75
                      A                      A                      A
 Frequencies --   1808.8970              1817.0246              3043.6171
 Red. masses --     10.0230                10.3403                 1.0400
 Frc consts  --     19.3230                20.1143                 5.6764
 IR Inten    --     37.9871               405.5012                 6.3090

                     76                     77                     78
                      A                      A                      A
 Frequencies --   3062.5100              3075.1822              3097.8040
 Red. masses --      1.0362                 1.0581                 1.0590
 Frc consts  --      5.7257                 5.8952                 5.9874
 IR Inten    --     13.9725                11.0787                30.3265

                     79                     80                     81
                      A                      A                      A
 Frequencies --   3106.9100              3121.2575              3133.6928
 Red. masses --      1.0949                 1.1051                 1.0987
 Frc consts  --      6.2273                 6.3434                 6.3568
 IR Inten    --     15.3424                 9.7140                38.3874

                     82                     83                     84
                      A                      A                      A
 Frequencies --   3136.2116              3140.0471              3150.2879
 Red. masses --      1.1026                 1.1062                 1.0879
 Frc consts  --      6.3898                 6.4263                 6.3613
 IR Inten    --     10.9853                 0.1701                11.9742

                     85                     86                     87
                      A                      A                      A
 Frequencies --   3161.9452              3163.6187              3191.3130
 Red. masses --      1.1085                 1.0600                 1.0907
 Frc consts  --      6.5299                 6.2509                 6.5449
 IR Inten    --     21.0817                13.3526                 7.8786

                     88                     89                     90
                      A                      A                      A
 Frequencies --   3209.9027              3248.8880              3705.5116
 Red. masses --      1.0891                 1.1153                 1.0643
 Frc consts  --      6.6118                 6.9361                 8.6102
 IR Inten    --      2.5973                16.1455                61.5474

 - Thermochemistry -
 -------------------
 Temperature   298.150 Kelvin.  Pressure   1.00000 Atm.
 Atom     1 has atomic number  6 and mass  12.00000

 Molecular mass:   224.10486 amu.
 Principal axes and moments of inertia in atomic units:
                           1         2         3
     Eigenvalues --  2761.058224533.641014772.38252
           X            0.99934   0.03563   0.00693
           Y           -0.03458   0.99253  -0.11699
           Z           -0.01104   0.11667   0.99311
 This molecule is an asymmetric top.
 Rotational symmetry number  1.
 Warning -- assumption of classical behavior for rotation
           may cause significant error
 Rotational temperatures (Kelvin)      0.03137     0.01910     0.01815
 Rotational constants (GHZ):           0.65364     0.39808     0.37816
 Zero-point vibrational energy     692560.4 (Joules/Mol)
                                  165.52592 (Kcal/Mol)
 Warning -- explicit consideration of  25 degrees of freedom as
           vibrations may cause significant error
 Vibrational temperatures:     42.02    60.74    72.10    88.76   107.39
          (Kelvin)            131.62   157.69   161.16   222.88   250.24
                              282.36   304.49   331.67   343.43   363.82
                              382.75   469.69   519.06   558.60   572.01
                              617.94   655.90   700.86   742.35   822.61
                              913.92   934.59   963.03   998.11  1046.48
                             1083.34  1150.39  1178.11  1239.68  1272.52
                             1312.17  1337.87  1350.18  1376.93  1418.03
                             1451.37  1480.69  1499.70  1531.28  1554.50
                             1616.86  1635.77  1660.34  1703.82  1741.68
                             1752.22  1794.25  1880.98  1903.79  1928.62
                             1932.93  1961.01  1985.90  2040.48  2046.99
                             2069.39  2080.96  2130.73  2146.24  2173.99
                             2183.86  2188.04  2195.45  2216.65  2401.79
                             2446.56  2484.53  2602.60  2614.29  4379.09
                             4406.27  4424.50  4457.05  4470.15  4490.79
                             4508.69  4512.31  4517.83  4532.56  4549.33
                             4551.74  4591.59  4618.33  4674.43  5331.40

 Zero-point correction=                           0.263782 (Hartree/Particle)
 Thermal correction to Energy=                    0.281419
 Thermal correction to Enthalpy=                  0.282363
 Thermal correction to Gibbs Free Energy=         0.217129
 Sum of electronic and zero-point Energies=           -767.577342
 Sum of electronic and thermal Energies=              -767.559705
 Sum of electronic and thermal Enthalpies=            -767.558761
 Sum of electronic and thermal Free Energies=         -767.623995

                     E (Thermal)             CV                S
                      KCal/Mol        Cal/Mol-Kelvin    Cal/Mol-Kelvin
 Total                  176.593             63.364            137.296
 Electronic               0.000              0.000              0.000
 Translational            0.889              2.981             42.123
 Rotational               0.889              2.981             32.457
 Vibrational            174.816             57.402             62.716
 Vibration     1          0.593              1.984              5.883
 Vibration     2          0.595              1.980              5.152
 Vibration     3          0.595              1.978              4.813
 Vibration     4          0.597              1.973              4.402
 Vibration     5          0.599              1.966              4.027
 Vibration     6          0.602              1.955              3.628
 Vibration     7          0.606              1.942              3.276
 Vibration     8          0.607              1.940              3.234
 Vibration     9          0.620              1.897              2.611
 Vibration    10          0.627              1.875              2.393
 Vibration    11          0.636              1.845              2.168
 Vibration    12          0.643              1.823              2.030
 Vibration    13          0.652              1.794              1.875
 Vibration    14          0.657              1.781              1.813
 Vibration    15          0.664              1.758              1.710
 Vibration    16          0.672              1.735              1.622
 Vibration    17          0.710              1.623              1.278
 Vibration    18          0.735              1.553              1.119
 Vibration    19          0.756              1.495              1.007
 Vibration    20          0.764              1.475              0.972
 Vibration    21          0.791              1.406              0.860
 Vibration    22          0.814              1.348              0.778
 Vibration    23          0.843              1.279              0.691
 Vibration    24          0.871              1.215              0.619
 Vibration    25          0.928              1.092              0.501

                           ! Non-Optimized Parameters !
 Normal termination of Gaussian 16 at Fri Dec 11 00:47:21 2020.

 ----------------------------------------------------------------------
 # B3LYP/6-311++G(d,p) empiricaldispersion=gd3bj scf=xqc pop=npa geom=c
 heck
 ----------------------------------------------------------------------

 ---------------------------------------
 CID_142904001_JID_6774_Energie_neutraal
 ---------------------------------------
 Structure from the checkpoint file:  "JID_6774.chk"
 Charge =  0 Multiplicity = 1

 SCF Done:  E(RB3LYP) =  -768.071825268     A.U. after   16 cycles
 Normal termination of Gaussian 16 at Fri Dec 11 00:53:25 2020.

 ----------------------------------------------------------------------
 # B3LYP/6-311++G(d,p) empiricaldispersion=gd3bj scf=xqc pop=npa geom=c
 heck
 ----------------------------------------------------------------------

 -------------------------------------
 CID_142904001_JID_6774_Energie_kation
 -------------------------------------
 Structure from the checkpoint file:  "JID_6774.chk"
 Charge =  1 Multiplicity = 2

 SCF Done:  E(UB3LYP) =  -767.773037793     A.U. after   23 cycles
 Normal termination of Gaussian 16 at Fri Dec 11 01:05:51 2020.
 Gaussian 16:  ES64L-G16RevA.03 25-Dec-2016

 ----------------------------------------------------------------------
 # B3LYP/6-311++G(d,p) empiricaldispersion=gd3bj scf=xqc pop=npa geom=c
 heck
 ----------------------------------------------------------------------

 ------------------------------------
 CID_142904001_JID_6774_Energie_anion
 ------------------------------------
 Structure from the checkpoint file:  "JID_6774.chk"
 Charge = -1 Multiplicity = 2

                         Standard orientation:
 ---------------------------------------------------------------------
 Center     Atomic      Atomic             Coordinates (Angstroms)
 Number     Number       Type             X           Y           Z
 ---------------------------------------------------------------------
      1          6           0        2.872831    1.645190   -0.175608
      2          6           0        3.038619    0.615891   -1.281681
      3          8           0        1.791656   -0.082608   -1.510503
      4          6           0        1.550883   -1.158389   -0.738094
      5          8           0        2.336141   -1.618646    0.065203
      6          6           0        0.148082   -1.686310   -0.974630
      7          6           0       -0.909454   -0.746710   -0.411801
      8          6           0       -2.069711   -0.560601   -1.070185
      9          6           0       -3.189122    0.247425   -0.620763
     10          6           0       -4.325933    0.383215   -1.318579
     11          6           0       -0.575265   -0.059643    0.869176
     12          6           0       -0.289893   -0.717592    2.010396
     13          6           0       -0.345227   -2.199853    2.199149
     14          6           0       -0.444648    1.422726    0.818146
     15          8           0       -0.652793    2.115040   -0.157827
     16          8           0       -0.041754    1.972161    1.999197
     17          1           0        2.067142    2.342139   -0.423103
     18          1           0        3.803255    2.209741   -0.046769
     19          1           0        2.634046    1.153810    0.772127
     20          1           0        3.266064    1.087868   -2.239971
     21          1           0        3.813295   -0.115069   -1.039770
     22          1           0       -0.017888   -1.817465   -2.048354
     23          1           0        0.103798   -2.670396   -0.498061
     24          1           0       -2.206623   -1.071301   -2.023396
     25          1           0       -3.087609    0.751798    0.336642
     26          1           0       -5.149328    0.990950   -0.956819
     27          1           0       -4.464885   -0.106695   -2.279748
     28          1           0        0.025659   -0.129413    2.866933
     29          1           0        0.650666   -2.628588    2.021627
     30          1           0       -0.636376   -2.452289    3.223928
     31          1           0       -1.047828   -2.673940    1.507810
     32          1           0        0.013642    2.929176    1.825224
 ---------------------------------------------------------------------

 SCF Done:  E(UB3LYP) =  -768.080889892     A.U. after   29 cycles

 The electronic state is 2-A.
 Alpha  occ. eigenvalues --  -19.04765 -19.02075 -18.99053 -18.94481 -10.17809
 Alpha  occ. eigenvalues --  -10.13436 -10.12097 -10.05647 -10.05508 -10.03570
 Alpha  occ. eigenvalues --  -10.03180 -10.02945 -10.01939 -10.01796 -10.01781
 Alpha  occ. eigenvalues --  -10.00958  -0.98780  -0.95564  -0.90057  -0.85970
 Alpha  occ. eigenvalues --   -0.69801  -0.66625  -0.64665  -0.62699  -0.58266
 Alpha  occ. eigenvalues --   -0.56195  -0.53402  -0.47686  -0.45865  -0.44451
 Alpha  occ. eigenvalues --   -0.43049  -0.38813  -0.37428  -0.37183  -0.35358
 Alpha  occ. eigenvalues --   -0.35339  -0.33260  -0.32497  -0.31992  -0.30418
 Alpha  occ. eigenvalues --   -0.30244  -0.29417  -0.27937  -0.27628  -0.27473
 Alpha  occ. eigenvalues --   -0.27000  -0.26123  -0.25104  -0.24558  -0.23627
 Alpha  occ. eigenvalues --   -0.23005  -0.21869  -0.19368  -0.19030  -0.18002
 Alpha  occ. eigenvalues --   -0.17560  -0.15875  -0.12410  -0.12046  -0.08541
 Alpha  occ. eigenvalues --    0.04661
 Alpha virt. eigenvalues --    0.07703   0.09208   0.09325   0.09900   0.10276
 Alpha virt. eigenvalues --    0.10403   0.10898   0.11331   0.11963   0.12291
 Alpha virt. eigenvalues --    0.12826   0.13309   0.13999   0.14402   0.15119

  Beta  occ. eigenvalues --  -19.04745 -19.02068 -18.99053 -18.94250 -10.17772
  Beta  occ. eigenvalues --  -10.13268 -10.12097 -10.05658 -10.05501 -10.03437
  Beta  occ. eigenvalues --  -10.03182 -10.02990 -10.01807 -10.01758 -10.01646
  Beta  occ. eigenvalues --  -10.00397  -0.98742  -0.95404  -0.90040  -0.85657
  Beta  occ. eigenvalues --   -0.69492  -0.66521  -0.64212  -0.62427  -0.58024
  Beta  occ. eigenvalues --   -0.55980  -0.53313  -0.47392  -0.45379  -0.44201
  Beta  occ. eigenvalues --   -0.42753  -0.38719  -0.37366  -0.36987  -0.35255
  Beta  occ. eigenvalues --   -0.35149  -0.33011  -0.32420  -0.31758  -0.30129
  Beta  occ. eigenvalues --   -0.30090  -0.29112  -0.27688  -0.27410  -0.27171
  Beta  occ. eigenvalues --   -0.26873  -0.26016  -0.24959  -0.24395  -0.23461
  Beta  occ. eigenvalues --   -0.22958  -0.21703  -0.19171  -0.18953  -0.17276
  Beta  occ. eigenvalues --   -0.16822  -0.15847  -0.12181  -0.10443  -0.07239
  Beta virt. eigenvalues --    0.07596   0.08989   0.09258   0.09850   0.10211
  Beta virt. eigenvalues --    0.10385   0.10778   0.11130   0.11958   0.12371
  Beta virt. eigenvalues --    0.12509   0.12758   0.13376   0.13966   0.14356

 Mulliken charges and spin densities:
               1          2
     1  C   -0.466434  -0.103992
     2  C   -0.074638   0.029585
     3  O    0.078944   0.003179
     4  C   -0.207880  -0.018321
     5  O   -0.227315   0.004360
     6  C   -0.337866   0.004543
     7  C    0.700865   0.016434
     8  C   -0.246371   0.121363
     9  C    0.225025  -0.030176
    10  C   -0.781134   0.194746
    11  C   -0.171988  -0.003727
    12  C    0.217253   0.415934
    13  C   -0.844595  -0.031727
    14  C   -0.675814   0.092508
    15  O   -0.272884   0.078814
    16  O   -0.120608   0.000118
    17  H    0.177652   0.021073
    18  H    0.054261   0.051447
    19  H    0.178251   0.036001
    20  H    0.137181   0.007515
    21  H    0.147740  -0.002790
    22  H    0.146196   0.002663
    23  H    0.131816   0.068846
    24  H    0.089113  -0.010530
    25  H    0.159850   0.003670
    26  H    0.108570  -0.008475
    27  H    0.069386  -0.007692
    28  H    0.173521  -0.007404
    29  H    0.163715   0.038948
    30  H    0.111956   0.008533
    31  H    0.126846   0.001235
    32  H    0.229385   0.023317
 Sum of Mulliken charges =  -1.00000   1.00000

 Dipole moment (field-independent basis, Debye):
    X=              4.0095    Y=              0.0384    Z=             -0.8657  Tot=              4.1021
 Quadrupole moment (field-independent basis, Debye-Ang):
   XX=           -129.5847   YY=           -114.3529   ZZ=           -111.6948
   XY=              7.6916   XZ=             -8.1178   YZ=              7.0069

 Summary of Natural Population Analysis:

                                       Natural Population
                Natural  -----------------------------------------------
    Atom  No    Charge         Core      Valence    Rydberg      Total
 -----------------------------------------------------------------------
      C    1   -0.30388      0.99966     2.29920    0.00502     3.30388
      C    2   -0.01532      0.99959     2.00639    0.00935     3.01532
      O    3   -0.27727      0.99985     3.26886    0.00856     4.27727
      C    4    0.41828      0.99970     1.55357    0.02846     2.58172
      O    5   -0.31526      0.99987     3.30972    0.00568     4.31526
      C    6   -0.24067      0.99955     2.23173    0.00939     3.24067
      C    7    0.02478      0.99947     1.96291    0.01284     2.97522
      C    8   -0.08165      0.99944     2.07351    0.00870     3.08165
      C    9   -0.09241      0.99956     2.08401    0.00884     3.09241
      C   10   -0.17095      0.99960     2.16372    0.00763     3.17095
      C   11   -0.12711      0.99937     2.11383    0.01391     3.12711
      C   12    0.07239      0.99951     1.91906    0.00903     2.92761
      C   13   -0.31502      0.99966     2.31085    0.00451     3.31502
      C   14    0.40695      0.99964     1.56537    0.02804     2.59305
      O   15   -0.30211      0.99987     3.29620    0.00604     4.30211
      O   16   -0.36184      0.99988     3.35567    0.00630     4.36184
      H   17    0.11072      0.00000     0.38765    0.00163     0.38928
      H   18    0.09228      0.00000     0.40668    0.00105     0.40772
      H   19    0.11118      0.00000     0.38720    0.00161     0.38882
      H   20    0.08380      0.00000     0.41519    0.00101     0.41620
      H   21    0.09127      0.00000     0.40743    0.00130     0.40873
      H   22    0.10761      0.00000     0.39138    0.00100     0.39239
      H   23    0.11008      0.00000     0.38843    0.00149     0.38992
      H   24    0.08147      0.00000     0.41689    0.00163     0.41853
      H   25    0.09756      0.00000     0.40113    0.00131     0.40244
      H   26    0.08316      0.00000     0.41583    0.00101     0.41684
      H   27    0.07946      0.00000     0.41935    0.00119     0.42054
      H   28    0.09024      0.00000     0.40875    0.00101     0.40976
      H   29    0.11480      0.00000     0.38411    0.00109     0.38520
      H   30    0.09592      0.00000     0.40325    0.00083     0.40408
      H   31    0.09993      0.00000     0.39916    0.00091     0.40007
      H   32    0.23159      0.00000     0.26467    0.00374     0.26841
 =======================================================================
   * Total *    0.00000     15.99421    43.81169    0.19411    60.00000

 Normal termination of Gaussian 16 at Fri Dec 11 01:21:11 2020.
