 Gaussian 16, Revision A.03,

 -----------------------------------------------------------
 # opt freq B3LYP/6-31G(d) empiricaldispersion=gd3bj scf=xqc
 -----------------------------------------------------------

 -------------------------------
 CID_80956570_JID_10740_neutraal
 -------------------------------
 Symbolic Z-matrix:
 Charge =  0 Multiplicity = 1

 SCF Done:  E(RB3LYP) =  -1200.88241723     A.U. after   14 cycles
 SCF Done:  E(RB3LYP) =  -1200.89027195     A.U. after   12 cycles
 SCF Done:  E(RB3LYP) =  -1200.89380960     A.U. after   12 cycles
 SCF Done:  E(RB3LYP) =  -1200.89686108     A.U. after   14 cycles
 SCF Done:  E(RB3LYP) =  -1200.89867783     A.U. after   12 cycles
 SCF Done:  E(RB3LYP) =  -1200.90122560     A.U. after   14 cycles
 SCF Done:  E(RB3LYP) =  -1200.90348727     A.U. after   12 cycles
 SCF Done:  E(RB3LYP) =  -1200.90523170     A.U. after   13 cycles
 SCF Done:  E(RB3LYP) =  -1200.90561468     A.U. after   12 cycles
 SCF Done:  E(RB3LYP) =  -1200.90575407     A.U. after   11 cycles
 SCF Done:  E(RB3LYP) =  -1200.90584750     A.U. after    8 cycles
 SCF Done:  E(RB3LYP) =  -1200.90584819     A.U. after    8 cycles
 SCF Done:  E(RB3LYP) =  -1200.90584857     A.U. after    7 cycles
 SCF Done:  E(RB3LYP) =  -1200.90584871     A.U. after    7 cycles
 SCF Done:  E(RB3LYP) =  -1200.90584873     A.U. after    7 cycles
 Optimization completed.
    -- Stationary point found.
 Normal termination of Gaussian 16 at Mon Dec 14 17:56:58 2020.

 --------------------------------------------------------------------
 #N Geom=AllCheck Guess=TCheck SCRF=Check GenChk RB3LYP/6-31G(d) Freq
 --------------------------------------------------------------------

 Structure from the checkpoint file:  "JID_10740.chk"
 -------------------------------
 CID_80956570_JID_10740_neutraal
 -------------------------------
 Charge =  0 Multiplicity = 1

 SCF Done:  E(RB3LYP) =  -1200.90584873     A.U. after    1 cycles

  Exact polarizability: 228.290  -4.804 236.714  25.194  -4.838 129.315
 Approx polarizability: 333.783 -14.629 347.061  57.896 -14.110 210.471

                      1                      2                      3
                      A                      A                      A
 Frequencies --     19.3530                22.7727                30.3752
 Red. masses --      5.6700                 4.5358                 5.5120
 Frc consts  --      0.0013                 0.0014                 0.0030
 IR Inten    --      0.1165                 0.3293                 0.0816

                      4                      5                      6
                      A                      A                      A
 Frequencies --     43.6049                62.9210                79.7843
 Red. masses --      3.7362                 2.2686                 4.9207
 Frc consts  --      0.0042                 0.0053                 0.0185
 IR Inten    --      1.6606                 1.0530                 0.3944

                      7                      8                      9
                      A                      A                      A
 Frequencies --     83.0270                91.7404               112.1923
 Red. masses --      2.2685                 4.5574                 3.7382
 Frc consts  --      0.0092                 0.0226                 0.0277
 IR Inten    --      5.4922                 0.9930                 0.8421

                     10                     11                     12
                      A                      A                      A
 Frequencies --    146.0410               162.3872               176.5458
 Red. masses --      3.1140                 3.6898                 4.5571
 Frc consts  --      0.0391                 0.0573                 0.0837
 IR Inten    --      1.5181                 0.7931                 0.3844

                     13                     14                     15
                      A                      A                      A
 Frequencies --    227.9340               255.7230               269.0805
 Red. masses --      5.5277                 3.1210                 1.2881
 Frc consts  --      0.1692                 0.1202                 0.0549
 IR Inten    --      3.8349                 6.0773                 5.0071

                     16                     17                     18
                      A                      A                      A
 Frequencies --    284.3680               306.8667               328.3444
 Red. masses --      3.7047                 3.5296                 3.3389
 Frc consts  --      0.1765                 0.1958                 0.2121
 IR Inten    --      4.9436                 1.7968                 0.9457

                     19                     20                     21
                      A                      A                      A
 Frequencies --    338.4559               340.8422               413.7470
 Red. masses --      2.4630                 3.1812                 2.5804
 Frc consts  --      0.1662                 0.2177                 0.2603
 IR Inten    --      0.0710                 1.4658                11.2339

                     22                     23                     24
                      A                      A                      A
 Frequencies --    447.5905               481.5919               514.1060
 Red. masses --      1.2341                 3.7639                 3.7476
 Frc consts  --      0.1457                 0.5143                 0.5836
 IR Inten    --    109.0714                 4.0236                 6.4719

                     25                     26                     27
                      A                      A                      A
 Frequencies --    523.4410               540.8389               567.4750
 Red. masses --      4.2461                 2.8316                 3.1976
 Frc consts  --      0.6855                 0.4880                 0.6067
 IR Inten    --     22.1154                67.9042                19.8230

                     28                     29                     30
                      A                      A                      A
 Frequencies --    602.5317               620.4710               650.2757
 Red. masses --      2.0692                 3.1232                 3.8014
 Frc consts  --      0.4426                 0.7084                 0.9471
 IR Inten    --     29.9552                 1.1403                 8.1815

                     31                     32                     33
                      A                      A                      A
 Frequencies --    658.9184               691.8713               702.9173
 Red. masses --      4.3394                 2.6152                 1.2974
 Frc consts  --      1.1101                 0.7376                 0.3777
 IR Inten    --      3.9283                 2.3139                72.4562

                     34                     35                     36
                      A                      A                      A
 Frequencies --    705.1564               720.0606               749.1333
 Red. masses --      6.5734                 2.9022                 6.8182
 Frc consts  --      1.9258                 0.8866                 2.2544
 IR Inten    --      5.2916                 5.5566                 0.3414

                     37                     38                     39
                      A                      A                      A
 Frequencies --    770.6789               801.6864               810.1575
 Red. masses --      1.6583                 1.0657                 4.3860
 Frc consts  --      0.5803                 0.4036                 1.6961
 IR Inten    --     16.5138                 1.9885                40.0466

                     40                     41                     42
                      A                      A                      A
 Frequencies --    834.9197               836.8616               837.9601
 Red. masses --      1.1613                 1.2799                 2.0071
 Frc consts  --      0.4770                 0.5281                 0.8304
 IR Inten    --      3.1981                 3.9859                14.3024

                     43                     44                     45
                      A                      A                      A
 Frequencies --    861.0096               876.4831               896.4038
 Red. masses --      3.9652                 2.1108                 2.6683
 Frc consts  --      1.7319                 0.9554                 1.2633
 IR Inten    --     21.3597                14.0116                 7.6306

                     46                     47                     48
                      A                      A                      A
 Frequencies --    910.5163               924.2039               938.0484
 Red. masses --      1.3392                 2.6160                 2.0245
 Frc consts  --      0.6541                 1.3165                 1.0496
 IR Inten    --      1.5989                 0.4862                 5.6118

                     49                     50                     51
                      A                      A                      A
 Frequencies --    944.8368               995.6456              1007.0256
 Red. masses --      2.4893                 7.3433                 2.5628
 Frc consts  --      1.3093                 4.2889                 1.5313
 IR Inten    --     25.7561                 0.2986                21.6177

                     52                     53                     54
                      A                      A                      A
 Frequencies --   1032.6285              1041.1971              1068.7939
 Red. masses --      3.4859                 2.0897                 1.2914
 Frc consts  --      2.1901                 1.3348                 0.8692
 IR Inten    --     18.0910                 4.5383                15.8374

                     55                     56                     57
                      A                      A                      A
 Frequencies --   1079.8736              1089.1406              1091.7640
 Red. masses --      1.5383                 1.3437                 2.1694
 Frc consts  --      1.0569                 0.9391                 1.5235
 IR Inten    --      1.7139                 2.8659                10.1577

                     58                     59                     60
                      A                      A                      A
 Frequencies --   1112.3602              1123.5404              1143.0489
 Red. masses --      1.2884                 2.0146                 1.6637
 Frc consts  --      0.9393                 1.4984                 1.2808
 IR Inten    --      6.4717                15.9754                 4.5538

                     61                     62                     63
                      A                      A                      A
 Frequencies --   1143.9173              1170.2801              1182.0609
 Red. masses --      1.1999                 2.5766                 1.5127
 Frc consts  --      0.9251                 2.0791                 1.2453
 IR Inten    --      3.2386                24.5431                 7.9153

                     64                     65                     66
                      A                      A                      A
 Frequencies --   1207.0988              1219.8392              1231.8612
 Red. masses --      3.0245                 1.3694                 2.0108
 Frc consts  --      2.5965                 1.2006                 1.7978
 IR Inten    --     31.6465                 0.4875                10.5933

                     67                     68                     69
                      A                      A                      A
 Frequencies --   1234.3376              1253.3896              1280.0863
 Red. masses --      1.4832                 1.5776                 1.6483
 Frc consts  --      1.3314                 1.4602                 1.5913
 IR Inten    --      1.2601                87.4034               106.7392

                     70                     71                     72
                      A                      A                      A
 Frequencies --   1298.4276              1303.1748              1312.5770
 Red. masses --      1.4278                 1.7693                 1.1921
 Frc consts  --      1.4182                 1.7703                 1.2101
 IR Inten    --     18.1338                11.9244                14.4411

                     73                     74                     75
                      A                      A                      A
 Frequencies --   1343.9888              1368.0488              1394.7134
 Red. masses --      2.4058                 1.3711                 1.5512
 Frc consts  --      2.5603                 1.5119                 1.7778
 IR Inten    --     42.0851                 1.7722                62.4421

                     76                     77                     78
                      A                      A                      A
 Frequencies --   1402.0504              1407.8467              1441.9665
 Red. masses --      1.6584                 1.6265                 1.3432
 Frc consts  --      1.9207                 1.8994                 1.6456
 IR Inten    --     19.9538                16.6941                13.8531

                     79                     80                     81
                      A                      A                      A
 Frequencies --   1451.0186              1454.9510              1478.2943
 Red. masses --      2.7800                 1.7895                 1.0901
 Frc consts  --      3.4486                 2.2320                 1.4036
 IR Inten    --     87.7345                59.3363                 1.6641

                     82                     83                     84
                      A                      A                      A
 Frequencies --   1485.8651              1501.4324              1504.0975
 Red. masses --      1.7555                 2.5407                 1.8517
 Frc consts  --      2.2836                 3.3745                 2.4681
 IR Inten    --     17.1660                46.7832                42.7038

                     85                     86                     87
                      A                      A                      A
 Frequencies --   1514.1454              1517.7677              1523.7824
 Red. masses --      1.2646                 1.3533                 1.0470
 Frc consts  --      1.7081                 1.8367                 1.4323
 IR Inten    --     31.6626                 6.2153                 6.4035

                     88                     89                     90
                      A                      A                      A
 Frequencies --   1532.7953              1547.9685              1559.1166
 Red. masses --      1.0693                 2.5727                 1.1105
 Frc consts  --      1.4802                 3.6321                 1.5905
 IR Inten    --     17.5995               199.5973                74.0317

                     91                     92                     93
                      A                      A                      A
 Frequencies --   1588.8039              1601.6559              1631.2575
 Red. masses --      3.1874                 5.2767                 3.8923
 Frc consts  --      4.7406                 7.9753                 6.1025
 IR Inten    --    217.8442                 0.7160               168.4485

                     94                     95                     96
                      A                      A                      A
 Frequencies --   1648.8531              2990.0055              3044.1319
 Red. masses --      5.5116                 1.0707                 1.0902
 Frc consts  --      8.8285                 5.6396                 5.9524
 IR Inten    --    955.4682                44.8047                23.6404

                     97                     98                     99
                      A                      A                      A
 Frequencies --   3054.8937              3060.7519              3080.7808
 Red. masses --      1.0383                 1.0631                 1.0668
 Frc consts  --      5.7088                 5.8680                 5.9659
 IR Inten    --     26.7062                21.1544                32.4597

                    100                    101                    102
                      A                      A                      A
 Frequencies --   3115.2931              3121.2712              3137.6476
 Red. masses --      1.0984                 1.1020                 1.1024
 Frc consts  --      6.2807                 6.3254                 6.3943
 IR Inten    --     20.0752                33.8685                23.6549

                    103                    104                    105
                      A                      A                      A
 Frequencies --   3150.4124              3152.8502              3155.3532
 Red. masses --      1.1014                 1.0508                 1.0577
 Frc consts  --      6.4404                 6.1545                 6.2044
 IR Inten    --     11.2280                20.8554                18.0618

                    106                    107                    108
                      A                      A                      A
 Frequencies --   3206.4485              3210.7680              3219.8714
 Red. masses --      1.0909                 1.0893                 1.0909
 Frc consts  --      6.6081                 6.6160                 6.6635
 IR Inten    --      5.2655                 6.8903                 9.2234

                    109                    110                    111
                      A                      A                      A
 Frequencies --   3225.6416              3235.9698              3249.1614
 Red. masses --      1.0948                 1.1191                 1.1158
 Frc consts  --      6.7117                 6.9045                 6.9405
 IR Inten    --      6.2211                 0.4998                19.8070

                    112                    113                    114
                      A                      A                      A
 Frequencies --   3271.6709              3598.1844              3607.8590
 Red. masses --      1.0969                 1.0756                 1.0762
 Frc consts  --      6.9177                 8.2045                 8.2536
 IR Inten    --      1.3508                15.9367                36.7777

 - Thermochemistry -
 -------------------
 Temperature   298.150 Kelvin.  Pressure   1.00000 Atm.
 Atom     1 has atomic number  6 and mass  12.00000

 Molecular mass:   288.14087 amu.
 Principal axes and moments of inertia in atomic units:
                           1         2         3
     Eigenvalues --  5113.196989118.58117**********
           X            0.99965  -0.02615   0.00395
           Y            0.02614   0.99966   0.00127
           Z           -0.00399  -0.00116   0.99999
 This molecule is an asymmetric top.
 Rotational symmetry number  1.
 Warning -- assumption of classical behavior for rotation
           may cause significant error
 Rotational temperatures (Kelvin)      0.01694     0.00950     0.00664
 Rotational constants (GHZ):           0.35296     0.19792     0.13837
 Zero-point vibrational energy     883009.8 (Joules/Mol)
                                  211.04440 (Kcal/Mol)
 Warning -- explicit consideration of  29 degrees of freedom as
           vibrations may cause significant error
 Vibrational temperatures:     27.84    32.76    43.70    62.74    90.53
          (Kelvin)            114.79   119.46   131.99   161.42   210.12
                              233.64   254.01   327.95   367.93   387.15
                              409.14   441.51   472.41   486.96   490.40
                              595.29   643.98   692.90   739.68   753.11
                              778.15   816.47   866.91   892.72   935.60
                              948.04   995.45  1011.34  1014.56  1036.01
                             1077.84  1108.84  1153.45  1165.64  1201.26
                             1204.06  1205.64  1238.80  1261.06  1289.73
                             1310.03  1329.72  1349.64  1359.41  1432.51
                             1448.89  1485.72  1498.05  1537.76  1553.70
                             1567.03  1570.80  1600.44  1616.52  1644.59
                             1645.84  1683.77  1700.72  1736.75  1755.08
                             1772.37  1775.94  1803.35  1841.76  1868.15
                             1874.98  1888.51  1933.70  1968.32  2006.68
                             2017.24  2025.58  2074.67  2087.69  2093.35
                             2126.94  2137.83  2160.23  2164.06  2178.52
                             2183.73  2192.38  2205.35  2227.18  2243.22
                             2285.93  2304.43  2347.02  2372.33  4301.95
                             4379.83  4395.31  4403.74  4432.56  4482.21
                             4490.81  4514.38  4532.74  4536.25  4539.85
                             4613.36  4619.58  4632.68  4640.98  4655.84
                             4674.82  4707.20  5176.98  5190.90

 Zero-point correction=                           0.336321 (Hartree/Particle)
 Thermal correction to Energy=                    0.355922
 Thermal correction to Enthalpy=                  0.356866
 Thermal correction to Gibbs Free Energy=         0.284973
 Sum of electronic and zero-point Energies=          -1200.569528
 Sum of electronic and thermal Energies=             -1200.549927
 Sum of electronic and thermal Enthalpies=           -1200.548983
 Sum of electronic and thermal Free Energies=        -1200.620876

                     E (Thermal)             CV                S
                      KCal/Mol        Cal/Mol-Kelvin    Cal/Mol-Kelvin
 Total                  223.344             73.993            151.313
 Electronic               0.000              0.000              0.000
 Translational            0.889              2.981             42.873
 Rotational               0.889              2.981             34.763
 Vibrational            221.567             68.032             73.677
 Vibration     1          0.593              1.986              6.699
 Vibration     2          0.593              1.985              6.376
 Vibration     3          0.594              1.984              5.805
 Vibration     4          0.595              1.980              5.088
 Vibration     5          0.597              1.972              4.363
 Vibration     6          0.600              1.963              3.896
 Vibration     7          0.600              1.961              3.818
 Vibration     8          0.602              1.955              3.623
 Vibration     9          0.607              1.939              3.231
 Vibration    10          0.617              1.907              2.723
 Vibration    11          0.622              1.889              2.522
 Vibration    12          0.628              1.871              2.365
 Vibration    13          0.651              1.798              1.895
 Vibration    14          0.666              1.753              1.691
 Vibration    15          0.673              1.730              1.602
 Vibration    16          0.683              1.703              1.507
 Vibration    17          0.697              1.661              1.379
 Vibration    18          0.712              1.619              1.268
 Vibration    19          0.719              1.599              1.219
 Vibration    20          0.720              1.594              1.208
 Vibration    21          0.777              1.440              0.913
 Vibration    22          0.807              1.366              0.803
 Vibration    23          0.838              1.291              0.706
 Vibration    24          0.869              1.219              0.624
 Vibration    25          0.878              1.198              0.602
 Vibration    26          0.896              1.160              0.563
 Vibration    27          0.923              1.102              0.509
 Vibration    28          0.961              1.026              0.445
 Vibration    29          0.981              0.989              0.416

 Optimization completed.
    -- Stationary point found.
 Normal termination of Gaussian 16 at Mon Dec 14 18:16:42 2020.

 ----------------------------------------------------------------------
 # B3LYP/6-311++G(d,p) empiricaldispersion=gd3bj scf=xqc pop=npa geom=c
 heck
 ----------------------------------------------------------------------

 ---------------------------------------
 CID_80956570_JID_10740_Energie_neutraal
 ---------------------------------------
 Structure from the checkpoint file:  "JID_10740.chk"
 Charge =  0 Multiplicity = 1

 SCF Done:  E(RB3LYP) =  -1201.14955972     A.U. after   16 cycles
 Normal termination of Gaussian 16 at Mon Dec 14 18:25:33 2020.

 ----------------------------------------------------------------------
 # B3LYP/6-311++G(d,p) empiricaldispersion=gd3bj scf=xqc pop=npa geom=c
 heck
 ----------------------------------------------------------------------

 -------------------------------------
 CID_80956570_JID_10740_Energie_kation
 -------------------------------------
 Structure from the checkpoint file:  "JID_10740.chk"
 Charge =  1 Multiplicity = 2

 SCF Done:  E(UB3LYP) =  -1200.87535340     A.U. after   31 cycles
 Normal termination of Gaussian 16 at Mon Dec 14 18:48:30 2020.
 Gaussian 16:  ES64L-G16RevA.03 25-Dec-2016

 ----------------------------------------------------------------------
 # B3LYP/6-311++G(d,p) empiricaldispersion=gd3bj scf=xqc pop=npa geom=c
 heck
 ----------------------------------------------------------------------

 ------------------------------------
 CID_80956570_JID_10740_Energie_anion
 ------------------------------------
 Structure from the checkpoint file:  "JID_10740.chk"
 Charge = -1 Multiplicity = 2

                         Standard orientation:
 ---------------------------------------------------------------------
 Center     Atomic      Atomic             Coordinates (Angstroms)
 Number     Number       Type             X           Y           Z
 ---------------------------------------------------------------------
      1          6           0       -3.943493    4.251410   -0.179002
      2          6           0       -2.812030    3.292364    0.175146
      3          7           0       -3.220751    1.920644   -0.053739
      4          6           0       -2.410606    0.839384    0.137286
      5          6           0       -1.178582    0.919844    0.793416
      6          6           0       -0.469805   -0.283707    0.935372
      7          7           0       -0.934212   -1.447981    0.451578
      8          6           0       -2.127009   -1.406065   -0.164953
      9          7           0       -2.891056   -0.330267   -0.352336
     10          6           0       -2.649581   -2.685615   -0.704226
     11          6           0       -1.681200   -3.714041   -1.260854
     12          6           0       -2.368238   -3.977776    0.041457
     13          7           0        0.735168   -0.311980    1.599278
     14          6           0        1.664088   -1.414914    1.407916
     15          6           0        2.281589   -1.451208   -0.010086
     16          6           0        2.945868   -0.158596   -0.374927
     17          6           0        2.374520    0.954744   -0.937112
     18          6           0        3.271700    2.062282   -1.049454
     19          6           0        4.518486    1.786077   -0.562354
     20         16           0        4.615058    0.159245    0.040699
     21          1           0       -4.213838    4.165700   -1.238187
     22          1           0       -3.640768    5.286169    0.007123
     23          1           0       -4.834472    4.039707    0.421612
     24          1           0       -1.910916    3.537119   -0.410973
     25          1           0       -2.543091    3.414547    1.232920
     26          1           0       -3.995365    1.745037   -0.679978
     27          1           0       -0.786773    1.851562    1.183590
     28          1           0       -3.612532   -2.584978   -1.192587
     29          1           0       -1.993948   -4.267217   -2.141854
     30          1           0       -0.629501   -3.448332   -1.226664
     31          1           0       -1.777261   -3.884598    0.946810
     32          1           0       -3.163404   -4.716995    0.075856
     33          1           0        1.176417    0.594017    1.690356
     34          1           0        2.452823   -1.313632    2.160220
     35          1           0        1.127878   -2.347662    1.590569
     36          1           0        2.985386   -2.289953   -0.071206
     37          1           0        1.474422   -1.650333   -0.721981
     38          1           0        1.338045    0.976857   -1.258072
     39          1           0        2.999344    3.019113   -1.481622
     40          1           0        5.388336    2.427948   -0.536343
 ---------------------------------------------------------------------

 SCF Done:  E(UB3LYP) =  -1201.13828425     A.U. after   33 cycles
 SCF Done:  E(UB3LYP) =  -1201.13828425     a.u. after    1 cycles

 The electronic state is 2-A.
 Alpha  occ. eigenvalues --  -88.78242 -14.24178 -14.23646 -14.20502 -14.20392
 Alpha  occ. eigenvalues --  -10.16064 -10.15700 -10.15269 -10.12266 -10.11048
 Alpha  occ. eigenvalues --  -10.11029 -10.10203 -10.10125 -10.09896 -10.09865
 Alpha  occ. eigenvalues --  -10.09838 -10.08228 -10.08052 -10.07330 -10.07101
 Alpha  occ. eigenvalues --   -7.86871  -5.83149  -5.82794  -5.82484  -0.90488
 Alpha  occ. eigenvalues --   -0.86700  -0.83680  -0.78962  -0.78290  -0.76731
 Alpha  occ. eigenvalues --   -0.70349  -0.68035  -0.65473  -0.64142  -0.61913
 Alpha  occ. eigenvalues --   -0.59029  -0.56475  -0.54071  -0.52691  -0.52337
 Alpha  occ. eigenvalues --   -0.50081  -0.46975  -0.45839  -0.44938  -0.43833
 Alpha  occ. eigenvalues --   -0.41538  -0.41047  -0.39590  -0.38925  -0.38071
 Alpha  occ. eigenvalues --   -0.37509  -0.36725  -0.35842  -0.34518  -0.33949
 Alpha  occ. eigenvalues --   -0.33314  -0.31551  -0.30449  -0.29965  -0.29550
 Alpha  occ. eigenvalues --   -0.28780  -0.28573  -0.28227  -0.27892  -0.27608
 Alpha  occ. eigenvalues --   -0.26977  -0.25482  -0.24878  -0.24268  -0.23556
 Alpha  occ. eigenvalues --   -0.20801  -0.19117  -0.16711  -0.16397  -0.14781
 Alpha  occ. eigenvalues --   -0.14152  -0.12824   0.04179
 Alpha virt. eigenvalues --    0.05749   0.06069   0.06346   0.06930   0.07048
 Alpha virt. eigenvalues --    0.07759   0.08117   0.08270   0.08430   0.08649
 Alpha virt. eigenvalues --    0.09202   0.09499   0.09899   0.10229   0.10728

  Beta  occ. eigenvalues --  -88.78234 -14.24169 -14.23640 -14.20499 -14.20391
  Beta  occ. eigenvalues --  -10.16062 -10.15699 -10.15269 -10.12257 -10.10995
  Beta  occ. eigenvalues --  -10.10984 -10.10130 -10.10124 -10.09896 -10.09865
  Beta  occ. eigenvalues --  -10.09843 -10.08215 -10.08051 -10.07317 -10.07050
  Beta  occ. eigenvalues --   -7.86864  -5.83144  -5.82791  -5.82460  -0.90481
  Beta  occ. eigenvalues --   -0.86685  -0.83665  -0.78893  -0.78287  -0.76719
  Beta  occ. eigenvalues --   -0.70319  -0.67995  -0.65422  -0.64092  -0.61844
  Beta  occ. eigenvalues --   -0.59009  -0.56448  -0.53985  -0.52690  -0.52308
  Beta  occ. eigenvalues --   -0.50054  -0.46875  -0.45819  -0.44898  -0.43789
  Beta  occ. eigenvalues --   -0.41517  -0.40998  -0.39569  -0.38907  -0.38044
  Beta  occ. eigenvalues --   -0.37475  -0.36688  -0.35807  -0.34484  -0.33928
  Beta  occ. eigenvalues --   -0.33282  -0.31507  -0.30415  -0.29935  -0.29544
  Beta  occ. eigenvalues --   -0.28739  -0.28505  -0.28180  -0.27781  -0.27532
  Beta  occ. eigenvalues --   -0.26936  -0.25451  -0.24837  -0.24246  -0.23554
  Beta  occ. eigenvalues --   -0.20796  -0.19107  -0.16706  -0.16288  -0.14675
  Beta  occ. eigenvalues --   -0.13938  -0.12801
  Beta virt. eigenvalues --    0.05807   0.06448   0.06603   0.06885   0.07097
  Beta virt. eigenvalues --    0.07213   0.08129   0.08326   0.08510   0.08602
  Beta virt. eigenvalues --    0.09114   0.09423   0.09685   0.10116   0.10497

 Mulliken charges and spin densities:
               1          2
     1  C    2.150819  -2.830297
     2  C   -0.626461   0.568869
     3  N   -0.244323   0.154146
     4  C    0.180534  -0.532479
     5  C   -0.251149   0.224920
     6  C   -0.130264   0.230644
     7  N   -0.072425   0.016789
     8  C   -0.533858  -0.098970
     9  N   -0.081866  -0.006092
    10  C    0.414851  -0.081920
    11  C   -0.430121  -0.032440
    12  C   -0.454818  -0.009826
    13  N    0.101392   0.035443
    14  C   -0.482092  -0.131201
    15  C   -0.058898  -0.267455
    16  C    0.572045  -0.247102
    17  C   -0.418379   0.560251
    18  C    0.089903  -0.664444
    19  C    0.241089  -0.282602
    20  S   -0.129383  -0.053575
    21  H   -0.384557   0.524332
    22  H   -0.537599   0.708056
    23  H   -0.223069   0.370208
    24  H   -0.236455   0.419944
    25  H   -0.229457   0.381967
    26  H    0.285673  -0.008516
    27  H   -0.333996   0.530420
    28  H    0.213274   0.050590
    29  H    0.137087   0.001291
    30  H    0.165993  -0.004909
    31  H    0.152019   0.004172
    32  H    0.135647   0.002157
    33  H    0.198506   0.063520
    34  H    0.086755   0.080105
    35  H    0.179332  -0.018296
    36  H    0.172560   0.005174
    37  H    0.106144   0.028923
    38  H    0.266821  -0.094879
    39  H   -0.559183   0.722184
    40  H   -0.432088   0.680902
 Sum of Mulliken charges =  -1.00000   1.00000

 Dipole moment (field-independent basis, Debye):
    X=              1.3334    Y=            -13.1450    Z=              0.5339  Tot=             13.2233
 Quadrupole moment (field-independent basis, Debye-Ang):
   XX=           -213.3810   YY=           -214.1745   ZZ=           -156.7769
   XY=             13.1820   XZ=              6.3645   YZ=              3.8210

 Summary of Natural Population Analysis:

                                       Natural Population
                Natural  -----------------------------------------------
    Atom  No    Charge         Core      Valence    Rydberg      Total
 -----------------------------------------------------------------------
      C    1   -0.28774      0.99967     2.28263    0.00543     3.28774
      C    2   -0.08791      0.99964     2.07788    0.01040     3.08791
      N    3   -0.30274      0.99966     2.79272    0.01037     3.80274
      C    4    0.22130      0.99954     1.76429    0.01487     2.77870
      C    5   -0.19841      0.99947     2.19045    0.00849     3.19841
      C    6    0.22255      0.99955     1.76295    0.01496     2.77745
      N    7   -0.31189      0.99964     2.80336    0.00889     3.81189
      C    8    0.22820      0.99959     1.75276    0.01945     2.77180
      N    9   -0.28717      0.99965     2.77841    0.00911     3.78717
      C   10   -0.12794      0.99956     2.11752    0.01087     3.12794
      C   11   -0.19176      0.99963     2.18591    0.00622     3.19176
      C   12   -0.19199      0.99963     2.18618    0.00618     3.19199
      N   13   -0.30790      0.99967     2.79830    0.00992     3.80790
      C   14   -0.08334      0.99962     2.07167    0.01205     3.08334
      C   15   -0.21574      0.99957     2.20741    0.00875     3.21574
      C   16   -0.09431      0.99949     2.08064    0.01418     3.09431
      C   17   -0.13431      0.99945     2.12367    0.01119     3.13431
      C   18   -0.12421      0.99953     2.11289    0.01179     3.12421
      C   19   -0.18579      0.99954     2.17461    0.01164     3.18579
      S   20    0.19369      4.99940     2.78631    0.02061     7.80631
      H   21    0.09738      0.00000     0.40108    0.00153     0.40262
      H   22    0.10888      0.00000     0.38885    0.00227     0.39112
      H   23    0.09826      0.00000     0.40049    0.00125     0.40174
      H   24    0.09382      0.00000     0.40344    0.00274     0.40618
      H   25    0.09452      0.00000     0.40355    0.00193     0.40548
      H   26    0.19237      0.00000     0.30458    0.00305     0.30763
      H   27    0.11263      0.00000     0.38562    0.00175     0.38737
      H   28    0.11225      0.00000     0.38681    0.00094     0.38775
      H   29    0.09856      0.00000     0.40049    0.00095     0.40144
      H   30    0.10941      0.00000     0.38963    0.00095     0.39059
      H   31    0.11006      0.00000     0.38902    0.00092     0.38994
      H   32    0.09812      0.00000     0.40091    0.00097     0.40188
      H   33    0.19366      0.00000     0.30400    0.00234     0.30634
      H   34    0.09508      0.00000     0.40396    0.00096     0.40492
      H   35    0.10486      0.00000     0.39418    0.00096     0.39514
      H   36    0.10230      0.00000     0.39683    0.00087     0.39770
      H   37    0.11339      0.00000     0.38532    0.00129     0.38661
      H   38    0.11117      0.00000     0.38718    0.00165     0.38883
      H   39    0.11089      0.00000     0.38767    0.00144     0.38911
      H   40    0.10981      0.00000     0.38881    0.00137     0.39019
 =======================================================================
   * Total *   -0.00000     23.99150    52.75299    0.25551    77.00000

 Normal termination of Gaussian 16 at Mon Dec 14 19:13:54 2020.
