 Gaussian 16, Revision A.03,

 -----------------------------------------------------------
 # opt freq B3LYP/6-31G(d) empiricaldispersion=gd3bj scf=xqc
 -----------------------------------------------------------

 ------------------------------
 CID_64976415_JID_6530_neutraal
 ------------------------------
 Symbolic Z-matrix:
 Charge =  0 Multiplicity = 1

 SCF Done:  E(RB3LYP) =  -1051.10389551     A.U. after   17 cycles
 SCF Done:  E(RB3LYP) =  -1051.10951626     A.U. after   12 cycles
 SCF Done:  E(RB3LYP) =  -1051.11008362     A.U. after   13 cycles
 SCF Done:  E(RB3LYP) =  -1051.11003460     A.U. after   12 cycles
 SCF Done:  E(RB3LYP) =  -1051.11041539     A.U. after   12 cycles
 SCF Done:  E(RB3LYP) =  -1051.11042338     A.U. after   11 cycles
 SCF Done:  E(RB3LYP) =  -1051.11043694     A.U. after   10 cycles
 SCF Done:  E(RB3LYP) =  -1051.11043941     A.U. after   10 cycles
 SCF Done:  E(RB3LYP) =  -1051.11044064     A.U. after    9 cycles
 SCF Done:  E(RB3LYP) =  -1051.11044181     A.U. after    8 cycles
 SCF Done:  E(RB3LYP) =  -1051.11044219     A.U. after    7 cycles
 SCF Done:  E(RB3LYP) =  -1051.11044250     A.U. after    8 cycles
 SCF Done:  E(RB3LYP) =  -1051.11044261     A.U. after    7 cycles
 Optimization completed.
    -- Stationary point found.
 Normal termination of Gaussian 16 at Thu Dec 10 23:26:36 2020.

 --------------------------------------------------------------------
 #N Geom=AllCheck Guess=TCheck SCRF=Check GenChk RB3LYP/6-31G(d) Freq
 --------------------------------------------------------------------

 Structure from the checkpoint file:  "JID_6530.chk"
 ------------------------------
 CID_64976415_JID_6530_neutraal
 ------------------------------
 Charge =  0 Multiplicity = 1

 SCF Done:  E(RB3LYP) =  -1051.11044261     A.U. after    1 cycles

  Exact polarizability: 204.815  -1.836 169.556   0.585   1.607 105.383
 Approx polarizability: 270.175   5.554 298.956  -1.489   6.796 160.667

                      1                      2                      3
                      A                      A                      A
 Frequencies --     34.2456                53.7701                68.0502
 Red. masses --      4.6392                 2.2579                 3.0382
 Frc consts  --      0.0032                 0.0038                 0.0083
 IR Inten    --      2.4191                 0.8846                 3.2766

                      4                      5                      6
                      A                      A                      A
 Frequencies --     68.0711                89.8141               109.2423
 Red. masses --      2.7058                 3.9814                 2.8350
 Frc consts  --      0.0074                 0.0189                 0.0199
 IR Inten    --      1.0360                 0.8478                 1.3799

                      7                      8                      9
                      A                      A                      A
 Frequencies --    128.2125               142.5215               175.1340
 Red. masses --      1.5459                 3.5832                 2.7627
 Frc consts  --      0.0150                 0.0429                 0.0499
 IR Inten    --      0.0454                 0.0691                 1.0580

                     10                     11                     12
                      A                      A                      A
 Frequencies --    204.1195               220.1620               254.6996
 Red. masses --      3.1472                 1.0909                 1.7451
 Frc consts  --      0.0773                 0.0312                 0.0667
 IR Inten    --      3.7083                 0.1192                 1.7972

                     13                     14                     15
                      A                      A                      A
 Frequencies --    258.6710               284.0251               301.6733
 Red. masses --      1.7859                 2.6415                 3.0400
 Frc consts  --      0.0704                 0.1255                 0.1630
 IR Inten    --      1.2582                 2.2544                 0.5437

                     16                     17                     18
                      A                      A                      A
 Frequencies --    333.2592               342.6013               379.8420
 Red. masses --      2.8352                 3.0504                 4.4483
 Frc consts  --      0.1855                 0.2109                 0.3781
 IR Inten    --      0.1866                 0.3223                 2.3190

                     19                     20                     21
                      A                      A                      A
 Frequencies --    419.3109               429.9453               467.8141
 Red. masses --      4.9586                 4.2137                 3.0740
 Frc consts  --      0.5137                 0.4589                 0.3964
 IR Inten    --      7.7134                 5.4531                 4.8191

                     22                     23                     24
                      A                      A                      A
 Frequencies --    492.5989               533.1634               555.0235
 Red. masses --      3.6594                 3.9075                 3.4353
 Frc consts  --      0.5232                 0.6544                 0.6235
 IR Inten    --      2.0236                 2.6220                 3.9921

                     25                     26                     27
                      A                      A                      A
 Frequencies --    566.4013               575.4578               624.6571
 Red. masses --      5.9415                 3.8488                 9.6361
 Frc consts  --      1.1230                 0.7509                 2.2153
 IR Inten    --      0.9871                16.0986                 9.9571

                     28                     29                     30
                      A                      A                      A
 Frequencies --    686.7879               701.7312               742.0528
 Red. masses --      4.3439                 7.6414                 3.0915
 Frc consts  --      1.2072                 2.2170                 1.0030
 IR Inten    --      2.1692                20.5243                 1.0930

                     31                     32                     33
                      A                      A                      A
 Frequencies --    793.2311               835.6312               869.6594
 Red. masses --      1.3670                 2.0033                 2.1784
 Frc consts  --      0.5068                 0.8242                 0.9707
 IR Inten    --      2.6843                 0.5910                 3.9883

                     34                     35                     36
                      A                      A                      A
 Frequencies --    880.5426               904.4527               926.1962
 Red. masses --      1.9600                 2.3781                 2.2419
 Frc consts  --      0.8954                 1.1462                 1.1331
 IR Inten    --      2.9865                 6.8252                 7.6692

                     37                     38                     39
                      A                      A                      A
 Frequencies --    944.4758               983.0873               998.4177
 Red. masses --      3.2199                 1.4787                 1.4679
 Frc consts  --      1.6923                 0.8420                 0.8621
 IR Inten    --     59.9966                12.0514                 1.5712

                     40                     41                     42
                      A                      A                      A
 Frequencies --   1046.0321              1048.8113              1077.4794
 Red. masses --      2.3534                 2.4438                 2.0391
 Frc consts  --      1.5172                 1.5838                 1.3948
 IR Inten    --      6.0024                 1.1215                 7.5253

                     43                     44                     45
                      A                      A                      A
 Frequencies --   1114.2308              1138.7355              1146.1955
 Red. masses --      1.6898                 3.1366                 2.1610
 Frc consts  --      1.2360                 2.3964                 1.6727
 IR Inten    --     89.4417                60.3481                 5.8941

                     46                     47                     48
                      A                      A                      A
 Frequencies --   1152.5647              1165.3747              1166.0640
 Red. masses --      1.3733                 1.3152                 2.0672
 Frc consts  --      1.0749                 1.0524                 1.6561
 IR Inten    --      7.8739                 6.0233                 8.3865

                     49                     50                     51
                      A                      A                      A
 Frequencies --   1189.4532              1207.2717              1233.3864
 Red. masses --      2.5560                 2.0282                 1.8292
 Frc consts  --      2.1306                 1.7417                 1.6395
 IR Inten    --     49.7248                12.2270                 4.7687

                     52                     53                     54
                      A                      A                      A
 Frequencies --   1261.0610              1285.6871              1309.1978
 Red. masses --      2.7726                 1.2450                 1.3716
 Frc consts  --      2.5978                 1.2126                 1.3851
 IR Inten    --     40.1662                 1.0560                14.9622

                     55                     56                     57
                      A                      A                      A
 Frequencies --   1334.5638              1360.6475              1367.9988
 Red. masses --      2.1744                 1.5090                 1.5025
 Frc consts  --      2.2818                 1.6460                 1.6566
 IR Inten    --    124.9449                 6.5013                18.9724

                     58                     59                     60
                      A                      A                      A
 Frequencies --   1381.6234              1388.6203              1393.1445
 Red. masses --      1.4839                 1.7797                 1.4854
 Frc consts  --      1.6689                 2.0220                 1.6985
 IR Inten    --     20.5975                31.8140                 1.8286

                     61                     62                     63
                      A                      A                      A
 Frequencies --   1409.4842              1425.8304              1440.3910
 Red. masses --      3.0476                 1.4256                 1.3164
 Frc consts  --      3.5672                 1.7076                 1.6092
 IR Inten    --     42.1651                 9.7377                 4.7809

                     64                     65                     66
                      A                      A                      A
 Frequencies --   1444.5065              1487.3640              1491.2892
 Red. masses --      1.2710                 1.2508                 1.0992
 Frc consts  --      1.5625                 1.6303                 1.4403
 IR Inten    --     14.0344                55.7733                 3.0627

                     67                     68                     69
                      A                      A                      A
 Frequencies --   1509.7940              1518.5445              1521.2118
 Red. masses --      1.1446                 1.0468                 1.0456
 Frc consts  --      1.5372                 1.4222                 1.4256
 IR Inten    --      7.5655                19.9446                 4.7037

                     70                     71                     72
                      A                      A                      A
 Frequencies --   1524.0382              1524.9320              1534.7131
 Red. masses --      1.0967                 1.0501                 1.0529
 Frc consts  --      1.5008                 1.4388                 1.4611
 IR Inten    --      1.0347                 8.6993                 5.8134

                     73                     74                     75
                      A                      A                      A
 Frequencies --   1536.9332              1540.2781              1544.8420
 Red. masses --      1.0638                 1.0478                 1.0859
 Frc consts  --      1.4805                 1.4646                 1.5269
 IR Inten    --      5.0377                 5.5449                 0.9269

                     76                     77                     78
                      A                      A                      A
 Frequencies --   1574.3643              1634.7106              1788.0592
 Red. masses --      6.3732                 5.5424                12.2517
 Frc consts  --      9.3072                 8.7263                23.0787
 IR Inten    --      5.9588               501.2932               235.2864

                     79                     80                     81
                      A                      A                      A
 Frequencies --   3011.1763              3012.9096              3023.0235
 Red. masses --      1.0511                 1.0692                 1.0704
 Frc consts  --      5.6153                 5.7183                 5.7633
 IR Inten    --     41.2506                42.0001                10.6967

                     82                     83                     84
                      A                      A                      A
 Frequencies --   3042.0809              3052.2377              3052.8308
 Red. masses --      1.0404                 1.0808                 1.0619
 Frc consts  --      5.6727                 5.9322                 5.8308
 IR Inten    --     31.6201                28.9816                25.7243

                     85                     86                     87
                      A                      A                      A
 Frequencies --   3055.4140              3062.6442              3076.8886
 Red. masses --      1.0688                 1.0432                 1.0900
 Frc consts  --      5.8789                 5.7652                 6.0798
 IR Inten    --     31.2797                25.6120                33.1369

                     88                     89                     90
                      A                      A                      A
 Frequencies --   3086.7766              3096.6015              3102.8107
 Red. masses --      1.0903                 1.1045                 1.0959
 Frc consts  --      6.1211                 6.2399                 6.2161
 IR Inten    --     21.0715                43.1201                20.0154

                     91                     92                     93
                      A                      A                      A
 Frequencies --   3116.9254              3120.7976              3127.4606
 Red. masses --      1.0930                 1.1016                 1.0990
 Frc consts  --      6.2562                 6.3212                 6.3332
 IR Inten    --     18.9362                47.6636                19.7393

                     94                     95                     96
                      A                      A                      A
 Frequencies --   3141.2411              3151.4050              3160.8097
 Red. masses --      1.0965                 1.0981                 1.1013
 Frc consts  --      6.3747                 6.4253                 6.4829
 IR Inten    --     14.5572                19.4342                14.6935

 - Thermochemistry -
 -------------------
 Temperature   298.150 Kelvin.  Pressure   1.00000 Atm.
 Atom     1 has atomic number  6 and mass  12.00000

 Molecular mass:   238.11399 amu.
 Principal axes and moments of inertia in atomic units:
                           1         2         3
     Eigenvalues --  2297.933975718.894607437.51418
           X            0.99989   0.01461   0.00135
           Y           -0.01460   0.99987  -0.00660
           Z           -0.00145   0.00658   0.99998
 This molecule is an asymmetric top.
 Rotational symmetry number  1.
 Warning -- assumption of classical behavior for rotation
           may cause significant error
 Rotational temperatures (Kelvin)      0.03769     0.01515     0.01165
 Rotational constants (GHZ):           0.78538     0.31558     0.24265
 Zero-point vibrational energy     760180.3 (Joules/Mol)
                                  181.68744 (Kcal/Mol)
 Warning -- explicit consideration of  26 degrees of freedom as
           vibrations may cause significant error
 Vibrational temperatures:     49.27    77.36    97.91    97.94   129.22
          (Kelvin)            157.18   184.47   205.06   251.98   293.68
                              316.76   366.46   372.17   408.65   434.04
                              479.49   492.93   546.51   603.29   618.60
                              673.08   708.74   767.10   798.56   814.93
                              827.96   898.74   988.13  1009.63  1067.65
                             1141.28  1202.29  1251.25  1266.90  1301.31
                             1332.59  1358.89  1414.44  1436.50  1505.01
                             1509.01  1550.25  1603.13  1638.39  1649.12
                             1658.28  1676.71  1677.71  1711.36  1736.99
                             1774.57  1814.39  1849.82  1883.64  1920.14
                             1957.67  1968.25  1987.85  1997.91  2004.42
                             2027.93  2051.45  2072.40  2078.32  2139.99
                             2145.63  2172.26  2184.85  2188.68  2192.75
                             2194.04  2208.11  2211.30  2216.12  2222.68
                             2265.16  2351.98  2572.62  4332.41  4334.90
                             4349.46  4376.88  4391.49  4392.34  4396.06
                             4406.46  4426.96  4441.18  4455.32  4464.25
                             4484.56  4490.13  4499.72  4519.55  4534.17
                             4547.70

 Zero-point correction=                           0.289537 (Hartree/Particle)
 Thermal correction to Energy=                    0.306236
 Thermal correction to Enthalpy=                  0.307180
 Thermal correction to Gibbs Free Energy=         0.244593
 Sum of electronic and zero-point Energies=          -1050.820905
 Sum of electronic and thermal Energies=             -1050.804207
 Sum of electronic and thermal Enthalpies=           -1050.803263
 Sum of electronic and thermal Free Energies=        -1050.865850

                     E (Thermal)             CV                S
                      KCal/Mol        Cal/Mol-Kelvin    Cal/Mol-Kelvin
 Total                  192.166             61.985            131.725
 Electronic               0.000              0.000              0.000
 Translational            0.889              2.981             42.304
 Rotational               0.889              2.981             32.947
 Vibrational            190.388             56.023             56.475
 Vibration     1          0.594              1.983              5.567
 Vibration     2          0.596              1.976              4.674
 Vibration     3          0.598              1.969              4.209
 Vibration     4          0.598              1.969              4.208
 Vibration     5          0.602              1.956              3.664
 Vibration     6          0.606              1.942              3.282
 Vibration     7          0.611              1.925              2.973
 Vibration     8          0.616              1.911              2.770
 Vibration     9          0.627              1.873              2.380
 Vibration    10          0.640              1.834              2.096
 Vibration    11          0.647              1.810              1.958
 Vibration    12          0.665              1.755              1.698
 Vibration    13          0.667              1.748              1.671
 Vibration    14          0.682              1.703              1.509
 Vibration    15          0.694              1.671              1.408
 Vibration    16          0.715              1.609              1.244
 Vibration    17          0.722              1.590              1.200
 Vibration    18          0.750              1.513              1.040
 Vibration    19          0.782              1.428              0.894
 Vibration    20          0.791              1.405              0.859
 Vibration    21          0.825              1.321              0.744
 Vibration    22          0.848              1.266              0.677
 Vibration    23          0.888              1.177              0.580
 Vibration    24          0.910              1.129              0.534
 Vibration    25          0.922              1.104              0.511
 Vibration    26          0.932              1.084              0.494

                           ! Non-Optimized Parameters !
 Normal termination of Gaussian 16 at Thu Dec 10 23:37:03 2020.

 ----------------------------------------------------------------------
 # B3LYP/6-311++G(d,p) empiricaldispersion=gd3bj scf=xqc pop=npa geom=c
 heck
 ----------------------------------------------------------------------

 --------------------------------------
 CID_64976415_JID_6530_Energie_neutraal
 --------------------------------------
 Structure from the checkpoint file:  "JID_6530.chk"
 Charge =  0 Multiplicity = 1

 SCF Done:  E(RB3LYP) =  -1051.31264346     A.U. after   18 cycles
 Normal termination of Gaussian 16 at Thu Dec 10 23:42:48 2020.

 ----------------------------------------------------------------------
 # B3LYP/6-311++G(d,p) empiricaldispersion=gd3bj scf=xqc pop=npa geom=c
 heck
 ----------------------------------------------------------------------

 ------------------------------------
 CID_64976415_JID_6530_Energie_kation
 ------------------------------------
 Structure from the checkpoint file:  "JID_6530.chk"
 Charge =  1 Multiplicity = 2

 SCF Done:  E(UB3LYP) =  -1051.04246899     A.U. after   23 cycles
 Normal termination of Gaussian 16 at Thu Dec 10 23:52:56 2020.
 Gaussian 16:  ES64L-G16RevA.03 25-Dec-2016

 ----------------------------------------------------------------------
 # B3LYP/6-311++G(d,p) empiricaldispersion=gd3bj scf=xqc pop=npa geom=c
 heck
 ----------------------------------------------------------------------

 -----------------------------------
 CID_64976415_JID_6530_Energie_anion
 -----------------------------------
 Structure from the checkpoint file:  "JID_6530.chk"
 Charge = -1 Multiplicity = 2

                         Standard orientation:
 ---------------------------------------------------------------------
 Center     Atomic      Atomic             Coordinates (Angstroms)
 Number     Number       Type             X           Y           Z
 ---------------------------------------------------------------------
      1          6           0        4.135941    2.024415   -0.773649
      2          6           0        2.924748    1.093770   -0.881501
      3          6           0        2.923968   -0.009166    0.190670
      4          6           0        2.779613    0.519206    1.623021
      5          7           0        1.915561   -1.058798   -0.111712
      6          6           0        2.318728   -2.451575   -0.008155
      7          6           0        0.589177   -0.754738   -0.052206
      8          7           0        0.084855    0.442542    0.037545
      9          6           0       -1.294177    0.404235    0.048056
     10          6           0       -1.884396   -0.832489   -0.032572
     11         16           0       -0.648194   -2.065462   -0.110821
     12          6           0       -3.358598   -1.098336   -0.048469
     13          6           0       -4.094665    0.172390   -0.503959
     14          6           0       -3.612730    1.407462    0.268683
     15          6           0       -2.105033    1.636773    0.160855
     16          8           0       -1.614699    2.752281    0.203817
     17          1           0        4.119300    2.609965    0.151574
     18          1           0        4.149017    2.733663   -1.607892
     19          1           0        5.079800    1.464136   -0.798873
     20          1           0        1.996266    1.664789   -0.808509
     21          1           0        2.924444    0.603174   -1.863011
     22          1           0        3.883348   -0.534229    0.115757
     23          1           0        1.851588    1.085224    1.729985
     24          1           0        2.772513   -0.309137    2.340368
     25          1           0        3.620172    1.172962    1.874608
     26          1           0        2.170637   -2.865064    1.001217
     27          1           0        1.754351   -3.066125   -0.718257
     28          1           0        3.375495   -2.534415   -0.267928
     29          1           0       -3.700284   -1.388323    0.957117
     30          1           0       -3.599090   -1.938312   -0.710635
     31          1           0       -5.175159    0.043116   -0.375404
     32          1           0       -3.911748    0.322066   -1.575306
     33          1           0       -4.113832    2.320427   -0.065609
     34          1           0       -3.846485    1.287335    1.337935
 ---------------------------------------------------------------------

 SCF Done:  E(UB3LYP) =  -1051.30837898     A.U. after   33 cycles
 SCF Done:  E(UB3LYP) =  -1051.30837898     a.u. after    1 cycles

 The electronic state is 2-A.
 Alpha  occ. eigenvalues --  -88.75184 -18.94784 -14.23131 -14.17274 -10.14452
 Alpha  occ. eigenvalues --  -10.10788 -10.09939 -10.09667 -10.07613 -10.07071
 Alpha  occ. eigenvalues --  -10.06420 -10.06313 -10.06299 -10.05624 -10.05587
 Alpha  occ. eigenvalues --  -10.05394  -7.83807  -5.80103  -5.79762  -5.79371
 Alpha  occ. eigenvalues --   -0.88739  -0.86895  -0.80713  -0.71639  -0.69538
 Alpha  occ. eigenvalues --   -0.66328  -0.62626  -0.62242  -0.60067  -0.57950
 Alpha  occ. eigenvalues --   -0.54685  -0.50183  -0.49395  -0.45329  -0.42937
 Alpha  occ. eigenvalues --   -0.40401  -0.38230  -0.37317  -0.35766  -0.35085
 Alpha  occ. eigenvalues --   -0.34794  -0.33304  -0.32135  -0.31327  -0.31193
 Alpha  occ. eigenvalues --   -0.30054  -0.29441  -0.28827  -0.28670  -0.28397
 Alpha  occ. eigenvalues --   -0.26348  -0.26262  -0.26080  -0.24957  -0.23931
 Alpha  occ. eigenvalues --   -0.23180  -0.22484  -0.22112  -0.21709  -0.17458
 Alpha  occ. eigenvalues --   -0.15074  -0.14708  -0.10508  -0.08608   0.04495
 Alpha virt. eigenvalues --    0.06050   0.07233   0.07634   0.08661   0.08944
 Alpha virt. eigenvalues --    0.09541   0.09837   0.10528   0.10677   0.11234
 Alpha virt. eigenvalues --    0.11799   0.11909   0.12554   0.12764   0.13020

  Beta  occ. eigenvalues --  -88.75167 -18.94440 -14.23137 -14.17286 -10.14443
  Beta  occ. eigenvalues --  -10.10777 -10.09902 -10.09440 -10.07638 -10.07056
  Beta  occ. eigenvalues --  -10.06316 -10.06301 -10.06026 -10.05644 -10.05584
  Beta  occ. eigenvalues --  -10.05387  -7.83792  -5.80099  -5.79760  -5.79309
  Beta  occ. eigenvalues --   -0.88164  -0.86837  -0.80650  -0.71428  -0.69517
  Beta  occ. eigenvalues --   -0.66126  -0.62581  -0.62128  -0.59924  -0.57790
  Beta  occ. eigenvalues --   -0.54620  -0.50103  -0.49317  -0.44845  -0.42842
  Beta  occ. eigenvalues --   -0.40277  -0.38150  -0.37184  -0.35730  -0.35054
  Beta  occ. eigenvalues --   -0.34688  -0.33124  -0.32087  -0.31138  -0.30958
  Beta  occ. eigenvalues --   -0.29975  -0.29258  -0.28769  -0.28373  -0.28136
  Beta  occ. eigenvalues --   -0.26242  -0.26193  -0.25984  -0.24757  -0.23790
  Beta  occ. eigenvalues --   -0.23152  -0.22451  -0.21831  -0.20749  -0.16889
  Beta  occ. eigenvalues --   -0.14682  -0.14659  -0.10213  -0.07724
  Beta virt. eigenvalues --    0.06814   0.07153   0.07991   0.08715   0.09125
  Beta virt. eigenvalues --    0.09421   0.09801   0.09909   0.10572   0.10858
  Beta virt. eigenvalues --    0.11322   0.11930   0.12270   0.12752   0.12924

 Mulliken charges and spin densities:
               1          2
     1  C   -0.208180  -0.421916
     2  C   -0.092134   0.145624
     3  C   -0.566200   0.227446
     4  C    0.052550  -0.512823
     5  N    0.374674   0.131990
     6  C    0.906106  -1.114646
     7  C   -0.127178   0.078045
     8  N    0.186497  -0.003587
     9  C   -0.429207  -0.344121
    10  C    0.517477   0.482270
    11  S   -0.485666  -0.038927
    12  C   -0.426246  -0.012861
    13  C   -0.185362   0.074946
    14  C   -0.103758  -0.085474
    15  C   -0.387000  -0.032847
    16  O   -0.365933   0.120273
    17  H    0.128888   0.006062
    18  H    0.089729   0.042639
    19  H   -0.155794   0.291874
    20  H    0.188038   0.022591
    21  H    0.079816   0.055115
    22  H    0.037131   0.111410
    23  H    0.195670   0.011515
    24  H    0.053492   0.055889
    25  H    0.053876   0.076950
    26  H    0.008508   0.160241
    27  H   -0.294124   0.436129
    28  H   -0.726554   0.866759
    29  H    0.170490  -0.011075
    30  H    0.023046   0.114668
    31  H    0.091164   0.040865
    32  H    0.127144  -0.003354
    33  H    0.169259  -0.012587
    34  H    0.099782   0.040917
 Sum of Mulliken charges =  -1.00000   1.00000

 Dipole moment (field-independent basis, Debye):
    X=             -3.4142    Y=             -0.8379    Z=              1.0454  Tot=              3.6677
 Quadrupole moment (field-independent basis, Debye-Ang):
   XX=           -158.5015   YY=           -153.4274   ZZ=           -121.6302
   XY=             16.7509   XZ=              3.5651   YZ=             -4.8493

 Summary of Natural Population Analysis:

                                       Natural Population
                Natural  -----------------------------------------------
    Atom  No    Charge         Core      Valence    Rydberg      Total
 -----------------------------------------------------------------------
      C    1   -0.28646      0.99967     2.28211    0.00468     3.28646
      C    2   -0.20198      0.99961     2.19280    0.00958     3.20198
      C    3    0.00565      0.99958     1.98103    0.01374     2.99435
      C    4   -0.29861      0.99964     2.29297    0.00600     3.29861
      N    5   -0.26448      0.99961     2.75077    0.01411     3.76448
      C    6   -0.17494      0.99963     2.16709    0.00822     3.17494
      C    7    0.15757      0.99956     1.82310    0.01977     2.84243
      N    8   -0.26953      0.99961     2.75941    0.01051     3.76953
      C    9    0.01018      0.99935     1.97700    0.01347     2.98982
      C   10   -0.03132      0.99943     2.02045    0.01145     3.03132
      S   11    0.15237      4.99943     2.82965    0.01855     7.84763
      C   12   -0.20395      0.99959     2.19586    0.00850     3.20395
      C   13   -0.18072      0.99964     2.17325    0.00783     3.18072
      C   14   -0.23080      0.99961     2.22205    0.00914     3.23080
      C   15    0.29184      0.99960     1.68647    0.02209     2.70816
      O   16   -0.26323      0.99988     3.25656    0.00679     4.26323
      H   17    0.09540      0.00000     0.40379    0.00080     0.40460
      H   18    0.09802      0.00000     0.40136    0.00062     0.40198
      H   19    0.09359      0.00000     0.40543    0.00098     0.40641
      H   20    0.11819      0.00000     0.38039    0.00142     0.38181
      H   21    0.09729      0.00000     0.40159    0.00113     0.40271
      H   22    0.09335      0.00000     0.40507    0.00159     0.40665
      H   23    0.11564      0.00000     0.38332    0.00104     0.38436
      H   24    0.09794      0.00000     0.40136    0.00070     0.40206
      H   25    0.09678      0.00000     0.40252    0.00070     0.40322
      H   26    0.08939      0.00000     0.40941    0.00121     0.41061
      H   27    0.10122      0.00000     0.39728    0.00150     0.39878
      H   28    0.10134      0.00000     0.39712    0.00155     0.39866
      H   29    0.09947      0.00000     0.39915    0.00138     0.40053
      H   30    0.10115      0.00000     0.39700    0.00185     0.39885
      H   31    0.09056      0.00000     0.40769    0.00174     0.40944
      H   32    0.09544      0.00000     0.40316    0.00139     0.40456
      H   33    0.10396      0.00000     0.39493    0.00111     0.39604
      H   34    0.09968      0.00000     0.39851    0.00181     0.40032
 =======================================================================
   * Total *   -0.00000     19.99343    43.79965    0.20692    64.00000

 Normal termination of Gaussian 16 at Fri Dec 11 00:07:59 2020.
