 Gaussian 16, Revision A.03,

 -----------------------------------------------------------
 # opt freq B3LYP/6-31G(d) empiricaldispersion=gd3bj scf=xqc
 -----------------------------------------------------------

 ------------------------------
 CID_147220979_JID_235_neutraal
 ------------------------------
 Symbolic Z-matrix:
 Charge =  0 Multiplicity = 1

 SCF Done:  E(RB3LYP) =  -409.150996164     A.U. after   13 cycles
 SCF Done:  E(RB3LYP) =  -409.155770906     A.U. after   11 cycles
 SCF Done:  E(RB3LYP) =  -409.154970094     A.U. after   11 cycles
 SCF Done:  E(RB3LYP) =  -409.156568891     A.U. after   10 cycles
 SCF Done:  E(RB3LYP) =  -409.156810268     A.U. after   10 cycles
 SCF Done:  E(RB3LYP) =  -409.156850990     A.U. after   10 cycles
 SCF Done:  E(RB3LYP) =  -409.156871333     A.U. after    9 cycles
 SCF Done:  E(RB3LYP) =  -409.156879439     A.U. after    8 cycles
 SCF Done:  E(RB3LYP) =  -409.156881812     A.U. after    8 cycles
 SCF Done:  E(RB3LYP) =  -409.156882019     A.U. after    6 cycles
 SCF Done:  E(RB3LYP) =  -409.156882058     A.U. after    6 cycles
 Optimization completed.
    -- Stationary point found.

 1\1\GINC-NODE119\FOpt\RB3LYP\6-31G(d)\C9H19N1\VSC10255\08-Dec-2020\0\\
 # opt freq B3LYP/6-31G(d) empiricaldispersion=gd3bj scf=xqc\\CID_14722
 0979_JID_235_neutraal\\0,1\C,1.1466009016,-0.0888992947,0.0487599502\C
 ,0.5352797489,-0.2791985824,-1.3443526723\C,1.4326017627,-0.9520250921
 ,-2.3875391\C,2.9079091622,-0.5040221829,-2.5361711549\C,3.258689253,-
 1.9461949006,-2.9594249194\C,1.9300051402,-2.4475343592,-2.3223072683\
 N,2.0628599641,-3.0139493797,-0.9785238046\C,0.7797922386,-3.525147043
 8,-0.5091031318\C,3.1245875199,-4.0163612686,-0.8283835694\C,3.0787856

 Normal termination of Gaussian 16 at Tue Dec  8 10:22:49 2020.

 --------------------------------------------------------------------
 #N Geom=AllCheck Guess=TCheck SCRF=Check GenChk RB3LYP/6-31G(d) Freq
 --------------------------------------------------------------------

 Structure from the checkpoint file:  "JID_235.chk"
 ------------------------------
 CID_147220979_JID_235_neutraal
 ------------------------------
 Charge =  0 Multiplicity = 1

 SCF Done:  E(RB3LYP) =  -409.156882058     A.U. after    1 cycles

  Exact polarizability: 110.840  -0.159 100.192   1.413   0.019  87.837
 Approx polarizability: 137.092  -1.106 136.214   2.689   0.450 133.238

                      1                      2                      3
                      A                      A                      A
 Frequencies --     64.9500                90.6424                98.0440
 Red. masses --      3.0425                 2.2198                 2.4317
 Frc consts  --      0.0076                 0.0107                 0.0138
 IR Inten    --      0.1471                 0.1044                 0.0480

                      4                      5                      6
                      A                      A                      A
 Frequencies --    141.9919               177.3058               205.2079
 Red. masses --      2.0806                 1.4946                 1.2109
 Frc consts  --      0.0247                 0.0277                 0.0300
 IR Inten    --      0.0174                 0.2729                 0.8570

                      7                      8                      9
                      A                      A                      A
 Frequencies --    218.9134               246.7317               259.3926
 Red. masses --      1.1076                 1.8248                 2.0554
 Frc consts  --      0.0313                 0.0654                 0.0815
 IR Inten    --      0.3115                 0.0493                 2.2332

                     10                     11                     12
                      A                      A                      A
 Frequencies --    281.6978               321.2096               370.8767
 Red. masses --      2.4118                 2.2553                 2.4619
 Frc consts  --      0.1128                 0.1371                 0.1995
 IR Inten    --      0.4717                 1.0761                 1.4550

                     13                     14                     15
                      A                      A                      A
 Frequencies --    427.1012               465.9867               509.9775
 Red. masses --      2.5786                 2.1453                 2.5789
 Frc consts  --      0.2771                 0.2745                 0.3952
 IR Inten    --      1.5629                 0.8785                 4.5310

                     16                     17                     18
                      A                      A                      A
 Frequencies --    613.2945               627.3216               741.7490
 Red. masses --      2.7609                 2.2863                 1.5237
 Frc consts  --      0.6118                 0.5301                 0.4939
 IR Inten    --      1.0835                 0.5965                 0.1845

                     19                     20                     21
                      A                      A                      A
 Frequencies --    770.7814               795.4391               805.8697
 Red. masses --      2.4004                 1.1678                 1.2937
 Frc consts  --      0.8402                 0.4354                 0.4950
 IR Inten    --     10.3516                 2.3776                13.6717

                     22                     23                     24
                      A                      A                      A
 Frequencies --    884.0500               921.5905               941.5347
 Red. masses --      2.1916                 1.9835                 2.2723
 Frc consts  --      1.0092                 0.9926                 1.1868
 IR Inten    --      1.6014                 3.9179                 0.7541

                     25                     26                     27
                      A                      A                      A
 Frequencies --    948.7233               974.7706               997.0556
 Red. masses --      2.0135                 2.2682                 2.4500
 Frc consts  --      1.0678                 1.2698                 1.4350
 IR Inten    --      0.5562                 4.4196                17.2560

                     28                     29                     30
                      A                      A                      A
 Frequencies --   1025.5189              1054.9081              1081.3094
 Red. masses --      1.5101                 2.1615                 1.8886
 Frc consts  --      0.9357                 1.4172                 1.3010
 IR Inten    --      1.8987                12.3739                15.7845

                     31                     32                     33
                      A                      A                      A
 Frequencies --   1093.5480              1116.2350              1141.6570
 Red. masses --      1.2725                 1.7152                 1.9987
 Frc consts  --      0.8965                 1.2592                 1.5348
 IR Inten    --      1.2626                18.7902                 4.6022

                     34                     35                     36
                      A                      A                      A
 Frequencies --   1156.5109              1164.9371              1171.5889
 Red. masses --      2.0698                 1.6855                 1.5910
 Frc consts  --      1.6311                 1.3477                 1.2867
 IR Inten    --      0.8589                 1.2247                 8.7513

                     37                     38                     39
                      A                      A                      A
 Frequencies --   1226.7313              1235.4295              1270.5123
 Red. masses --      1.5550                 1.9361                 1.5595
 Frc consts  --      1.3788                 1.7411                 1.4832
 IR Inten    --      1.2415                15.1624                 4.7392

                     40                     41                     42
                      A                      A                      A
 Frequencies --   1282.4684              1289.3930              1300.1344
 Red. masses --      1.2792                 1.5730                 1.3470
 Frc consts  --      1.2396                 1.5408                 1.3416
 IR Inten    --      5.6552                 9.8764                 1.8867

                     43                     44                     45
                      A                      A                      A
 Frequencies --   1318.4621              1346.2837              1369.0625
 Red. masses --      1.6511                 1.3434                 1.4278
 Frc consts  --      1.6911                 1.4346                 1.5767
 IR Inten    --      6.8550                 0.6634                 5.9866

                     46                     47                     48
                      A                      A                      A
 Frequencies --   1377.3281              1398.2627              1409.6120
 Red. masses --      1.4435                 1.2622                 1.3189
 Frc consts  --      1.6134                 1.4539                 1.5441
 IR Inten    --      3.3195                28.8271                 1.8746

                     49                     50                     51
                      A                      A                      A
 Frequencies --   1415.7506              1433.0049              1442.9673
 Red. masses --      1.3101                 1.2508                 1.2717
 Frc consts  --      1.5471                 1.5133                 1.5601
 IR Inten    --     17.3555                19.8947                12.7913

                     52                     53                     54
                      A                      A                      A
 Frequencies --   1484.2132              1506.1818              1513.4183
 Red. masses --      1.1694                 1.0889                 1.0593
 Frc consts  --      1.5178                 1.4554                 1.4295
 IR Inten    --      1.7708                 4.6001                 3.3951

                     55                     56                     57
                      A                      A                      A
 Frequencies --   1520.1530              1523.8621              1526.1417
 Red. masses --      1.0676                 1.0496                 1.0510
 Frc consts  --      1.4536                 1.4360                 1.4422
 IR Inten    --      1.0374                 5.9147                 0.5827

                     58                     59                     60
                      A                      A                      A
 Frequencies --   1528.2677              1531.4829              1542.3298
 Red. masses --      1.0689                 1.0841                 1.0692
 Frc consts  --      1.4710                 1.4982                 1.4985
 IR Inten    --      6.2825                 0.7978                 0.6290

                     61                     62                     63
                      A                      A                      A
 Frequencies --   1546.5168              1553.9610              2938.2701
 Red. masses --      1.0780                 1.0531                 1.0836
 Frc consts  --      1.5191                 1.4982                 5.5119
 IR Inten    --      9.0828                 2.8003                44.5013

                     64                     65                     66
                      A                      A                      A
 Frequencies --   2955.3867              3017.3861              3037.5146
 Red. masses --      1.0623                 1.0673                 1.0807
 Frc consts  --      5.4666                 5.7253                 5.8746
 IR Inten    --    101.9149                18.1157                71.9515

                     67                     68                     69
                      A                      A                      A
 Frequencies --   3049.8432              3053.0459              3054.6115
 Red. masses --      1.0936                 1.0357                 1.0451
 Frc consts  --      5.9932                 5.6879                 5.7457
 IR Inten    --     28.6300                30.8582                25.3110

                     70                     71                     72
                      A                      A                      A
 Frequencies --   3056.0838              3074.7595              3082.6511
 Red. masses --      1.0625                 1.0600                 1.0671
 Frc consts  --      5.8470                 5.9046                 5.9746
 IR Inten    --     34.4120                50.4086                25.4903

                     73                     74                     75
                      A                      A                      A
 Frequencies --   3089.5329              3092.7768              3109.0930
 Red. masses --      1.0833                 1.0909                 1.1017
 Frc consts  --      6.0924                 6.1478                 6.2747
 IR Inten    --      8.0836                38.4397                58.0022

                     76                     77                     78
                      A                      A                      A
 Frequencies --   3117.9304              3125.0926              3128.0767
 Red. masses --      1.1012                 1.1034                 1.1029
 Frc consts  --      6.3072                 6.3490                 6.3585
 IR Inten    --     41.8812                 8.4054                58.3456

                     79                     80                     81
                      A                      A                      A
 Frequencies --   3143.6370              3154.2804              3156.1483
 Red. masses --      1.1032                 1.0988                 1.0965
 Frc consts  --      6.4235                 6.4414                 6.4355
 IR Inten    --     47.8301                25.7678                13.5634

 - Thermochemistry -
 -------------------
 Temperature   298.150 Kelvin.  Pressure   1.00000 Atm.
 Atom     1 has atomic number  6 and mass  12.00000

 Molecular mass:   141.15175 amu.
 Principal axes and moments of inertia in atomic units:
                           1         2         3
     Eigenvalues --   943.274851847.906112349.07252
           X            0.99991   0.01167  -0.00655
           Y           -0.01164   0.99992   0.00403
           Z            0.00660  -0.00395   0.99997
 This molecule is an asymmetric top.
 Rotational symmetry number  1.
 Warning -- assumption of classical behavior for rotation
           may cause significant error
 Rotational temperatures (Kelvin)      0.09182     0.04687     0.03687
 Rotational constants (GHZ):           1.91327     0.97664     0.76828
 Zero-point vibrational energy     713192.5 (Joules/Mol)
                                  170.45710 (Kcal/Mol)
 Warning -- explicit consideration of  16 degrees of freedom as
           vibrations may cause significant error
 Vibrational temperatures:     93.45   130.41   141.06   204.29   255.10
          (Kelvin)            295.25   314.97   354.99   373.21   405.30
                              462.15   533.61   614.50   670.45   733.74
                              882.39   902.58  1067.21  1108.98  1144.46
                             1159.47  1271.95  1325.96  1354.66  1365.00
                             1402.48  1434.54  1475.49  1517.78  1555.76
                             1573.37  1606.01  1642.59  1663.96  1676.08
                             1685.66  1764.99  1777.51  1827.98  1845.19
                             1855.15  1870.60  1896.97  1937.00  1969.78
                             1981.67  2011.79  2028.12  2036.95  2061.77
                             2076.11  2135.45  2167.06  2177.47  2187.16
                             2192.50  2195.78  2198.84  2203.46  2219.07
                             2225.09  2235.80  4227.52  4252.14  4341.35
                             4370.31  4388.04  4392.65  4394.90  4397.02
                             4423.89  4435.25  4445.15  4449.82  4473.29
                             4486.01  4496.31  4500.60  4522.99  4538.31
                             4540.99

 Zero-point correction=                           0.271641 (Hartree/Particle)
 Thermal correction to Energy=                    0.283329
 Thermal correction to Enthalpy=                  0.284273
 Thermal correction to Gibbs Free Energy=         0.234760
 Sum of electronic and zero-point Energies=           -408.885241
 Sum of electronic and thermal Energies=              -408.873553
 Sum of electronic and thermal Enthalpies=            -408.872609
 Sum of electronic and thermal Free Energies=         -408.922122

                     E (Thermal)             CV                S
                      KCal/Mol        Cal/Mol-Kelvin    Cal/Mol-Kelvin
 Total                  177.792             44.206            104.209
 Electronic               0.000              0.000              0.000
 Translational            0.889              2.981             40.745
 Rotational               0.889              2.981             29.794
 Vibrational            176.014             38.245             33.670
 Vibration     1          0.597              1.971              4.301
 Vibration     2          0.602              1.956              3.646
 Vibration     3          0.603              1.951              3.493
 Vibration     4          0.615              1.911              2.777
 Vibration     5          0.628              1.870              2.357
 Vibration     6          0.640              1.832              2.086
 Vibration     7          0.647              1.812              1.968
 Vibration     8          0.661              1.768              1.754
 Vibration     9          0.668              1.747              1.666
 Vibration    10          0.681              1.708              1.523
 Vibration    11          0.707              1.633              1.304
 Vibration    12          0.743              1.532              1.076
 Vibration    13          0.789              1.411              0.868
 Vibration    14          0.823              1.326              0.749
 Vibration    15          0.865              1.228              0.634
 Vibration    16          0.973              1.004              0.427

 Optimization completed.
    -- Stationary point found.

 1\1\GINC-NODE119\Freq\RB3LYP\6-31G(d)\C9H19N1\VSC10255\08-Dec-2020\0\\
 #N Geom=AllCheck Guess=TCheck SCRF=Check GenChk RB3LYP/6-31G(d) Freq\\
 CID_147220979_JID_235_neutraal\\0,1\C,1.1466009016,-0.0888992947,0.048
 7599502\C,0.5352797489,-0.2791985824,-1.3443526723\C,1.4326017627,-0.9
 520250921,-2.3875391\C,2.9079091622,-0.5040221829,-2.5361711549\C,3.25
 8689253,-1.9461949006,-2.9594249194\C,1.9300051402,-2.4475343592,-2.32
 23072683\N,2.0628599641,-3.0139493797,-0.9785238046\C,0.7797922386,-3.
 5251470438,-0.5091031318\C,3.1245875199,-4.0163612686,-0.8283835694\C,

 Normal termination of Gaussian 16 at Tue Dec  8 10:29:30 2020.

 ----------------------------------------------------------------------
 # B3LYP/6-311++G(d,p) empiricaldispersion=gd3bj scf=xqc pop=npa geom=c
 heck
 ----------------------------------------------------------------------

 --------------------------------------
 CID_147220979_JID_235_Energie_neutraal
 --------------------------------------
 Structure from the checkpoint file:  "JID_235.chk"
 Charge =  0 Multiplicity = 1

 SCF Done:  E(RB3LYP) =  -409.269181030     A.U. after   14 cycles
 Normal termination of Gaussian 16 at Tue Dec  8 10:33:21 2020.

 ----------------------------------------------------------------------
 # B3LYP/6-311++G(d,p) empiricaldispersion=gd3bj scf=xqc pop=npa geom=c
 heck
 ----------------------------------------------------------------------

 ------------------------------------
 CID_147220979_JID_235_Energie_kation
 ------------------------------------
 Structure from the checkpoint file:  "JID_235.chk"
 Charge =  1 Multiplicity = 2

 SCF Done:  E(UB3LYP) =  -408.986730938     A.U. after   17 cycles
 Normal termination of Gaussian 16 at Tue Dec  8 10:40:12 2020.
 Gaussian 16:  ES64L-G16RevA.03 25-Dec-2016

 -----------------------------------
 CID_147220979_JID_235_Energie_anion
 -----------------------------------
 Structure from the checkpoint file:  "JID_235.chk"
 Charge = -1 Multiplicity = 2

                         Standard orientation:
 ---------------------------------------------------------------------
 Center     Atomic      Atomic             Coordinates (Angstroms)
 Number     Number       Type             X           Y           Z
 ---------------------------------------------------------------------
      1          6           0       -2.359059   -1.222109    0.890690
      2          6           0       -2.344363   -0.565095   -0.494520
      3          6           0       -1.381602    0.613058   -0.671064
      4          6           0       -1.307433    1.714649    0.415364
      5          6           0        0.180480    1.910292    0.054958
      6          6           0        0.191699    0.509624   -0.623766
      7          7           0        0.731841   -0.573433    0.200531
      8          6           0        0.772297   -1.820638   -0.554971
      9          6           0        2.026347   -0.288597    0.831213
     10          6           0        3.171651    0.133054   -0.102209
     11          1           0       -1.353643   -1.511689    1.203958
     12          1           0       -3.002942   -2.109161    0.889786
     13          1           0       -2.753760   -0.533442    1.646059
     14          1           0       -2.137124   -1.318780   -1.266111
     15          1           0       -3.355986   -0.195885   -0.717362
     16          1           0       -1.617390    1.092936   -1.630414
     17          1           0       -1.979712    2.572924    0.314657
     18          1           0       -1.414611    1.297390    1.420171
     19          1           0        0.878018    2.092444    0.874693
     20          1           0        0.322669    2.694239   -0.695482
     21          1           0        0.658791    0.499491   -1.625378
     22          1           0        1.412001   -1.768677   -1.455838
     23          1           0        1.147048   -2.626363    0.085075
     24          1           0       -0.232062   -2.094323   -0.882782
     25          1           0        1.880026    0.483196    1.593359
     26          1           0        2.315190   -1.196064    1.374941
     27          1           0        2.940234    1.070395   -0.619638
     28          1           0        4.090764    0.287881    0.474399
     29          1           0        3.379502   -0.627904   -0.861979
 ---------------------------------------------------------------------

 SCF Done:  E(UB3LYP) =  -409.250451091     A.U. after   27 cycles

 The electronic state is 2-A.
 Alpha  occ. eigenvalues --  -14.19423 -10.08657 -10.08308 -10.07537 -10.06216
 Alpha  occ. eigenvalues --  -10.05820 -10.05729 -10.05389 -10.04839 -10.04703
 Alpha  occ. eigenvalues --   -0.81682  -0.72838  -0.65498  -0.63777  -0.57247
 Alpha  occ. eigenvalues --   -0.55800  -0.54219  -0.50006  -0.47407  -0.41155
 Alpha  occ. eigenvalues --   -0.38999  -0.36822  -0.36134  -0.34269  -0.32968
 Alpha  occ. eigenvalues --   -0.31730  -0.30784  -0.29775  -0.28113  -0.27471
 Alpha  occ. eigenvalues --   -0.26416  -0.25456  -0.25194  -0.24522  -0.23302
 Alpha  occ. eigenvalues --   -0.21976  -0.20995  -0.19576  -0.18528  -0.10384
 Alpha  occ. eigenvalues --    0.04867
 Alpha virt. eigenvalues --    0.06874   0.07540   0.07952   0.09137   0.09391
 Alpha virt. eigenvalues --    0.09753   0.10142   0.10725   0.11603   0.12518
 Alpha virt. eigenvalues --    0.12624   0.13177   0.13443   0.14278   0.14645

  Beta  occ. eigenvalues --  -14.19420 -10.08644 -10.08292 -10.07509 -10.06206
  Beta  occ. eigenvalues --  -10.05802 -10.05710 -10.05373 -10.04800 -10.04689
  Beta  occ. eigenvalues --   -0.81665  -0.72811  -0.65467  -0.63735  -0.57199
  Beta  occ. eigenvalues --   -0.55760  -0.54157  -0.49945  -0.47352  -0.41107
  Beta  occ. eigenvalues --   -0.38950  -0.36782  -0.36098  -0.34235  -0.32944
  Beta  occ. eigenvalues --   -0.31696  -0.30746  -0.29736  -0.28076  -0.27422
  Beta  occ. eigenvalues --   -0.26377  -0.25432  -0.25162  -0.24488  -0.23274
  Beta  occ. eigenvalues --   -0.21947  -0.20958  -0.19549  -0.18492  -0.10360
  Beta virt. eigenvalues --    0.07083   0.07877   0.08238   0.08428   0.09732
  Beta virt. eigenvalues --    0.09978   0.10251   0.10616   0.11136   0.12177
  Beta virt. eigenvalues --    0.12972   0.13159   0.13527   0.13829   0.14514

 Mulliken charges and spin densities:
               1          2
     1  C    0.063522  -0.565883
     2  C    0.128270  -0.631430
     3  C   -0.097956   0.519630
     4  C    0.430891  -0.809806
     5  C    0.232979  -0.573095
     6  C   -0.438901  -0.267772
     7  N    0.225072   0.063438
     8  C    0.704298  -1.069154
     9  C   -0.898900   0.874184
    10  C    1.370458  -1.933489
    11  H   -0.062014   0.222140
    12  H   -0.002888   0.122987
    13  H   -0.108454   0.232312
    14  H   -0.210832   0.339245
    15  H   -0.224675   0.371183
    16  H   -0.556457   0.764335
    17  H   -0.208667   0.376086
    18  H    0.170882  -0.063781
    19  H    0.029270   0.101903
    20  H   -0.172094   0.317842
    21  H   -0.038647   0.198311
    22  H   -0.334304   0.457378
    23  H   -0.205694   0.342429
    24  H    0.377658  -0.256005
    25  H   -0.067334   0.196184
    26  H   -0.120588   0.250285
    27  H   -0.228923   0.375642
    28  H   -0.536209   0.682853
    29  H   -0.219763   0.362049
 Sum of Mulliken charges =  -1.00000   1.00000

 Dipole moment (field-independent basis, Debye):
    X=             -1.9227    Y=             -0.5682    Z=              2.3610  Tot=              3.0974
 Quadrupole moment (field-independent basis, Debye-Ang):
   XX=           -133.4583   YY=           -107.8759   ZZ=           -100.2062
   XY=              2.6480   XZ=             -2.4317   YZ=              3.2494

 Summary of Natural Population Analysis:

                                       Natural Population
                Natural  -----------------------------------------------
    Atom  No    Charge         Core      Valence    Rydberg      Total
 -----------------------------------------------------------------------
      C    1   -0.28996      0.99966     2.28547    0.00483     3.28996
      C    2   -0.19080      0.99961     2.18267    0.00851     3.19080
      C    3   -0.10535      0.99958     2.09253    0.01324     3.10535
      C    4   -0.18806      0.99962     2.17988    0.00856     3.18806
      C    5   -0.19262      0.99962     2.18428    0.00872     3.19262
      C    6    0.00289      0.99957     1.98302    0.01453     2.99711
      N    7   -0.28950      0.99971     2.77682    0.01297     3.78950
      C    8   -0.17863      0.99963     2.17023    0.00877     3.17863
      C    9   -0.08113      0.99962     2.06959    0.01192     3.08113
      C   10   -0.29922      0.99966     2.29456    0.00500     3.29922
      H   11    0.10747      0.00000     0.39092    0.00162     0.39253
      H   12    0.09423      0.00000     0.40482    0.00095     0.40577
      H   13    0.09327      0.00000     0.40556    0.00118     0.40673
      H   14    0.09510      0.00000     0.40369    0.00121     0.40490
      H   15    0.09643      0.00000     0.40226    0.00132     0.40357
      H   16    0.09838      0.00000     0.39962    0.00200     0.40162
      H   17    0.09509      0.00000     0.40377    0.00114     0.40491
      H   18    0.09551      0.00000     0.40294    0.00155     0.40449
      H   19    0.09756      0.00000     0.40134    0.00111     0.40244
      H   20    0.09993      0.00000     0.39873    0.00134     0.40007
      H   21    0.08448      0.00000     0.41349    0.00203     0.41552
      H   22    0.08369      0.00000     0.41477    0.00153     0.41631
      H   23    0.09415      0.00000     0.40478    0.00107     0.40585
      H   24    0.09614      0.00000     0.40235    0.00152     0.40386
      H   25    0.09110      0.00000     0.40762    0.00128     0.40890
      H   26    0.09235      0.00000     0.40652    0.00113     0.40765
      H   27    0.09852      0.00000     0.40025    0.00123     0.40148
      H   28    0.10036      0.00000     0.39794    0.00170     0.39964
      H   29    0.09866      0.00000     0.40004    0.00130     0.40134
 =======================================================================
   * Total *    0.00000      9.99628    29.88047    0.12325    40.00000

 Normal termination of Gaussian 16 at Tue Dec  8 10:50:48 2020.
