 Gaussian 16, Revision A.03,

 -----------------------------------------------------------
 # opt freq B3LYP/6-31G(d) empiricaldispersion=gd3bj scf=xqc
 -----------------------------------------------------------

 -------------------------------
 CID_150904461_JID_1722_neutraal
 -------------------------------
 Symbolic Z-matrix:
 Charge =  0 Multiplicity = 1

 SCF Done:  E(RB3LYP) =  -475.766568619     A.U. after   14 cycles
 SCF Done:  E(RB3LYP) =  -475.772743006     A.U. after   12 cycles
 SCF Done:  E(RB3LYP) =  -475.773588569     A.U. after   11 cycles
 SCF Done:  E(RB3LYP) =  -475.773758057     A.U. after   11 cycles
 SCF Done:  E(RB3LYP) =  -475.773791574     A.U. after   10 cycles
 SCF Done:  E(RB3LYP) =  -475.773797066     A.U. after    8 cycles
 SCF Done:  E(RB3LYP) =  -475.773798639     A.U. after    8 cycles
 Optimization completed.
    -- Stationary point found.

 1\1\GINC-NODE201\FOpt\RB3LYP\6-31G(d)\C8H11N3\VSC10255\08-Dec-2020\0\\
 # opt freq B3LYP/6-31G(d) empiricaldispersion=gd3bj scf=xqc\\CID_15090
 4461_JID_1722_neutraal\\0,1\C,0.9450009279,-0.0428075484,0.0071063782\
 C,0.2387881574,1.1115583734,-0.7106544611\C,1.1403741667,2.3846812038,
 -0.7609222084\C,0.7198707382,3.1622712007,0.4567942796\C,-0.505968696,
 2.633588039,0.9163383896\N,-0.9213668454,1.5931647017,0.0975838667\N,-
 1.1858024947,3.0614705063,1.9747882565\C,-0.6320127678,4.104299317,2.6
 26771893\C,0.5637783948,4.7153534564,2.2634720085\C,1.2636159017,4.227

 Normal termination of Gaussian 16 at Tue Dec  8 20:50:19 2020.

 --------------------------------------------------------------------
 #N Geom=AllCheck Guess=TCheck SCRF=Check GenChk RB3LYP/6-31G(d) Freq
 --------------------------------------------------------------------

 Structure from the checkpoint file:  "JID_1722.chk"
 -------------------------------
 CID_150904461_JID_1722_neutraal
 -------------------------------
 Charge =  0 Multiplicity = 1

 SCF Done:  E(RB3LYP) =  -475.773798639     A.U. after    1 cycles

  Exact polarizability: 138.116  -2.755  96.276  -4.846  -0.316  60.217
 Approx polarizability: 198.956  -5.267 167.834 -12.217   1.604  88.403

                      1                      2                      3
                      A                      A                      A
 Frequencies --     73.4154               159.6855               262.6102
 Red. masses --      3.4872                 3.4389                 2.3205
 Frc consts  --      0.0111                 0.0517                 0.0943
 IR Inten    --      0.0512                 1.8507                 2.1780

                      4                      5                      6
                      A                      A                      A
 Frequencies --    265.3192               298.4493               321.7828
 Red. masses --      1.6966                 1.9309                 1.4020
 Frc consts  --      0.0704                 0.1013                 0.0855
 IR Inten    --      6.9053                 4.3819                22.6435

                      7                      8                      9
                      A                      A                      A
 Frequencies --    341.5231               367.3980               424.3165
 Red. masses --      1.9112                 2.1664                 3.4382
 Frc consts  --      0.1313                 0.1723                 0.3647
 IR Inten    --     11.1039                13.7882                 1.3811

                     10                     11                     12
                      A                      A                      A
 Frequencies --    464.1286               503.1390               530.5530
 Red. masses --      2.6705                 2.8521                 2.8072
 Frc consts  --      0.3389                 0.4254                 0.4656
 IR Inten    --      2.7671                 2.2795                22.7349

                     13                     14                     15
                      A                      A                      A
 Frequencies --    555.8659               601.4139               630.3486
 Red. masses --      2.9255                 3.8688                 4.6755
 Frc consts  --      0.5326                 0.8245                 1.0946
 IR Inten    --     29.7200                74.2096                11.0983

                     16                     17                     18
                      A                      A                      A
 Frequencies --    690.6297               772.1835               788.6719
 Red. masses --      2.8125                 5.5661                 1.2918
 Frc consts  --      0.7904                 1.9554                 0.4734
 IR Inten    --     86.2482                 7.0435                44.3013

                     19                     20                     21
                      A                      A                      A
 Frequencies --    809.9166               830.1604               899.9745
 Red. masses --      2.9036                 4.2649                 1.6963
 Frc consts  --      1.1222                 1.7317                 0.8095
 IR Inten    --     19.6818                51.2906               138.4369

                     22                     23                     24
                      A                      A                      A
 Frequencies --    918.3545               929.0816               948.3821
 Red. masses --      3.5882                 1.9509                 2.0726
 Frc consts  --      1.7830                 0.9922                 1.0984
 IR Inten    --      5.2966                14.5689                23.3680

                     25                     26                     27
                      A                      A                      A
 Frequencies --    955.3263               964.9302              1012.7948
 Red. masses --      1.4235                 1.3354                 1.6857
 Frc consts  --      0.7654                 0.7326                 1.0188
 IR Inten    --      2.2620                 0.8027                15.3412

                     28                     29                     30
                      A                      A                      A
 Frequencies --   1043.6268              1075.5783              1116.1302
 Red. masses --      1.5555                 2.4125                 1.8722
 Frc consts  --      0.9982                 1.6444                 1.3742
 IR Inten    --     17.6760                 0.7768                27.7172

                     31                     32                     33
                      A                      A                      A
 Frequencies --   1152.9401              1179.1794              1214.2745
 Red. masses --      1.3670                 1.6478                 2.3440
 Frc consts  --      1.0706                 1.3499                 2.0363
 IR Inten    --     13.8490                67.6079                39.9083

                     34                     35                     36
                      A                      A                      A
 Frequencies --   1259.7537              1272.3965              1318.1747
 Red. masses --      1.4789                 2.0263                 2.7181
 Frc consts  --      1.3828                 1.9328                 2.7826
 IR Inten    --      6.0617                12.4689                 1.3858

                     37                     38                     39
                      A                      A                      A
 Frequencies --   1332.2909              1343.3162              1383.3373
 Red. masses --      2.1132                 1.7732                 2.5062
 Frc consts  --      2.2099                 1.8852                 2.8256
 IR Inten    --     32.6599                25.6557                12.2172

                     40                     41                     42
                      A                      A                      A
 Frequencies --   1434.1831              1451.2195              1488.0954
 Red. masses --      1.2978                 1.9104                 3.4882
 Frc consts  --      1.5727                 2.3705                 4.5510
 IR Inten    --     13.4254                10.1192               190.6773

                     43                     44                     45
                      A                      A                      A
 Frequencies --   1505.3496              1518.0478              1520.8981
 Red. masses --      1.1152                 1.3078                 1.5578
 Frc consts  --      1.4890                 1.7756                 2.1230
 IR Inten    --      1.8666                25.0485                40.6578

                     46                     47                     48
                      A                      A                      A
 Frequencies --   1530.8686              1643.6103              1671.0494
 Red. masses --      1.1666                 6.1617                 6.6196
 Frc consts  --      1.6108                 9.8073                10.8908
 IR Inten    --     13.6314                37.4665                98.6836

                     49                     50                     51
                      A                      A                      A
 Frequencies --   1703.5335              3039.2118              3047.0856
 Red. masses --      1.0969                 1.0680                 1.0403
 Frc consts  --      1.8756                 5.8120                 5.6907
 IR Inten    --     34.2013                31.8326                19.2352

                     52                     53                     54
                      A                      A                      A
 Frequencies --   3106.1610              3116.3769              3141.8033
 Red. masses --      1.0956                 1.0967                 1.1040
 Frc consts  --      6.2281                 6.2754                 6.4207
 IR Inten    --     13.4095                25.0917                20.4311

                     55                     56                     57
                      A                      A                      A
 Frequencies --   3173.3587              3186.6880              3216.5616
 Red. masses --      1.0888                 1.0903                 1.0953
 Frc consts  --      6.4601                 6.5234                 6.6767
 IR Inten    --     26.0258                17.7179                24.1748

                     58                     59                     60
                      A                      A                      A
 Frequencies --   3462.9175              3547.9933              3564.0345
 Red. masses --      1.0495                 1.0922                 1.0762
 Frc consts  --      7.4150                 8.1009                 8.0541
 IR Inten    --      0.5833                 0.4104                 9.6816

 - Thermochemistry -
 -------------------
 Temperature   298.150 Kelvin.  Pressure   1.00000 Atm.
 Atom     1 has atomic number  6 and mass  12.00000

 Molecular mass:   149.09530 amu.
 Principal axes and moments of inertia in atomic units:
                           1         2         3
     Eigenvalues --   677.435262240.231552526.85124
           X            0.99993  -0.01014   0.00535
           Y            0.01020   0.99988  -0.01203
           Z           -0.00523   0.01209   0.99991
 This molecule is an asymmetric top.
 Rotational symmetry number  1.
 Warning -- assumption of classical behavior for rotation
           may cause significant error
 Rotational temperatures (Kelvin)      0.12786     0.03866     0.03428
 Rotational constants (GHZ):           2.66408     0.80560     0.71423
 Zero-point vibrational energy     490949.8 (Joules/Mol)
                                  117.33982 (Kcal/Mol)
 Warning -- explicit consideration of  14 degrees of freedom as
           vibrations may cause significant error
 Vibrational temperatures:    105.63   229.75   377.84   381.74   429.40
          (Kelvin)            462.97   491.38   528.60   610.50   667.78
                              723.90   763.35   799.77   865.30   906.93
                              993.66  1111.00  1134.72  1165.29  1194.42
                             1294.86  1321.31  1336.74  1364.51  1374.50
                             1388.32  1457.19  1501.55  1547.52  1605.86
                             1658.82  1696.58  1747.07  1812.50  1830.69
                             1896.56  1916.87  1932.73  1990.31  2063.47
                             2087.98  2141.04  2165.86  2184.13  2188.23
                             2202.58  2364.79  2404.27  2451.00  4372.75
                             4384.08  4469.07  4483.77  4520.35  4565.76
                             4584.93  4627.91  4982.37  5104.77  5127.85

 Zero-point correction=                           0.186993 (Hartree/Particle)
 Thermal correction to Energy=                    0.196146
 Thermal correction to Enthalpy=                  0.197090
 Thermal correction to Gibbs Free Energy=         0.153209
 Sum of electronic and zero-point Energies=           -475.586806
 Sum of electronic and thermal Energies=              -475.577653
 Sum of electronic and thermal Enthalpies=            -475.576709
 Sum of electronic and thermal Free Energies=         -475.620589

                     E (Thermal)             CV                S
                      KCal/Mol        Cal/Mol-Kelvin    Cal/Mol-Kelvin
 Total                  123.083             37.630             92.355
 Electronic               0.000              0.000              0.000
 Translational            0.889              2.981             40.909
 Rotational               0.889              2.981             29.729
 Vibrational            121.306             31.668             21.717
 Vibration     1          0.599              1.967              4.060
 Vibration     2          0.622              1.892              2.554
 Vibration     3          0.670              1.741              1.644
 Vibration     4          0.671              1.737              1.627
 Vibration     5          0.692              1.677              1.426
 Vibration     6          0.707              1.632              1.301
 Vibration     7          0.721              1.592              1.205
 Vibration     8          0.740              1.539              1.091
 Vibration     9          0.786              1.417              0.877
 Vibration    10          0.822              1.330              0.754
 Vibration    11          0.858              1.243              0.650
 Vibration    12          0.886              1.182              0.586
 Vibration    13          0.911              1.127              0.532
 Vibration    14          0.960              1.029              0.447

 Optimization completed.
    -- Stationary point found.

 1\1\GINC-NODE201\Freq\RB3LYP\6-31G(d)\C8H11N3\VSC10255\08-Dec-2020\0\\
 #N Geom=AllCheck Guess=TCheck SCRF=Check GenChk RB3LYP/6-31G(d) Freq\\
 CID_150904461_JID_1722_neutraal\\0,1\C,0.9450009279,-0.0428075484,0.00
 71063782\C,0.2387881574,1.1115583734,-0.7106544611\C,1.1403741667,2.38
 46812038,-0.7609222084\C,0.7198707382,3.1622712007,0.4567942796\C,-0.5
 05968696,2.633588039,0.9163383896\N,-0.9213668454,1.5931647017,0.09758
 38667\N,-1.1858024947,3.0614705063,1.9747882565\C,-0.6320127678,4.1042
 99317,2.626771893\C,0.5637783948,4.7153534564,2.2634720085\C,1.2636159

 Normal termination of Gaussian 16 at Tue Dec  8 20:54:37 2020.

 ----------------------------------------------------------------------
 # B3LYP/6-311++G(d,p) empiricaldispersion=gd3bj scf=xqc pop=npa geom=c
 heck
 ----------------------------------------------------------------------

 ---------------------------------------
 CID_150904461_JID_1722_Energie_neutraal
 ---------------------------------------
 Structure from the checkpoint file:  "JID_1722.chk"
 Charge =  0 Multiplicity = 1

 SCF Done:  E(RB3LYP) =  -475.910476920     A.U. after   15 cycles
 Normal termination of Gaussian 16 at Tue Dec  8 20:56:48 2020.

 ----------------------------------------------------------------------
 # B3LYP/6-311++G(d,p) empiricaldispersion=gd3bj scf=xqc pop=npa geom=c
 heck
 ----------------------------------------------------------------------

 -------------------------------------
 CID_150904461_JID_1722_Energie_kation
 -------------------------------------
 Structure from the checkpoint file:  "JID_1722.chk"
 Charge =  1 Multiplicity = 2

 SCF Done:  E(UB3LYP) =  -475.627135617     A.U. after   22 cycles
 Normal termination of Gaussian 16 at Tue Dec  8 21:01:05 2020.
 Gaussian 16:  ES64L-G16RevA.03 25-Dec-2016

 ------------------------------------
 CID_150904461_JID_1722_Energie_anion
 ------------------------------------
 Structure from the checkpoint file:  "JID_1722.chk"
 Charge = -1 Multiplicity = 2

                         Standard orientation:
 ---------------------------------------------------------------------
 Center     Atomic      Atomic             Coordinates (Angstroms)
 Number     Number       Type             X           Y           Z
 ---------------------------------------------------------------------
      1          6           0        2.156674   -0.091714    1.463616
      2          6           0        1.745750    0.012521   -0.008374
      3          6           0        0.872514    1.280486   -0.265182
      4          6           0       -0.536727    0.771709   -0.125575
      5          6           0       -0.504496   -0.638586   -0.183873
      6          7           0        0.796984   -1.085804   -0.361473
      7          7           0       -1.558930   -1.441892   -0.092001
      8          6           0       -2.744808   -0.814993    0.049241
      9          6           0       -2.903831    0.565753    0.108758
     10          6           0       -1.763256    1.385611    0.020946
     11          7           0        2.939625    0.045572   -0.830819
     12          1           0        2.670993   -1.041944    1.656614
     13          1           0        1.273165   -0.046533    2.108024
     14          1           0        2.834529    0.725011    1.729023
     15          1           0        1.063793    1.646781   -1.283164
     16          1           0        1.135988    2.089130    0.423137
     17          1           0        1.000410   -2.014729   -0.007487
     18          1           0       -3.612084   -1.468170    0.124985
     19          1           0       -3.892077    0.996328    0.231776
     20          1           0       -1.850049    2.468011    0.076929
     21          1           0        3.532856   -0.755715   -0.618380
     22          1           0        2.667806   -0.048025   -1.808749
 ---------------------------------------------------------------------

 SCF Done:  E(UB3LYP) =  -475.895908248     A.U. after   33 cycles
 SCF Done:  E(UB3LYP) =  -475.895908248     a.u. after    1 cycles

 The electronic state is 2-A.
 Alpha  occ. eigenvalues --  -14.21585 -14.20242 -14.19025 -10.14186 -10.13326
 Alpha  occ. eigenvalues --  -10.10438 -10.08650 -10.07886 -10.07619 -10.07182
 Alpha  occ. eigenvalues --  -10.05747  -0.87619  -0.82349  -0.76519  -0.71392
 Alpha  occ. eigenvalues --   -0.65648  -0.63918  -0.59306  -0.52511  -0.50875
 Alpha  occ. eigenvalues --   -0.48237  -0.43111  -0.40081  -0.39051  -0.37260
 Alpha  occ. eigenvalues --   -0.36428  -0.34728  -0.31305  -0.30504  -0.30026
 Alpha  occ. eigenvalues --   -0.29369  -0.28548  -0.27734  -0.27047  -0.24381
 Alpha  occ. eigenvalues --   -0.20984  -0.17847  -0.16433  -0.15464  -0.11005
 Alpha  occ. eigenvalues --    0.04595
 Alpha virt. eigenvalues --    0.06386   0.06922   0.07839   0.08684   0.09270
 Alpha virt. eigenvalues --    0.09878   0.09917   0.10765   0.11288   0.11649
 Alpha virt. eigenvalues --    0.12974   0.13876   0.14949   0.15793   0.16063

  Beta  occ. eigenvalues --  -14.21561 -14.20237 -14.18978 -10.14185 -10.13323
  Beta  occ. eigenvalues --  -10.10435 -10.08632 -10.07884 -10.07590 -10.07172
  Beta  occ. eigenvalues --  -10.05697  -0.87602  -0.82326  -0.76458  -0.71371
  Beta  occ. eigenvalues --   -0.65613  -0.63859  -0.59251  -0.52460  -0.50850
  Beta  occ. eigenvalues --   -0.48166  -0.43061  -0.40035  -0.38999  -0.37221
  Beta  occ. eigenvalues --   -0.36386  -0.34689  -0.31266  -0.30472  -0.29989
  Beta  occ. eigenvalues --   -0.29328  -0.28515  -0.27695  -0.27003  -0.24333
  Beta  occ. eigenvalues --   -0.20962  -0.17834  -0.16410  -0.15423  -0.10983
  Beta virt. eigenvalues --    0.06896   0.06973   0.07645   0.08566   0.09345
  Beta virt. eigenvalues --    0.09923   0.10006   0.10629   0.11380   0.11968
  Beta virt. eigenvalues --    0.12308   0.13398   0.14419   0.14931   0.16014

 Mulliken charges and spin densities:
               1          2
     1  C    1.550020  -2.135314
     2  C   -1.026250   1.069097
     3  C    3.411749  -4.191185
     4  C    0.029205   1.217911
     5  C   -1.542642   0.597278
     6  N    0.081881  -0.100747
     7  N   -0.169731   0.079910
     8  C    0.270546  -0.437836
     9  C    0.963894  -1.094101
    10  C   -1.349870   0.906492
    11  N   -0.366586   0.118252
    12  H   -0.620140   0.783644
    13  H   -0.120333   0.280089
    14  H   -0.128946   0.298446
    15  H    0.031343   0.143397
    16  H   -0.229002   0.407445
    17  H   -0.022118   0.283371
    18  H    0.038337   0.135940
    19  H   -0.401706   0.559854
    20  H   -0.851126   1.035475
    21  H   -0.327008   0.576355
    22  H   -0.221518   0.466225
 Sum of Mulliken charges =  -1.00000   1.00000

 Dipole moment (field-independent basis, Debye):
    X=             -3.8487    Y=             -0.1537    Z=             -0.5581  Tot=              3.8920
 Quadrupole moment (field-independent basis, Debye-Ang):
   XX=           -131.0198   YY=           -107.4053   ZZ=            -96.7058
   XY=              9.1804   XZ=              0.0264   YZ=             -0.1513

 Summary of Natural Population Analysis:

                                       Natural Population
                Natural  -----------------------------------------------
    Atom  No    Charge         Core      Valence    Rydberg      Total
 -----------------------------------------------------------------------
      C    1   -0.29447      0.99960     2.28779    0.00708     3.29447
      C    2    0.15309      0.99961     1.83109    0.01621     2.84691
      C    3   -0.19642      0.99956     2.18648    0.01038     3.19642
      C    4   -0.04765      0.99947     2.03726    0.01092     3.04765
      C    5    0.20745      0.99946     1.77769    0.01540     2.79255
      N    6   -0.32472      0.99966     2.81353    0.01154     3.82472
      N    7   -0.25771      0.99967     2.74681    0.01123     3.75771
      C    8    0.02727      0.99958     1.95962    0.01353     2.97273
      C    9   -0.14355      0.99957     2.13369    0.01029     3.14355
      C   10   -0.07787      0.99951     2.06797    0.01038     3.07787
      N   11   -0.42013      0.99973     2.90964    0.01075     3.92013
      H   12    0.10323      0.00000     0.39426    0.00252     0.39677
      H   13    0.10324      0.00000     0.39514    0.00162     0.39676
      H   14    0.10648      0.00000     0.39221    0.00131     0.39352
      H   15    0.10851      0.00000     0.39002    0.00147     0.39149
      H   16    0.11047      0.00000     0.38809    0.00145     0.38953
      H   17    0.19192      0.00000     0.30408    0.00401     0.30808
      H   18    0.08744      0.00000     0.41150    0.00106     0.41256
      H   19    0.10288      0.00000     0.39600    0.00112     0.39712
      H   20    0.10369      0.00000     0.39464    0.00167     0.39631
      H   21    0.17953      0.00000     0.31540    0.00507     0.32047
      H   22    0.17733      0.00000     0.31960    0.00307     0.32267
 =======================================================================
   * Total *   -0.00000     10.99541    28.85251    0.15208    40.00000

 Normal termination of Gaussian 16 at Tue Dec  8 21:08:39 2020.
