 Gaussian 16, Revision A.03,

 -----------------------------------------------------------
 # opt freq B3LYP/6-31G(d) empiricaldispersion=gd3bj scf=xqc
 -----------------------------------------------------------

 ------------------------------
 CID_76952846_JID_5581_neutraal
 ------------------------------
 Symbolic Z-matrix:
 Charge =  0 Multiplicity = 1

 SCF Done:  E(RB3LYP) =  -756.687507760     A.U. after   15 cycles
 SCF Done:  E(RB3LYP) =  -756.693649549     A.U. after   13 cycles
 SCF Done:  E(RB3LYP) =  -756.695100829     A.U. after   13 cycles
 SCF Done:  E(RB3LYP) =  -756.696048180     A.U. after   12 cycles
 SCF Done:  E(RB3LYP) =  -756.696437757     A.U. after   12 cycles
 SCF Done:  E(RB3LYP) =  -756.696782293     A.U. after   12 cycles
 SCF Done:  E(RB3LYP) =  -756.697226025     A.U. after   12 cycles
 SCF Done:  E(RB3LYP) =  -756.697416955     A.U. after   13 cycles
 SCF Done:  E(RB3LYP) =  -756.697785215     A.U. after   12 cycles
 SCF Done:  E(RB3LYP) =  -756.697965013     A.U. after   12 cycles
 SCF Done:  E(RB3LYP) =  -756.698795703     A.U. after   10 cycles
 SCF Done:  E(RB3LYP) =  -756.698799019     A.U. after    9 cycles
 SCF Done:  E(RB3LYP) =  -756.698799177     A.U. after    7 cycles
 SCF Done:  E(RB3LYP) =  -756.698799235     A.U. after    7 cycles
 Optimization completed.
    -- Stationary point found.
 Normal termination of Gaussian 16 at Thu Dec 10 16:34:51 2020.

 --------------------------------------------------------------------
 #N Geom=AllCheck Guess=TCheck SCRF=Check GenChk RB3LYP/6-31G(d) Freq
 --------------------------------------------------------------------

 Structure from the checkpoint file:  "JID_5581.chk"
 ------------------------------
 CID_76952846_JID_5581_neutraal
 ------------------------------
 Charge =  0 Multiplicity = 1

 SCF Done:  E(RB3LYP) =  -756.698799235     A.U. after    1 cycles

  Exact polarizability: 155.233   0.009 123.465   8.559   4.658  78.168
 Approx polarizability: 207.621  13.697 206.081  12.778   6.656 123.573

                      1                      2                      3
                      A                      A                      A
 Frequencies --     20.0288                31.9001                43.9786
 Red. masses --      5.2209                 5.8665                 5.0135
 Frc consts  --      0.0012                 0.0035                 0.0057
 IR Inten    --      3.2790                 0.5705                 0.5982

                      4                      5                      6
                      A                      A                      A
 Frequencies --     57.8809                61.7639               110.7747
 Red. masses --      3.8750                 7.2416                 4.2506
 Frc consts  --      0.0076                 0.0163                 0.0307
 IR Inten    --      0.5558                 0.4307                 1.0843

                      7                      8                      9
                      A                      A                      A
 Frequencies --    126.0154               164.8491               191.9016
 Red. masses --      1.0985                 4.3124                 5.5096
 Frc consts  --      0.0103                 0.0690                 0.1195
 IR Inten    --      0.0334                 2.1831                 1.4777

                     10                     11                     12
                      A                      A                      A
 Frequencies --    272.1766               284.5224               294.3897
 Red. masses --      3.5144                 4.0132                 3.5207
 Frc consts  --      0.1534                 0.1914                 0.1798
 IR Inten    --     18.8534                 0.8071                15.6507

                     13                     14                     15
                      A                      A                      A
 Frequencies --    323.0766               345.3234               352.8695
 Red. masses --      2.5129                 3.3257                 1.6740
 Frc consts  --      0.1545                 0.2337                 0.1228
 IR Inten    --     13.2219                 0.9162                57.9824

                     16                     17                     18
                      A                      A                      A
 Frequencies --    372.1091               410.0875               432.7492
 Red. masses --      1.7423                 2.6432                 2.2015
 Frc consts  --      0.1421                 0.2619                 0.2429
 IR Inten    --     73.1753                30.3308                18.2814

                     19                     20                     21
                      A                      A                      A
 Frequencies --    473.4276               522.7592               597.3217
 Red. masses --      1.9202                 4.2512                 4.5590
 Frc consts  --      0.2536                 0.6845                 0.9584
 IR Inten    --      7.1245                 6.0397                 4.9894

                     22                     23                     24
                      A                      A                      A
 Frequencies --    624.3494               638.4683               654.0603
 Red. masses --      3.3482                 2.5399                 2.8239
 Frc consts  --      0.7690                 0.6100                 0.7118
 IR Inten    --     51.0186                23.1732                39.0495

                     25                     26                     27
                      A                      A                      A
 Frequencies --    655.9914               681.0819               711.2107
 Red. masses --      3.4530                 2.8137                 4.2539
 Frc consts  --      0.8755                 0.7690                 1.2677
 IR Inten    --     23.8846                47.1361                27.4168

                     28                     29                     30
                      A                      A                      A
 Frequencies --    768.6961               781.5321               801.7110
 Red. masses --      5.2521                 1.5972                 2.7117
 Frc consts  --      1.8285                 0.5748                 1.0269
 IR Inten    --     26.8728               171.2080                 6.3518

                     31                     32                     33
                      A                      A                      A
 Frequencies --    827.7131               904.5820               955.5889
 Red. masses --      1.4585                 2.3016                10.3518
 Frc consts  --      0.5887                 1.1096                 5.5694
 IR Inten    --     19.7025                79.2523                19.3134

                     34                     35                     36
                      A                      A                      A
 Frequencies --    971.5460               993.0193               998.8533
 Red. masses --      3.8032                 2.6939                 2.3599
 Frc consts  --      2.1151                 1.5651                 1.3872
 IR Inten    --     79.0653                22.6826                23.4072

                     37                     38                     39
                      A                      A                      A
 Frequencies --   1011.8445              1047.8365              1057.7409
 Red. masses --      3.5118                 2.0008                 3.1467
 Frc consts  --      2.1184                 1.2943                 2.0742
 IR Inten    --      1.6890                15.9609                 3.6827

                     40                     41                     42
                      A                      A                      A
 Frequencies --   1079.1475              1124.6707              1158.4633
 Red. masses --      1.4977                 2.2239                 1.9865
 Frc consts  --      1.0277                 1.6573                 1.5707
 IR Inten    --      2.4858                 0.6840                 9.4583

                     43                     44                     45
                      A                      A                      A
 Frequencies --   1173.1395              1224.0079              1267.3480
 Red. masses --      1.5620                 1.2379                 2.7038
 Frc consts  --      1.2666                 1.0927                 2.5587
 IR Inten    --     51.6779                37.3046                44.2448

                     46                     47                     48
                      A                      A                      A
 Frequencies --   1292.0166              1337.9705              1371.8186
 Red. masses --      1.5590                 1.5582                 1.8972
 Frc consts  --      1.5333                 1.6435                 2.1036
 IR Inten    --      5.8317                54.4987               171.0536

                     49                     50                     51
                      A                      A                      A
 Frequencies --   1391.2922              1421.8158              1430.9739
 Red. masses --      1.5866                 1.6250                 1.4531
 Frc consts  --      1.8095                 1.9355                 1.7531
 IR Inten    --     58.3355                62.7520                 3.1906

                     52                     53                     54
                      A                      A                      A
 Frequencies --   1446.5089              1465.4509              1501.3677
 Red. masses --      1.8399                 2.7770                 2.0157
 Frc consts  --      2.2682                 3.5137                 2.6770
 IR Inten    --      1.2261                22.9386                14.6841

                     55                     56                     57
                      A                      A                      A
 Frequencies --   1504.3239              1512.0707              1518.5052
 Red. masses --      1.1366                 1.0437                 1.6863
 Frc consts  --      1.5155                 1.4059                 2.2910
 IR Inten    --     21.0955                 8.1801                62.9474

                     58                     59                     60
                      A                      A                      A
 Frequencies --   1528.8406              1539.5390              1635.8707
 Red. masses --      1.1384                 2.0599                 6.4157
 Frc consts  --      1.5677                 2.8766                10.1156
 IR Inten    --      6.9445                45.1453                39.1528

                     61                     62                     63
                      A                      A                      A
 Frequencies --   1666.8240              1744.6498              1779.7320
 Red. masses --      1.1708                 5.9969                 8.3709
 Frc consts  --      1.9165                10.7547                15.6219
 IR Inten    --     58.1050               105.9117               364.4028

                     64                     65                     66
                      A                      A                      A
 Frequencies --   3050.0805              3059.4509              3077.6423
 Red. masses --      1.0698                 1.0374                 1.0690
 Frc consts  --      5.8635                 5.7210                 5.9655
 IR Inten    --     16.8678                16.5546                33.1888

                     67                     68                     69
                      A                      A                      A
 Frequencies --   3115.3412              3149.1918              3156.1722
 Red. masses --      1.1016                 1.0951                 1.1011
 Frc consts  --      6.2993                 6.3991                 6.4623
 IR Inten    --     12.8686                 2.9047                 6.5260

                     70                     71                     72
                      A                      A                      A
 Frequencies --   3157.1753              3288.1553              3516.8584
 Red. masses --      1.0950                 1.0978                 1.0474
 Frc consts  --      6.4309                 6.9935                 7.6325
 IR Inten    --      8.2741                 0.8885                13.2295

                     73                     74                     75
                      A                      A                      A
 Frequencies --   3574.0888              3620.2848              3772.4112
 Red. masses --      1.0757                 1.0978                 1.0678
 Frc consts  --      8.0957                 8.4776                 8.9530
 IR Inten    --     75.8517                 9.5054                73.9787

 - Thermochemistry -
 -------------------
 Temperature   298.150 Kelvin.  Pressure   1.00000 Atm.
 Atom     1 has atomic number  6 and mass  12.00000

 Molecular mass:   212.09094 amu.
 Principal axes and moments of inertia in atomic units:
                           1         2         3
     Eigenvalues --  1621.192766522.108247629.18729
           X            0.99976  -0.02152   0.00354
           Y            0.02153   0.99977  -0.00244
           Z           -0.00349   0.00251   0.99999
 This molecule is an asymmetric top.
 Rotational symmetry number  1.
 Warning -- assumption of classical behavior for rotation
           may cause significant error
 Rotational temperatures (Kelvin)      0.05343     0.01328     0.01135
 Rotational constants (GHZ):           1.11322     0.27671     0.23656
 Zero-point vibrational energy     563614.2 (Joules/Mol)
                                  134.70702 (Kcal/Mol)
 Warning -- explicit consideration of  21 degrees of freedom as
           vibrations may cause significant error
 Vibrational temperatures:     28.82    45.90    63.28    83.28    88.86
          (Kelvin)            159.38   181.31   237.18   276.10   391.60
                              409.36   423.56   464.84   496.84   507.70
                              535.38   590.02   622.63   681.16   752.13
                              859.41   898.30   918.61   941.05   943.83
                              979.92  1023.27  1105.98  1124.45  1153.48
                             1190.89  1301.49  1374.88  1397.84  1428.73
                             1437.13  1455.82  1507.60  1521.85  1552.65
                             1618.15  1666.77  1687.89  1761.07  1823.43
                             1858.92  1925.04  1973.74  2001.76  2045.68
                             2058.85  2081.20  2108.46  2160.13  2164.39
                             2175.53  2184.79  2199.66  2215.05  2353.65
                             2398.19  2510.16  2560.64  4388.39  4401.87
                             4428.04  4482.28  4530.98  4541.03  4542.47
                             4730.92  5059.97  5142.32  5208.78  5427.66

 Zero-point correction=                           0.214669 (Hartree/Particle)
 Thermal correction to Energy=                    0.229935
 Thermal correction to Enthalpy=                  0.230879
 Thermal correction to Gibbs Free Energy=         0.169526
 Sum of electronic and zero-point Energies=           -756.484130
 Sum of electronic and thermal Energies=              -756.468864
 Sum of electronic and thermal Enthalpies=            -756.467920
 Sum of electronic and thermal Free Energies=         -756.529273

                     E (Thermal)             CV                S
                      KCal/Mol        Cal/Mol-Kelvin    Cal/Mol-Kelvin
 Total                  144.286             55.280            129.129
 Electronic               0.000              0.000              0.000
 Translational            0.889              2.981             41.959
 Rotational               0.889              2.981             32.756
 Vibrational            142.509             49.319             54.415
 Vibration     1          0.593              1.986              6.631
 Vibration     2          0.594              1.983              5.708
 Vibration     3          0.595              1.980              5.071
 Vibration     4          0.596              1.974              4.528
 Vibration     5          0.597              1.973              4.400
 Vibration     6          0.607              1.941              3.255
 Vibration     7          0.611              1.927              3.006
 Vibration     8          0.623              1.886              2.493
 Vibration     9          0.634              1.851              2.209
 Vibration    10          0.675              1.725              1.582
 Vibration    11          0.683              1.702              1.506
 Vibration    12          0.689              1.684              1.449
 Vibration    13          0.708              1.629              1.294
 Vibration    14          0.724              1.585              1.187
 Vibration    15          0.729              1.569              1.153
 Vibration    16          0.744              1.529              1.071
 Vibration    17          0.774              1.448              0.926
 Vibration    18          0.794              1.399              0.850
 Vibration    19          0.830              1.309              0.728
 Vibration    20          0.878              1.200              0.604
 Vibration    21          0.955              1.037              0.454

                           ! Non-Optimized Parameters !
 Normal termination of Gaussian 16 at Thu Dec 10 16:42:15 2020.

 ----------------------------------------------------------------------
 # B3LYP/6-311++G(d,p) empiricaldispersion=gd3bj scf=xqc pop=npa geom=c
 heck
 ----------------------------------------------------------------------

 --------------------------------------
 CID_76952846_JID_5581_Energie_neutraal
 --------------------------------------
 Structure from the checkpoint file:  "JID_5581.chk"
 Charge =  0 Multiplicity = 1

 SCF Done:  E(RB3LYP) =  -756.931665814     A.U. after   16 cycles
 Normal termination of Gaussian 16 at Thu Dec 10 16:46:58 2020.

 ----------------------------------------------------------------------
 # B3LYP/6-311++G(d,p) empiricaldispersion=gd3bj scf=xqc pop=npa geom=c
 heck
 ----------------------------------------------------------------------

 ------------------------------------
 CID_76952846_JID_5581_Energie_kation
 ------------------------------------
 Structure from the checkpoint file:  "JID_5581.chk"
 Charge =  1 Multiplicity = 2

 SCF Done:  E(UB3LYP) =  -756.615942301     A.U. after   33 cycles
 SCF Done:  E(UB3LYP) =  -756.615942301     a.u. after    1 cycles
 Normal termination of Gaussian 16 at Thu Dec 10 17:03:26 2020.
 Gaussian 16:  ES64L-G16RevA.03 25-Dec-2016

 ----------------------------------------------------------------------
 # B3LYP/6-311++G(d,p) empiricaldispersion=gd3bj scf=xqc pop=npa geom=c
 heck
 ----------------------------------------------------------------------

 -----------------------------------
 CID_76952846_JID_5581_Energie_anion
 -----------------------------------
 Structure from the checkpoint file:  "JID_5581.chk"
 Charge = -1 Multiplicity = 2

                         Standard orientation:
 ---------------------------------------------------------------------
 Center     Atomic      Atomic             Coordinates (Angstroms)
 Number     Number       Type             X           Y           Z
 ---------------------------------------------------------------------
      1          6           0        4.015361   -2.285421    0.560715
      2          6           0        3.293486   -1.026013    0.199549
      3          7           0        3.942413   -0.021957   -0.350905
      4          8           0        3.000570    0.986461   -0.546543
      5          6           0        1.794383    0.557544   -0.121714
      6          6           0        1.911324   -0.712566    0.366035
      7          6           0        0.702499    1.581984   -0.151213
      8          8           0        0.950324    2.746426    0.132409
      9          7           0       -0.553776    1.158873   -0.477118
     10          6           0       -1.022804   -0.159746   -0.866304
     11          6           0       -1.844316   -0.852939    0.241477
     12          6           0       -3.153532   -0.146619    0.478139
     13          7           0       -4.301708   -0.512707    0.030452
     14          8           0       -4.193541   -1.679422   -0.773715
     15          7           0       -3.086224    1.090380    1.127576
     16          1           0        5.071685   -2.198859    0.296064
     17          1           0        3.938893   -2.484698    1.635446
     18          1           0        3.590650   -3.146084    0.032095
     19          1           0        1.144666   -1.334292    0.802792
     20          1           0       -1.265134    1.869027   -0.337640
     21          1           0       -1.645513   -0.066162   -1.762749
     22          1           0       -0.160605   -0.771727   -1.132448
     23          1           0       -2.051707   -1.884410   -0.048721
     24          1           0       -1.257011   -0.862787    1.168931
     25          1           0       -5.123323   -1.856095   -0.980642
     26          1           0       -2.478808    1.102128    1.940553
     27          1           0       -4.005955    1.466758    1.338980
 ---------------------------------------------------------------------

 SCF Done:  E(UB3LYP) =  -756.932170038     A.U. after   33 cycles
 SCF Done:  E(UB3LYP) =  -756.932170038     a.u. after    1 cycles

 The electronic state is 2-A.
 Alpha  occ. eigenvalues --  -19.07136 -19.06298 -18.95879 -14.24730 -14.22949
 Alpha  occ. eigenvalues --  -14.22830 -14.21845 -10.14831 -10.14585 -10.11385
 Alpha  occ. eigenvalues --  -10.10684 -10.09593 -10.08566 -10.08131 -10.05568
 Alpha  occ. eigenvalues --   -1.01538  -0.97900  -0.91369  -0.84504  -0.80984
 Alpha  occ. eigenvalues --   -0.75493  -0.72967  -0.67842  -0.66816  -0.62227
 Alpha  occ. eigenvalues --   -0.56425  -0.53234  -0.49056  -0.48200  -0.44210
 Alpha  occ. eigenvalues --   -0.42845  -0.40788  -0.40206  -0.38298  -0.38113
 Alpha  occ. eigenvalues --   -0.36561  -0.35424  -0.33863  -0.33642  -0.31974
 Alpha  occ. eigenvalues --   -0.31707  -0.30671  -0.30027  -0.29007  -0.28159
 Alpha  occ. eigenvalues --   -0.27363  -0.26797  -0.25818  -0.23224  -0.18805
 Alpha  occ. eigenvalues --   -0.18666  -0.17392  -0.15155  -0.14697  -0.13548
 Alpha  occ. eigenvalues --   -0.12770   0.04187
 Alpha virt. eigenvalues --    0.06107   0.06599   0.07077   0.08661   0.09345
 Alpha virt. eigenvalues --    0.10239   0.10330   0.11041   0.11860   0.12383
 Alpha virt. eigenvalues --    0.12742   0.13178   0.14176   0.14378   0.15641

  Beta  occ. eigenvalues --  -19.06897 -19.06276 -18.95704 -14.24709 -14.22899
  Beta  occ. eigenvalues --  -14.22624 -14.21817 -10.14691 -10.14583 -10.11382
  Beta  occ. eigenvalues --  -10.10483 -10.09619 -10.08536 -10.08126 -10.05506
  Beta  occ. eigenvalues --   -1.01145  -0.97869  -0.91054  -0.84447  -0.80862
  Beta  occ. eigenvalues --   -0.75243  -0.72894  -0.67507  -0.66721  -0.62154
  Beta  occ. eigenvalues --   -0.56310  -0.52819  -0.48928  -0.48090  -0.44088
  Beta  occ. eigenvalues --   -0.42706  -0.40717  -0.40048  -0.38232  -0.38038
  Beta  occ. eigenvalues --   -0.36352  -0.34925  -0.33750  -0.33555  -0.31606
  Beta  occ. eigenvalues --   -0.31530  -0.30501  -0.29919  -0.28941  -0.28103
  Beta  occ. eigenvalues --   -0.27223  -0.26146  -0.25610  -0.23171  -0.18603
  Beta  occ. eigenvalues --   -0.18507  -0.16633  -0.14437  -0.14198  -0.12995
  Beta  occ. eigenvalues --   -0.12547
  Beta virt. eigenvalues --    0.06510   0.07044   0.07526   0.08869   0.09046
  Beta virt. eigenvalues --    0.09387   0.10250   0.10379   0.11396   0.11917
  Beta virt. eigenvalues --    0.12495   0.12838   0.13233   0.14240   0.14934

 Mulliken charges and spin densities:
               1          2
     1  C   -0.389908  -0.215338
     2  C    0.617500  -0.226393
     3  N   -0.457489   0.123471
     4  O    0.202339   0.031482
     5  C   -0.614644   0.389427
     6  C    0.062300   0.070473
     7  C    0.089307  -0.149146
     8  O   -0.377389   0.068272
     9  N   -0.190573   0.011517
    10  C   -0.711264   0.439887
    11  C    1.047218  -1.482955
    12  C   -0.095115   0.075845
    13  N   -0.272923   0.014346
    14  O   -0.119063  -0.031061
    15  N   -0.356927   0.004105
    16  H    0.146298   0.001964
    17  H    0.081054   0.063441
    18  H    0.115952   0.021835
    19  H    0.042864   0.092556
    20  H    0.362994   0.002084
    21  H    0.087768   0.082251
    22  H    0.099644   0.093112
    23  H    0.218661  -0.039641
    24  H   -0.548248   0.708396
    25  H    0.052858   0.218845
    26  H    0.019698   0.233038
    27  H   -0.112912   0.398186
 Sum of Mulliken charges =  -1.00000   1.00000

 Dipole moment (field-independent basis, Debye):
    X=             -0.7044    Y=             -4.5895    Z=             -1.6298  Tot=              4.9210
 Quadrupole moment (field-independent basis, Debye-Ang):
   XX=           -158.1932   YY=           -119.6407   ZZ=           -108.4246
   XY=            -13.4847   XZ=              8.2487   YZ=             -0.7095

 Summary of Natural Population Analysis:

                                       Natural Population
                Natural  -----------------------------------------------
    Atom  No    Charge         Core      Valence    Rydberg      Total
 -----------------------------------------------------------------------
      C    1   -0.29643      0.99963     2.29238    0.00442     3.29643
      C    2    0.06248      0.99962     1.92315    0.01474     2.93752
      N    3   -0.06376      0.99966     2.55195    0.01216     3.56376
      O    4   -0.13487      0.99985     3.12583    0.00919     4.13487
      C    5    0.16342      0.99946     1.82128    0.01584     2.83658
      C    6   -0.16921      0.99946     2.16153    0.00822     3.16921
      C    7    0.33268      0.99963     1.64435    0.02334     2.66732
      O    8   -0.29755      0.99988     3.29235    0.00532     4.29755
      N    9   -0.31773      0.99967     2.80910    0.00896     3.81773
      C   10   -0.08653      0.99961     2.07645    0.01047     3.08653
      C   11   -0.22836      0.99958     2.21986    0.00893     3.22836
      C   12    0.20190      0.99962     1.77973    0.01875     2.79810
      N   13   -0.12940      0.99958     2.61543    0.01439     3.62940
      O   14   -0.29634      0.99990     3.28971    0.00672     4.29634
      N   15   -0.40217      0.99972     2.89269    0.00977     3.90217
      H   16    0.10710      0.00000     0.39168    0.00122     0.39290
      H   17    0.10258      0.00000     0.39620    0.00121     0.39742
      H   18    0.10066      0.00000     0.39814    0.00120     0.39934
      H   19    0.10852      0.00000     0.39042    0.00105     0.39148
      H   20    0.19934      0.00000     0.29821    0.00245     0.30066
      H   21    0.09543      0.00000     0.40343    0.00114     0.40457
      H   22    0.10776      0.00000     0.39103    0.00121     0.39224
      H   23    0.11802      0.00000     0.38048    0.00150     0.38198
      H   24    0.10794      0.00000     0.39002    0.00204     0.39206
      H   25    0.23330      0.00000     0.26257    0.00413     0.26670
      H   26    0.19136      0.00000     0.30532    0.00332     0.30864
      H   27    0.18985      0.00000     0.30708    0.00307     0.31015
 =======================================================================
   * Total *   -0.00000     14.99487    40.81037    0.19476    56.00000

 Normal termination of Gaussian 16 at Thu Dec 10 17:23:52 2020.
