 Gaussian 16, Revision A.03,

 -----------------------------------------------------------
 # opt freq B3LYP/6-31G(d) empiricaldispersion=gd3bj scf=xqc
 -----------------------------------------------------------

 ------------------------------
 CID_21051463_JID_2087_neutraal
 ------------------------------
 Symbolic Z-matrix:
 Charge =  0 Multiplicity = 1

 SCF Done:  E(RB3LYP) =  -900.031987999     A.U. after   15 cycles
 SCF Done:  E(RB3LYP) =  -900.036448487     A.U. after   12 cycles
 SCF Done:  E(RB3LYP) =  -900.038292655     A.U. after   12 cycles
 SCF Done:  E(RB3LYP) =  -900.038819560     A.U. after   12 cycles
 SCF Done:  E(RB3LYP) =  -900.039008660     A.U. after   11 cycles
 SCF Done:  E(RB3LYP) =  -900.039130195     A.U. after   11 cycles
 SCF Done:  E(RB3LYP) =  -900.039295186     A.U. after   12 cycles
 SCF Done:  E(RB3LYP) =  -900.039383200     A.U. after   12 cycles
 SCF Done:  E(RB3LYP) =  -900.039343166     A.U. after   11 cycles
 SCF Done:  E(RB3LYP) =  -900.039519800     A.U. after   11 cycles
 SCF Done:  E(RB3LYP) =  -900.039873398     A.U. after   11 cycles
 SCF Done:  E(RB3LYP) =  -900.039873149     A.U. after   10 cycles
 SCF Done:  E(RB3LYP) =  -900.039873794     A.U. after    9 cycles
 SCF Done:  E(RB3LYP) =  -900.039873880     A.U. after    7 cycles
 SCF Done:  E(RB3LYP) =  -900.039873908     A.U. after    6 cycles
 Optimization completed.
    -- Stationary point found.
 Normal termination of Gaussian 16 at Wed Dec  9 16:52:06 2020.

 --------------------------------------------------------------------
 #N Geom=AllCheck Guess=TCheck SCRF=Check GenChk RB3LYP/6-31G(d) Freq
 --------------------------------------------------------------------

 Structure from the checkpoint file:  "JID_2087.chk"
 ------------------------------
 CID_21051463_JID_2087_neutraal
 ------------------------------
 Charge =  0 Multiplicity = 1

 SCF Done:  E(RB3LYP) =  -900.039873908     A.U. after    1 cycles

  Exact polarizability: 142.139  -1.209 125.960  -8.417   2.786  75.355
 Approx polarizability: 197.161  -3.836 195.307 -15.773  11.081 118.668

                      1                      2                      3
                      A                      A                      A
 Frequencies --     24.7562                44.8123                65.0139
 Red. masses --      2.9114                 1.1986                 3.9758
 Frc consts  --      0.0011                 0.0014                 0.0099
 IR Inten    --      0.3947                 0.0851                 0.3720

                      4                      5                      6
                      A                      A                      A
 Frequencies --     73.2895               102.6118               132.6956
 Red. masses --      2.6606                 2.3891                 1.4125
 Frc consts  --      0.0084                 0.0148                 0.0147
 IR Inten    --      0.7031                 2.4474                 0.5478

                      7                      8                      9
                      A                      A                      A
 Frequencies --    158.8757               190.1217               206.3764
 Red. masses --      1.3113                 2.1349                 3.2635
 Frc consts  --      0.0195                 0.0455                 0.0819
 IR Inten    --      0.2576                 0.3717                 3.5608

                     10                     11                     12
                      A                      A                      A
 Frequencies --    228.0809               267.7473               296.5459
 Red. masses --      3.8796                 3.9657                 3.5230
 Frc consts  --      0.1189                 0.1675                 0.1825
 IR Inten    --      1.7004                11.3920                 1.3495

                     13                     14                     15
                      A                      A                      A
 Frequencies --    307.9037               359.6201               404.1581
 Red. masses --      2.3543                 3.6342                 3.4058
 Frc consts  --      0.1315                 0.2769                 0.3278
 IR Inten    --      4.8974                10.4881                 1.6671

                     16                     17                     18
                      A                      A                      A
 Frequencies --    481.5498               541.7736               555.5237
 Red. masses --      4.3362                 6.2220                 3.0291
 Frc consts  --      0.5924                 1.0760                 0.5508
 IR Inten    --      0.6316                 3.3667                 9.2932

                     19                     20                     21
                      A                      A                      A
 Frequencies --    622.9307               623.5693               682.6412
 Red. masses --      2.8911                 4.7692                 6.1672
 Frc consts  --      0.6610                 1.0926                 1.6933
 IR Inten    --      5.1383                 2.9977                 1.4449

                     22                     23                     24
                      A                      A                      A
 Frequencies --    719.3986               726.8203               829.1855
 Red. masses --      1.3759                 3.7381                 4.0694
 Frc consts  --      0.4196                 1.1635                 1.6485
 IR Inten    --     37.0885                 4.1014                 0.8222

                     25                     26                     27
                      A                      A                      A
 Frequencies --    852.0241               885.2978               930.8530
 Red. masses --      2.9760                 1.2579                 3.3412
 Frc consts  --      1.2729                 0.5809                 1.7057
 IR Inten    --     17.1782                 0.7869                20.0127

                     28                     29                     30
                      A                      A                      A
 Frequencies --    958.4152              1010.5572              1065.7655
 Red. masses --      3.8882                 1.6911                 2.2019
 Frc consts  --      2.1043                 1.0175                 1.4736
 IR Inten    --     17.1881                13.2199                11.0985

                     31                     32                     33
                      A                      A                      A
 Frequencies --   1072.2821              1084.2214              1112.9204
 Red. masses --      1.6455                 2.3777                 6.4766
 Frc consts  --      1.1147                 1.6468                 4.7263
 IR Inten    --      7.8609                50.4476               214.3628

                     34                     35                     36
                      A                      A                      A
 Frequencies --   1121.1792              1159.3531              1186.9971
 Red. masses --      1.3740                 4.4006                 1.3204
 Frc consts  --      1.0176                 3.4849                 1.0961
 IR Inten    --     20.1647               205.5080                 1.7090

                     37                     38                     39
                      A                      A                      A
 Frequencies --   1190.9605              1199.9610              1215.5380
 Red. masses --      1.3127                 2.5239                 1.3463
 Frc consts  --      1.0970                 2.1412                 1.1720
 IR Inten    --      2.3493                 4.8237                18.5785

                     40                     41                     42
                      A                      A                      A
 Frequencies --   1230.1995              1262.0328              1283.4632
 Red. masses --      1.5438                 1.8782                 1.4105
 Frc consts  --      1.3766                 1.7625                 1.3690
 IR Inten    --     26.0384                 6.3999                 8.7110

                     43                     44                     45
                      A                      A                      A
 Frequencies --   1339.9934              1408.3819              1417.4601
 Red. masses --      1.4383                 1.3006                 2.4150
 Frc consts  --      1.5217                 1.5199                 2.8589
 IR Inten    --      3.3052                28.6945                 1.0373

                     46                     47                     48
                      A                      A                      A
 Frequencies --   1426.7615              1447.0889              1488.1501
 Red. masses --      1.2995                 1.3367                 1.1441
 Frc consts  --      1.5586                 1.6492                 1.4928
 IR Inten    --     16.2073                 1.7033                 0.1942

                     49                     50                     51
                      A                      A                      A
 Frequencies --   1497.6261              1502.4745              1504.7465
 Red. masses --      1.0975                 1.3865                 2.2402
 Frc consts  --      1.4503                 1.8441                 2.9886
 IR Inten    --      2.5492                 2.9568                 5.2544

                     52                     53                     54
                      A                      A                      A
 Frequencies --   1515.7132              1518.3516              1524.7508
 Red. masses --      1.0498                 1.0678                 1.0827
 Frc consts  --      1.4209                 1.4503                 1.4830
 IR Inten    --      3.2993                 5.8296                 1.2676

                     55                     56                     57
                      A                      A                      A
 Frequencies --   1529.7605              1536.7614              1543.9085
 Red. masses --      1.2553                 1.0525                 1.0501
 Frc consts  --      1.7308                 1.4644                 1.4748
 IR Inten    --      6.8787                 5.3991                 9.1990

                     58                     59                     60
                      A                      A                      A
 Frequencies --   1624.1212              3025.2135              3028.9516
 Red. masses --      5.6070                 1.0392                 1.0405
 Frc consts  --      8.7140                 5.6038                 5.6245
 IR Inten    --      1.1474                41.6870                49.0197

                     61                     62                     63
                      A                      A                      A
 Frequencies --   3042.6554              3045.1060              3056.6664
 Red. masses --      1.0423                 1.0779                 1.0690
 Frc consts  --      5.6850                 5.8892                 5.8845
 IR Inten    --     32.5211                12.1969                60.1876

                     64                     65                     66
                      A                      A                      A
 Frequencies --   3093.2996              3094.8091              3097.1850
 Red. masses --      1.1001                 1.0978                 1.0990
 Frc consts  --      6.2017                 6.1949                 6.2111
 IR Inten    --     30.7464                20.5509                50.9248

                     67                     68                     69
                      A                      A                      A
 Frequencies --   3119.1145              3134.6645              3145.9639
 Red. masses --      1.0967                 1.0974                 1.1029
 Frc consts  --      6.2863                 6.3534                 6.4311
 IR Inten    --     11.8316                22.9338                32.9976

                     70                     71                     72
                      A                      A                      A
 Frequencies --   3153.6681              3208.1697              3265.4319
 Red. masses --      1.1018                 1.0908                 1.0966
 Frc consts  --      6.4564                 6.6146                 6.8894
 IR Inten    --     22.0796                12.1130                 2.1845

 - Thermochemistry -
 -------------------
 Temperature   298.150 Kelvin.  Pressure   1.00000 Atm.
 Atom     1 has atomic number  6 and mass  12.00000

 Molecular mass:   186.07145 amu.
 Principal axes and moments of inertia in atomic units:
                           1         2         3
     Eigenvalues --  1322.010133401.703724438.56774
           X            0.99970  -0.02303  -0.00792
           Y            0.02285   0.99949  -0.02217
           Z            0.00842   0.02198   0.99972
 This molecule is an asymmetric top.
 Rotational symmetry number  1.
 Warning -- assumption of classical behavior for rotation
           may cause significant error
 Rotational temperatures (Kelvin)      0.06552     0.02546     0.01951
 Rotational constants (GHZ):           1.36515     0.53054     0.40660
 Zero-point vibrational energy     573041.0 (Joules/Mol)
                                  136.96008 (Kcal/Mol)
 Warning -- explicit consideration of  18 degrees of freedom as
           vibrations may cause significant error
 Vibrational temperatures:     35.62    64.47    93.54   105.45   147.64
          (Kelvin)            190.92   228.59   273.54   296.93   328.16
                              385.23   426.66   443.00   517.41   581.49
                              692.84   779.49   799.27   896.26   897.18
                              982.17  1035.05  1045.73  1193.01  1225.87
                             1273.75  1339.29  1378.95  1453.97  1533.40
                             1542.77  1559.95  1601.24  1613.13  1668.05
                             1707.82  1713.53  1726.48  1748.89  1769.98
                             1815.78  1846.62  1927.95  2026.35  2039.41
                             2052.79  2082.04  2141.12  2154.75  2161.73
                             2164.99  2180.77  2184.57  2193.78  2200.98
                             2211.06  2221.34  2336.75  4352.61  4357.99
                             4377.70  4381.23  4397.86  4450.57  4452.74
                             4456.16  4487.71  4510.08  4526.34  4537.42
                             4615.84  4698.23

 Zero-point correction=                           0.218260 (Hartree/Particle)
 Thermal correction to Energy=                    0.231950
 Thermal correction to Enthalpy=                  0.232894
 Thermal correction to Gibbs Free Energy=         0.176219
 Sum of electronic and zero-point Energies=           -899.821614
 Sum of electronic and thermal Energies=              -899.807924
 Sum of electronic and thermal Enthalpies=            -899.806980
 Sum of electronic and thermal Free Energies=         -899.863655

                     E (Thermal)             CV                S
                      KCal/Mol        Cal/Mol-Kelvin    Cal/Mol-Kelvin
 Total                  145.551             48.399            119.284
 Electronic               0.000              0.000              0.000
 Translational            0.889              2.981             41.569
 Rotational               0.889              2.981             31.368
 Vibrational            143.773             42.437             46.347
 Vibration     1          0.593              1.985              6.211
 Vibration     2          0.595              1.979              5.034
 Vibration     3          0.597              1.971              4.299
 Vibration     4          0.599              1.967              4.063
 Vibration     5          0.605              1.947              3.404
 Vibration     6          0.613              1.921              2.907
 Vibration     7          0.621              1.893              2.563
 Vibration     8          0.633              1.853              2.227
 Vibration     9          0.641              1.831              2.075
 Vibration    10          0.651              1.798              1.894
 Vibration    11          0.673              1.732              1.611
 Vibration    12          0.690              1.680              1.436
 Vibration    13          0.698              1.659              1.374
 Vibration    14          0.734              1.555              1.124
 Vibration    15          0.769              1.461              0.947
 Vibration    16          0.838              1.291              0.706
 Vibration    17          0.897              1.158              0.561
 Vibration    18          0.911              1.128              0.533

                           ! Non-Optimized Parameters !
 Normal termination of Gaussian 16 at Wed Dec  9 16:57:32 2020.

 ----------------------------------------------------------------------
 # B3LYP/6-311++G(d,p) empiricaldispersion=gd3bj scf=xqc pop=npa geom=c
 heck
 ----------------------------------------------------------------------

 --------------------------------------
 CID_21051463_JID_2087_Energie_neutraal
 --------------------------------------
 Structure from the checkpoint file:  "JID_2087.chk"
 Charge =  0 Multiplicity = 1

 SCF Done:  E(RB3LYP) =  -900.209693542     A.U. after   15 cycles
 Normal termination of Gaussian 16 at Wed Dec  9 16:59:48 2020.

 ----------------------------------------------------------------------
 # B3LYP/6-311++G(d,p) empiricaldispersion=gd3bj scf=xqc pop=npa geom=c
 heck
 ----------------------------------------------------------------------

 ------------------------------------
 CID_21051463_JID_2087_Energie_kation
 ------------------------------------
 Structure from the checkpoint file:  "JID_2087.chk"
 Charge =  1 Multiplicity = 2

 SCF Done:  E(UB3LYP) =  -899.916816565     A.U. after   28 cycles
 Normal termination of Gaussian 16 at Wed Dec  9 17:05:09 2020.
 Gaussian 16:  ES64L-G16RevA.03 25-Dec-2016

 ----------------------------------------------------------------------
 # B3LYP/6-311++G(d,p) empiricaldispersion=gd3bj scf=xqc pop=npa geom=c
 heck
 ----------------------------------------------------------------------

 -----------------------------------
 CID_21051463_JID_2087_Energie_anion
 -----------------------------------
 Structure from the checkpoint file:  "JID_2087.chk"
 Charge = -1 Multiplicity = 2

                         Standard orientation:
 ---------------------------------------------------------------------
 Center     Atomic      Atomic             Coordinates (Angstroms)
 Number     Number       Type             X           Y           Z
 ---------------------------------------------------------------------
      1          6           0       -2.319740    2.373537    0.342187
      2          6           0       -2.134607    0.895697    0.120975
      3          6           0       -0.949646    0.272627   -0.197016
      4         16           0       -1.177188   -1.455928   -0.392882
      5          6           0       -2.872525   -1.318187   -0.053467
      6          6           0       -3.230962   -0.027687    0.201395
      7          6           0        0.402236    0.892131   -0.399982
      8          6           0        1.506956    0.220421    0.421653
      9          8           0        1.761899   -1.021344   -0.191907
     10          6           0        2.506928   -1.917200    0.621505
     11          8           0        2.675695    0.999955    0.554876
     12          6           0        3.321486    1.339709   -0.666640
     13          1           0       -2.795757    2.850940   -0.524305
     14          1           0       -2.966441    2.558318    1.207569
     15          1           0       -1.373661    2.891001    0.522051
     16          1           0       -3.498782   -2.200166   -0.043308
     17          1           0       -4.243123    0.277839    0.447173
     18          1           0        0.688999    0.854481   -1.458491
     19          1           0        0.363905    1.945897   -0.110036
     20          1           0        1.169825    0.071664    1.456297
     21          1           0        3.474639   -1.485925    0.902929
     22          1           0        1.948341   -2.173584    1.532860
     23          1           0        2.664712   -2.821546    0.030309
     24          1           0        3.457518    0.459864   -1.305516
     25          1           0        2.765005    2.105076   -1.224623
     26          1           0        4.298325    1.745819   -0.394194
 ---------------------------------------------------------------------

 SCF Done:  E(UB3LYP) =  -900.192305091     A.U. after   33 cycles
 SCF Done:  E(UB3LYP) =  -900.192305091     a.u. after    1 cycles

 The electronic state is 2-A.
 Alpha  occ. eigenvalues --  -88.77005 -19.03997 -19.03337 -10.17555 -10.11965
 Alpha  occ. eigenvalues --  -10.11032 -10.10207 -10.09552 -10.08444 -10.08213
 Alpha  occ. eigenvalues --  -10.07340 -10.07027  -7.85602  -5.81892  -5.81514
 Alpha  occ. eigenvalues --   -5.81202  -0.98102  -0.91816  -0.78209  -0.69211
 Alpha  occ. eigenvalues --   -0.66638  -0.62972  -0.59895  -0.59021  -0.56472
 Alpha  occ. eigenvalues --   -0.49935  -0.46392  -0.43454  -0.42225  -0.40601
 Alpha  occ. eigenvalues --   -0.39236  -0.37683  -0.35116  -0.34372  -0.33458
 Alpha  occ. eigenvalues --   -0.33083  -0.32061  -0.30018  -0.29220  -0.28675
 Alpha  occ. eigenvalues --   -0.27090  -0.26704  -0.26267  -0.26109  -0.23646
 Alpha  occ. eigenvalues --   -0.21358  -0.18939  -0.18112  -0.14637  -0.12840
 Alpha  occ. eigenvalues --    0.04532
 Alpha virt. eigenvalues --    0.06227   0.06630   0.07576   0.08000   0.08616
 Alpha virt. eigenvalues --    0.08903   0.09807   0.10071   0.10827   0.11328
 Alpha virt. eigenvalues --    0.11531   0.12094   0.12864   0.13445   0.13993

  Beta  occ. eigenvalues --  -88.77002 -19.03990 -19.03331 -10.17550 -10.11941
  Beta  occ. eigenvalues --  -10.10988 -10.10204 -10.09542 -10.08427 -10.08210
  Beta  occ. eigenvalues --  -10.07326 -10.06988  -7.85599  -5.81890  -5.81512
  Beta  occ. eigenvalues --   -5.81198  -0.98088  -0.91800  -0.78195  -0.69189
  Beta  occ. eigenvalues --   -0.66610  -0.62940  -0.59838  -0.58976  -0.56422
  Beta  occ. eigenvalues --   -0.49885  -0.46360  -0.43426  -0.42188  -0.40574
  Beta  occ. eigenvalues --   -0.39194  -0.37648  -0.35088  -0.34339  -0.33428
  Beta  occ. eigenvalues --   -0.33041  -0.32022  -0.29977  -0.29192  -0.28642
  Beta  occ. eigenvalues --   -0.27056  -0.26674  -0.26239  -0.26085  -0.23626
  Beta  occ. eigenvalues --   -0.21322  -0.18918  -0.18095  -0.14619  -0.12817
  Beta virt. eigenvalues --    0.06599   0.07188   0.07368   0.07908   0.08424
  Beta virt. eigenvalues --    0.09288   0.09390   0.10299   0.10489   0.11403
  Beta virt. eigenvalues --    0.11618   0.11924   0.12364   0.13089   0.13703

 Mulliken charges and spin densities:
               1          2
     1  C    2.678010  -3.633525
     2  C   -1.705837   1.912156
     3  C    0.017130   0.896553
     4  S    0.136110  -0.741607
     5  C    0.062370  -0.063869
     6  C   -0.509342   0.404173
     7  C    1.478770  -1.699424
     8  C   -1.793162   0.854986
     9  O   -0.079696   0.014751
    10  C    0.576899  -0.789477
    11  O   -0.119139   0.043011
    12  C    1.092014  -1.332374
    13  H   -0.103790   0.266171
    14  H   -0.197414   0.338910
    15  H   -0.517238   0.639360
    16  H   -0.328832   0.561263
    17  H   -0.645606   0.803658
    18  H   -0.062454   0.289572
    19  H    0.380409  -0.214293
    20  H    0.059950   0.153932
    21  H   -0.133434   0.283905
    22  H   -0.130595   0.255333
    23  H   -0.141866   0.285413
    24  H   -0.152855   0.307702
    25  H   -0.426928   0.562758
    26  H   -0.433475   0.600961
 Sum of Mulliken charges =  -1.00000   1.00000

 Dipole moment (field-independent basis, Debye):
    X=             -0.5197    Y=             -3.5828    Z=              0.2963  Tot=              3.6324
 Quadrupole moment (field-independent basis, Debye-Ang):
   XX=           -161.7540   YY=           -128.9210   ZZ=           -111.4845
   XY=             -0.7415   XZ=              5.5153   YZ=              1.2144

 Summary of Natural Population Analysis:

                                       Natural Population
                Natural  -----------------------------------------------
    Atom  No    Charge         Core      Valence    Rydberg      Total
 -----------------------------------------------------------------------
      C    1   -0.29014      0.99963     2.28498    0.00553     3.29014
      C    2   -0.04578      0.99943     2.03461    0.01175     3.04578
      C    3   -0.09554      0.99943     2.08336    0.01276     3.09554
      S    4    0.20960      4.99942     2.76963    0.02135     7.79040
      C    5   -0.19559      0.99954     2.18506    0.01099     3.19559
      C    6   -0.12284      0.99949     2.11224    0.01111     3.12284
      C    7   -0.22519      0.99954     2.21477    0.01088     3.22519
      C    8    0.22815      0.99956     1.75385    0.01844     2.77185
      O    9   -0.30428      0.99987     3.29559    0.00881     4.30428
      C   10   -0.09963      0.99961     2.09180    0.00822     3.09963
      O   11   -0.30381      0.99988     3.29338    0.01054     4.30381
      C   12   -0.10679      0.99960     2.09724    0.00995     3.10679
      H   13    0.10543      0.00000     0.39334    0.00123     0.39457
      H   14    0.10511      0.00000     0.39348    0.00140     0.39489
      H   15    0.10391      0.00000     0.39467    0.00142     0.39609
      H   16    0.10779      0.00000     0.39120    0.00101     0.39221
      H   17    0.10595      0.00000     0.39267    0.00138     0.39405
      H   18    0.11142      0.00000     0.38661    0.00196     0.38858
      H   19    0.11435      0.00000     0.38421    0.00144     0.38565
      H   20    0.07941      0.00000     0.41851    0.00208     0.42059
      H   21    0.08635      0.00000     0.41171    0.00194     0.41365
      H   22    0.08035      0.00000     0.41791    0.00174     0.41965
      H   23    0.09035      0.00000     0.40837    0.00128     0.40965
      H   24    0.08685      0.00000     0.41146    0.00169     0.41315
      H   25    0.08237      0.00000     0.41571    0.00192     0.41763
      H   26    0.09220      0.00000     0.40631    0.00149     0.40780
 =======================================================================
   * Total *   -0.00000     15.99499    33.84269    0.16233    50.00000

 Normal termination of Gaussian 16 at Wed Dec  9 17:12:22 2020.
