 Gaussian 16, Revision A.03,

 -----------------------------------------------------------
 # opt freq B3LYP/6-31G(d) empiricaldispersion=gd3bj scf=xqc
 -----------------------------------------------------------

 -------------------------------
 CID_127433864_JID_9425_neutraal
 -------------------------------
 Symbolic Z-matrix:
 Charge =  0 Multiplicity = 1

 SCF Done:  E(RB3LYP) =  -1584.86663173     A.U. after   15 cycles
 SCF Done:  E(RB3LYP) =  -1584.87200895     A.U. after   13 cycles
 SCF Done:  E(RB3LYP) =  -1584.87089774     A.U. after   13 cycles
 SCF Done:  E(RB3LYP) =  -1584.87327295     A.U. after   13 cycles
 SCF Done:  E(RB3LYP) =  -1584.87489355     A.U. after   13 cycles
 SCF Done:  E(RB3LYP) =  -1584.87637876     A.U. after   12 cycles
 SCF Done:  E(RB3LYP) =  -1584.87588277     A.U. after   12 cycles
 SCF Done:  E(RB3LYP) =  -1584.87650389     A.U. after   11 cycles
 SCF Done:  E(RB3LYP) =  -1584.87651822     A.U. after    9 cycles
 SCF Done:  E(RB3LYP) =  -1584.87652206     A.U. after   10 cycles
 SCF Done:  E(RB3LYP) =  -1584.87652420     A.U. after    8 cycles
 SCF Done:  E(RB3LYP) =  -1584.87652505     A.U. after    9 cycles
 SCF Done:  E(RB3LYP) =  -1584.87652550     A.U. after    8 cycles
 SCF Done:  E(RB3LYP) =  -1584.87652579     A.U. after    8 cycles
 SCF Done:  E(RB3LYP) =  -1584.87652584     A.U. after    7 cycles
 Optimization completed.
    -- Stationary point found.
 Normal termination of Gaussian 16 at Sat Dec 12 09:40:22 2020.

 --------------------------------------------------------------------
 #N Geom=AllCheck Guess=TCheck SCRF=Check GenChk RB3LYP/6-31G(d) Freq
 --------------------------------------------------------------------

 Structure from the checkpoint file:  "JID_9425.chk"
 -------------------------------
 CID_127433864_JID_9425_neutraal
 -------------------------------
 Charge =  0 Multiplicity = 1

 SCF Done:  E(RB3LYP) =  -1584.87652584     A.U. after    1 cycles

  Exact polarizability: 214.318   3.100 166.705   1.505  -2.451 142.889
 Approx polarizability: 276.185   1.438 261.071  -2.816 -21.302 245.598

                      1                      2                      3
                      A                      A                      A
 Frequencies --     23.9261                47.9909                64.2136
 Red. masses --      4.9835                 5.1722                 5.3147
 Frc consts  --      0.0017                 0.0070                 0.0129
 IR Inten    --      3.3234                 0.4083                 1.4850

                      4                      5                      6
                      A                      A                      A
 Frequencies --     87.8588               104.3101               129.9937
 Red. masses --      5.1394                 6.4883                 4.6175
 Frc consts  --      0.0234                 0.0416                 0.0460
 IR Inten    --      5.4722                 4.2233                 1.1377

                      7                      8                      9
                      A                      A                      A
 Frequencies --    142.8668               164.7421               172.7623
 Red. masses --      2.7861                 6.2123                 3.9684
 Frc consts  --      0.0335                 0.0993                 0.0698
 IR Inten    --      1.8606                 1.6679                 3.1962

                     10                     11                     12
                      A                      A                      A
 Frequencies --    218.6755               271.4260               286.3726
 Red. masses --      2.6924                 4.5200                 4.1499
 Frc consts  --      0.0759                 0.1962                 0.2005
 IR Inten    --      2.7415                 5.3476                 1.2315

                     13                     14                     15
                      A                      A                      A
 Frequencies --    305.6791               314.0821               330.7463
 Red. masses --      2.7338                 3.1340                 2.7386
 Frc consts  --      0.1505                 0.1822                 0.1765
 IR Inten    --      0.2789                 1.0143                 0.6411

                     16                     17                     18
                      A                      A                      A
 Frequencies --    343.1642               355.8139               368.2577
 Red. masses --      2.8881                 3.5922                 3.0204
 Frc consts  --      0.2004                 0.2680                 0.2413
 IR Inten    --      1.8546                 1.0205                 0.8666

                     19                     20                     21
                      A                      A                      A
 Frequencies --    392.8910               398.0845               402.3608
 Red. masses --      3.6256                 5.0992                 2.9919
 Frc consts  --      0.3297                 0.4761                 0.2854
 IR Inten    --      1.9122                14.6763                 8.8654

                     22                     23                     24
                      A                      A                      A
 Frequencies --    425.9035               468.2309               498.0240
 Red. masses --      3.2882                 3.2023                 2.7993
 Frc consts  --      0.3514                 0.4136                 0.4091
 IR Inten    --     11.4177                 5.1435                17.8849

                     25                     26                     27
                      A                      A                      A
 Frequencies --    514.7931               535.5472               556.0478
 Red. masses --      3.0295                 3.0016                 3.7937
 Frc consts  --      0.4730                 0.5072                 0.6911
 IR Inten    --     19.6895                10.4820                 1.5939

                     28                     29                     30
                      A                      A                      A
 Frequencies --    611.5670               636.7527               656.1287
 Red. masses --      5.0400                 3.0196                 4.1127
 Frc consts  --      1.1106                 0.7213                 1.0432
 IR Inten    --     10.1533                 1.8408                10.5148

                     31                     32                     33
                      A                      A                      A
 Frequencies --    680.0814               697.7884               744.6593
 Red. masses --      5.1479                 4.6522                 3.2541
 Frc consts  --      1.4028                 1.3346                 1.0631
 IR Inten    --      3.5415                 3.9493                36.0284

                     34                     35                     36
                      A                      A                      A
 Frequencies --    754.3239               783.3284               812.6842
 Red. masses --      2.8320                 3.1394                 2.0327
 Frc consts  --      0.9494                 1.1350                 0.7910
 IR Inten    --     10.5433                 4.1505                 1.0125

                     37                     38                     39
                      A                      A                      A
 Frequencies --    864.0465               874.5768               888.2597
 Red. masses --      2.2056                 1.8487                 2.1896
 Frc consts  --      0.9702                 0.8331                 1.0179
 IR Inten    --      2.1296                 3.7677                10.3497

                     40                     41                     42
                      A                      A                      A
 Frequencies --    891.7531               910.2902               917.2969
 Red. masses --      2.5296                 1.7046                 1.8915
 Frc consts  --      1.1852                 0.8322                 0.9377
 IR Inten    --     11.9411                 6.4012                18.7754

                     43                     44                     45
                      A                      A                      A
 Frequencies --    931.7361               961.4948               979.8254
 Red. masses --      2.0620                 2.2563                 2.3235
 Frc consts  --      1.0547                 1.2290                 1.3143
 IR Inten    --      2.6857                 8.8878                 1.5921

                     46                     47                     48
                      A                      A                      A
 Frequencies --    988.9771               996.2299              1009.4431
 Red. masses --      1.9593                 1.8622                 1.7484
 Frc consts  --      1.1291                 1.0889                 1.0497
 IR Inten    --      6.3391                 0.2823                 1.0075

                     49                     50                     51
                      A                      A                      A
 Frequencies --   1034.2252              1064.6177              1067.9193
 Red. masses --      1.8928                 2.3613                 1.5568
 Frc consts  --      1.1928                 1.5768                 1.0461
 IR Inten    --     13.3676                 4.4371                 0.7245

                     52                     53                     54
                      A                      A                      A
 Frequencies --   1078.6933              1099.0808              1105.1257
 Red. masses --      1.6405                 2.3253                 4.4573
 Frc consts  --      1.1247                 1.6549                 3.2073
 IR Inten    --      3.5345                76.2404                69.6651

                     55                     56                     57
                      A                      A                      A
 Frequencies --   1110.2459              1128.1671              1135.7035
 Red. masses --      3.0884                 1.8159                 1.4062
 Frc consts  --      2.2429                 1.3617                 1.0686
 IR Inten    --      0.5709                11.5942                 6.2635

                     58                     59                     60
                      A                      A                      A
 Frequencies --   1150.9140              1160.8884              1183.1106
 Red. masses --      1.4784                 1.7359                 2.6481
 Frc consts  --      1.1538                 1.3784                 2.1839
 IR Inten    --     55.4558                17.3850                27.7606

                     61                     62                     63
                      A                      A                      A
 Frequencies --   1188.5481              1219.9186              1242.0419
 Red. masses --      1.3516                 1.2762                 1.4493
 Frc consts  --      1.1250                 1.1190                 1.3173
 IR Inten    --     50.0240                18.3693                 2.4346

                     64                     65                     66
                      A                      A                      A
 Frequencies --   1244.9165              1253.6163              1256.6937
 Red. masses --      1.4791                 1.3863                 1.5863
 Frc consts  --      1.3506                 1.2836                 1.4760
 IR Inten    --     10.3037                 5.6498                23.6020

                     67                     68                     69
                      A                      A                      A
 Frequencies --   1294.0354              1299.1396              1304.3393
 Red. masses --      1.3661                 1.4486                 1.5101
 Frc consts  --      1.3478                 1.4405                 1.5136
 IR Inten    --     22.3404                45.8364                26.4850

                     70                     71                     72
                      A                      A                      A
 Frequencies --   1312.5059              1321.8119              1336.8255
 Red. masses --      1.4286                 3.1775                 1.2800
 Frc consts  --      1.4500                 3.2710                 1.3477
 IR Inten    --      8.8151               131.4701                 1.0205

                     73                     74                     75
                      A                      A                      A
 Frequencies --   1343.9298              1360.3504              1364.4705
 Red. masses --      1.4782                 1.2513                 1.3741
 Frc consts  --      1.5730                 1.3643                 1.5073
 IR Inten    --     22.9985                36.2606                 6.7561

                     76                     77                     78
                      A                      A                      A
 Frequencies --   1382.7772              1384.4299              1392.1037
 Red. masses --      1.3193                 1.4117                 1.3358
 Frc consts  --      1.4862                 1.5942                 1.5253
 IR Inten    --      4.9047                 6.7176                 4.1585

                     79                     80                     81
                      A                      A                      A
 Frequencies --   1399.5751              1402.1473              1404.6853
 Red. masses --      1.3656                 1.4020                 1.4535
 Frc consts  --      1.5760                 1.6240                 1.6898
 IR Inten    --     12.2533                 4.5320                29.3729

                     82                     83                     84
                      A                      A                      A
 Frequencies --   1408.4104              1457.5835              1489.2416
 Red. masses --      1.5097                 1.5177                 1.0965
 Frc consts  --      1.7644                 1.8998                 1.4328
 IR Inten    --     60.3318                42.5318                 5.7536

                     85                     86                     87
                      A                      A                      A
 Frequencies --   1491.9453              1502.9404              1516.5557
 Red. masses --      1.0898                 1.0886                 1.0885
 Frc consts  --      1.4293                 1.4488                 1.4750
 IR Inten    --      7.6069                25.7689                 3.6113

                     88                     89                     90
                      A                      A                      A
 Frequencies --   1517.5749              1524.7895              1525.8807
 Red. masses --      1.0912                 1.0963                 1.1113
 Frc consts  --      1.4807                 1.5018                 1.5244
 IR Inten    --      3.0171                 3.9438                17.9995

                     91                     92                     93
                      A                      A                      A
 Frequencies --   1528.1797              1539.2882              1737.9373
 Red. masses --      1.0892                 1.0938                10.6906
 Frc consts  --      1.4986                 1.5269                19.0249
 IR Inten    --      3.9977                 1.4438               162.5463

                     94                     95                     96
                      A                      A                      A
 Frequencies --   3027.1536              3035.4553              3037.7446
 Red. masses --      1.0686                 1.0756                 1.0729
 Frc consts  --      5.7695                 5.8392                 5.8333
 IR Inten    --     20.7502                 8.4389                19.6344

                     97                     98                     99
                      A                      A                      A
 Frequencies --   3041.0456              3051.5279              3060.9101
 Red. masses --      1.0611                 1.0640                 1.0701
 Frc consts  --      5.7816                 5.8374                 5.9070
 IR Inten    --     29.3679                34.3058                30.3487

                    100                    101                    102
                      A                      A                      A
 Frequencies --   3083.0637              3084.4914              3086.4064
 Red. masses --      1.0951                 1.0961                 1.0686
 Frc consts  --      6.1331                 6.1445                 5.9976
 IR Inten    --     54.0199                47.2250                 9.1301

                    103                    104                    105
                      A                      A                      A
 Frequencies --   3088.5620              3093.6751              3098.2543
 Red. masses --      1.1027                 1.0725                 1.0790
 Frc consts  --      6.1977                 6.0478                 6.1026
 IR Inten    --     26.4548                14.6260                 7.5937

                    106                    107                    108
                      A                      A                      A
 Frequencies --   3111.1729              3113.0744              3120.7960
 Red. masses --      1.0877                 1.0586                 1.0617
 Frc consts  --      6.2029                 6.0447                 6.0920
 IR Inten    --     11.7273                 3.5213                 1.0864

                    109                    110                    111
                      A                      A                      A
 Frequencies --   3121.2353              3143.4260              3146.5018
 Red. masses --      1.1003                 1.1027                 1.0938
 Frc consts  --      6.3158                 6.4195                 6.3805
 IR Inten    --     12.0079                 3.6076                10.0836

                    112                    113                    114
                      A                      A                      A
 Frequencies --   3176.6992              3183.6133              3200.2868
 Red. masses --      1.1087                 1.1057                 1.0914
 Frc consts  --      6.5920                 6.6027                 6.5858
 IR Inten    --      2.3786                 0.4281                 0.1241

 - Thermochemistry -
 -------------------
 Temperature   298.150 Kelvin.  Pressure   1.00000 Atm.
 Atom     1 has atomic number  6 and mass  12.00000

 Molecular mass:   303.09629 amu.
 Principal axes and moments of inertia in atomic units:
                           1         2         3
     Eigenvalues --  2604.037769802.18914**********
           X            0.99992   0.00786   0.01015
           Y           -0.00806   0.99978   0.01946
           Z           -0.01000  -0.01954   0.99976
 This molecule is an asymmetric top.
 Rotational symmetry number  1.
 Warning -- assumption of classical behavior for rotation
           may cause significant error
 Rotational temperatures (Kelvin)      0.03326     0.00884     0.00795
 Rotational constants (GHZ):           0.69305     0.18412     0.16570
 Zero-point vibrational energy     896535.2 (Joules/Mol)
                                  214.27706 (Kcal/Mol)
 Warning -- explicit consideration of  28 degrees of freedom as
           vibrations may cause significant error
 Vibrational temperatures:     34.42    69.05    92.39   126.41   150.08
          (Kelvin)            187.03   205.55   237.03   248.57   314.63
                              390.52   412.03   439.80   451.89   475.87
                              493.74   511.94   529.84   565.28   572.75
                              578.91   612.78   673.68   716.55   740.67
                              770.53   800.03   879.91   916.15   944.02
                              978.49  1003.96  1071.40  1085.30  1127.03
                             1169.27  1243.17  1258.32  1278.01  1283.03
                             1309.70  1319.79  1340.56  1383.38  1409.75
                             1422.92  1433.35  1452.36  1488.02  1531.75
                             1536.50  1552.00  1581.33  1590.03  1597.40
                             1623.18  1634.02  1655.91  1670.26  1702.23
                             1710.06  1755.19  1787.02  1791.16  1803.67
                             1808.10  1861.83  1869.17  1876.65  1888.40
                             1901.79  1923.39  1933.62  1957.24  1963.17
                             1989.51  1991.89  2002.93  2013.68  2017.38
                             2021.03  2026.39  2097.14  2142.69  2146.58
                             2162.40  2181.99  2183.45  2193.83  2195.40
                             2198.71  2214.69  2500.50  4355.40  4367.34
                             4370.64  4375.39  4390.47  4403.97  4435.84
                             4437.90  4440.65  4443.75  4451.11  4457.70
                             4476.28  4479.02  4490.13  4490.76  4522.69
                             4527.11  4570.56  4580.51  4604.50

 Zero-point correction=                           0.341472 (Hartree/Particle)
 Thermal correction to Energy=                    0.359023
 Thermal correction to Enthalpy=                  0.359967
 Thermal correction to Gibbs Free Energy=         0.295718
 Sum of electronic and zero-point Energies=          -1584.535054
 Sum of electronic and thermal Energies=             -1584.517503
 Sum of electronic and thermal Enthalpies=           -1584.516559
 Sum of electronic and thermal Free Energies=        -1584.580808

                     E (Thermal)             CV                S
                      KCal/Mol        Cal/Mol-Kelvin    Cal/Mol-Kelvin
 Total                  225.290             70.156            135.224
 Electronic               0.000              0.000              0.000
 Translational            0.889              2.981             43.023
 Rotational               0.889              2.981             33.985
 Vibrational            223.513             64.194             58.216
 Vibration     1          0.593              1.985              6.278
 Vibration     2          0.595              1.978              4.899
 Vibration     3          0.597              1.971              4.323
 Vibration     4          0.601              1.958              3.707
 Vibration     5          0.605              1.946              3.372
 Vibration     6          0.612              1.923              2.946
 Vibration     7          0.616              1.910              2.765
 Vibration     8          0.623              1.886              2.495
 Vibration     9          0.626              1.876              2.405
 Vibration    10          0.646              1.813              1.970
 Vibration    11          0.675              1.726              1.587
 Vibration    12          0.684              1.699              1.495
 Vibration    13          0.696              1.663              1.386
 Vibration    14          0.702              1.647              1.341
 Vibration    15          0.713              1.614              1.256
 Vibration    16          0.722              1.589              1.197
 Vibration    17          0.731              1.563              1.140
 Vibration    18          0.741              1.537              1.087
 Vibration    19          0.760              1.485              0.989
 Vibration    20          0.764              1.474              0.970
 Vibration    21          0.768              1.465              0.954
 Vibration    22          0.788              1.414              0.872
 Vibration    23          0.825              1.321              0.743
 Vibration    24          0.854              1.254              0.663
 Vibration    25          0.870              1.217              0.622
 Vibration    26          0.891              1.171              0.575
 Vibration    27          0.912              1.126              0.532
 Vibration    28          0.971              1.007              0.430

 Optimization completed.
    -- Stationary point found.
 Normal termination of Gaussian 16 at Sat Dec 12 10:04:06 2020.

 ----------------------------------------------------------------------
 # B3LYP/6-311++G(d,p) empiricaldispersion=gd3bj scf=xqc pop=npa geom=c
 heck
 ----------------------------------------------------------------------

 ---------------------------------------
 CID_127433864_JID_9425_Energie_neutraal
 ---------------------------------------
 Structure from the checkpoint file:  "JID_9425.chk"
 Charge =  0 Multiplicity = 1

 SCF Done:  E(RB3LYP) =  -1585.14886626     A.U. after   16 cycles
 Normal termination of Gaussian 16 at Sat Dec 12 10:16:39 2020.

 ----------------------------------------------------------------------
 # B3LYP/6-311++G(d,p) empiricaldispersion=gd3bj scf=xqc pop=npa geom=c
 heck
 ----------------------------------------------------------------------

 -------------------------------------
 CID_127433864_JID_9425_Energie_kation
 -------------------------------------
 Structure from the checkpoint file:  "JID_9425.chk"
 Charge =  1 Multiplicity = 2

 SCF Done:  E(UB3LYP) =  -1584.84788335     A.U. after   25 cycles
 Normal termination of Gaussian 16 at Sat Dec 12 10:44:52 2020.
 Gaussian 16:  ES64L-G16RevA.03 25-Dec-2016

 ----------------------------------------------------------------------
 # B3LYP/6-311++G(d,p) empiricaldispersion=gd3bj scf=xqc pop=npa geom=c
 heck
 ----------------------------------------------------------------------

 ------------------------------------
 CID_127433864_JID_9425_Energie_anion
 ------------------------------------
 Structure from the checkpoint file:  "JID_9425.chk"
 Charge = -1 Multiplicity = 2

                         Standard orientation:
 ---------------------------------------------------------------------
 Center     Atomic      Atomic             Coordinates (Angstroms)
 Number     Number       Type             X           Y           Z
 ---------------------------------------------------------------------
      1          6           0       -4.060984   -1.635815   -0.971262
      2          6           0       -4.750574   -0.841266    0.144024
      3          6           0       -4.186937    0.582817    0.223406
      4          6           0       -2.665615    0.579015    0.425365
      5          6           0       -1.961977   -0.275905   -0.642383
      6          6           0       -2.547386   -1.692997   -0.734490
      7          7           0       -0.484248   -0.269679   -0.501218
      8          6           0        0.096714    1.042292   -0.820154
      9          6           0       -0.294341    2.086759    0.227984
     10         16           0       -2.103203    2.337875    0.338479
     11          6           0        0.083909   -1.042962    0.496379
     12          8           0       -0.572974   -1.571715    1.387431
     13          6           0        1.582698   -1.423895    0.461562
     14          6           0        2.360176   -0.839616    1.679237
     15          6           0        3.008782    0.473884    1.256104
     16         16           0        3.650989    0.126204   -0.419963
     17          8           0        4.964377   -0.522823   -0.286030
     18          8           0        3.477341    1.299131   -1.295154
     19          6           0        2.404538   -1.175523   -0.814078
     20          1           0       -4.463533   -2.654092   -1.022930
     21          1           0       -4.274060   -1.161870   -1.940422
     22          1           0       -5.833028   -0.798789   -0.025199
     23          1           0       -4.597524   -1.353428    1.103815
     24          1           0       -4.418874    1.114509   -0.709674
     25          1           0       -4.661365    1.145820    1.035440
     26          1           0       -2.417575    0.174985    1.410616
     27          1           0       -2.141477    0.209097   -1.610997
     28          1           0       -2.346978   -2.238603    0.189072
     29          1           0       -2.041070   -2.225162   -1.549155
     30          1           0       -0.267178    1.345242   -1.806476
     31          1           0        1.180954    0.991643   -0.886593
     32          1           0        0.133527    3.059845   -0.032152
     33          1           0        0.097417    1.794640    1.209903
     34          1           0        1.516621   -2.503588    0.619516
     35          1           0        3.143054   -1.544776    1.974410
     36          1           0        1.684090   -0.715487    2.528254
     37          1           0        3.858615    0.775976    1.870719
     38          1           0        2.298538    1.299716    1.176891
     39          1           0        1.815828   -0.858932   -1.674629
     40          1           0        2.995215   -2.051745   -1.088273
 ---------------------------------------------------------------------

 SCF Done:  E(UB3LYP) =  -1585.14240984     A.U. after   33 cycles
 SCF Done:  E(UB3LYP) =  -1585.14240984     a.u. after    1 cycles

 The electronic state is 2-A.
 Alpha  occ. eigenvalues --  -88.95230 -88.75395 -19.02906 -19.02538 -18.99539
 Alpha  occ. eigenvalues --  -14.24819 -10.17382 -10.12728 -10.12443 -10.12284
 Alpha  occ. eigenvalues --  -10.12120 -10.11781 -10.11553 -10.10893 -10.10062
 Alpha  occ. eigenvalues --  -10.09068 -10.08434 -10.07990 -10.07170  -8.01790
 Alpha  occ. eigenvalues --   -7.84041  -5.98057  -5.97915  -5.97888  -5.80424
 Alpha  occ. eigenvalues --   -5.80080  -5.79406  -1.01711  -0.94907  -0.91553
 Alpha  occ. eigenvalues --   -0.85229  -0.76657  -0.75294  -0.71808  -0.67621
 Alpha  occ. eigenvalues --   -0.67212  -0.65716  -0.63509  -0.59948  -0.55315
 Alpha  occ. eigenvalues --   -0.54718  -0.52368  -0.50608  -0.50478  -0.48151
 Alpha  occ. eigenvalues --   -0.44983  -0.42379  -0.42218  -0.40599  -0.38942
 Alpha  occ. eigenvalues --   -0.38354  -0.38225  -0.37312  -0.36458  -0.36201
 Alpha  occ. eigenvalues --   -0.35874  -0.35315  -0.34288  -0.33517  -0.32584
 Alpha  occ. eigenvalues --   -0.31890  -0.31360  -0.30819  -0.29584  -0.28932
 Alpha  occ. eigenvalues --   -0.28817  -0.27458  -0.27100  -0.26425  -0.25797
 Alpha  occ. eigenvalues --   -0.24706  -0.24134  -0.23778  -0.23034  -0.22628
 Alpha  occ. eigenvalues --   -0.21784  -0.21589  -0.19804  -0.17088  -0.16051
 Alpha  occ. eigenvalues --   -0.13740   0.03930
 Alpha virt. eigenvalues --    0.05506   0.06489   0.06896   0.07653   0.07947
 Alpha virt. eigenvalues --    0.08062   0.08746   0.08968   0.09533   0.09716
 Alpha virt. eigenvalues --    0.10667   0.10698   0.11125   0.11262   0.11880

  Beta  occ. eigenvalues --  -88.95228 -88.75393 -19.02904 -19.02532 -18.99434
  Beta  occ. eigenvalues --  -14.24813 -10.17229 -10.12702 -10.12438 -10.12257
  Beta  occ. eigenvalues --  -10.12107 -10.11753 -10.11552 -10.10892 -10.10016
  Beta  occ. eigenvalues --  -10.09065 -10.08422 -10.07975 -10.07152  -8.01788
  Beta  occ. eigenvalues --   -7.84038  -5.98055  -5.97911  -5.97887  -5.80423
  Beta  occ. eigenvalues --   -5.80074  -5.79403  -1.01703  -0.94695  -0.91546
  Beta  occ. eigenvalues --   -0.85160  -0.76599  -0.75269  -0.71778  -0.67567
  Beta  occ. eigenvalues --   -0.67174  -0.65678  -0.63416  -0.59867  -0.55220
  Beta  occ. eigenvalues --   -0.54677  -0.52286  -0.50569  -0.50422  -0.48109
  Beta  occ. eigenvalues --   -0.44894  -0.42333  -0.42114  -0.40548  -0.38878
  Beta  occ. eigenvalues --   -0.38312  -0.38176  -0.37249  -0.36391  -0.36181
  Beta  occ. eigenvalues --   -0.35805  -0.35292  -0.34250  -0.33416  -0.32461
  Beta  occ. eigenvalues --   -0.31764  -0.31294  -0.30746  -0.29548  -0.28846
  Beta  occ. eigenvalues --   -0.28785  -0.27403  -0.27025  -0.26353  -0.25579
  Beta  occ. eigenvalues --   -0.24672  -0.24107  -0.23730  -0.23017  -0.22570
  Beta  occ. eigenvalues --   -0.21715  -0.21575  -0.19764  -0.16941  -0.15962
  Beta  occ. eigenvalues --   -0.13668
  Beta virt. eigenvalues --    0.05915   0.06441   0.07114   0.07267   0.07983
  Beta virt. eigenvalues --    0.08348   0.08748   0.08991   0.09407   0.09878
  Beta virt. eigenvalues --    0.09922   0.10865   0.10913   0.11233   0.11453

 Mulliken charges and spin densities:
               1          2
     1  C    0.522336  -0.996225
     2  C   -0.081336  -0.387615
     3  C   -0.382486   0.090506
     4  C    0.743207   0.088193
     5  C   -1.503726  -0.083383
     6  C    0.037725  -0.052092
     7  N    0.635396  -0.009319
     8  C    0.233629   0.108563
     9  C   -0.488891  -0.250677
    10  S   -0.197872  -0.124450
    11  C    0.204828  -1.113136
    12  O   -0.195095   0.054066
    13  C   -0.584909   1.445567
    14  C    0.625756  -1.131222
    15  C   -0.747635   0.077944
    16  S    0.976225  -0.473236
    17  O   -0.156233   0.017516
    18  O   -0.094884  -0.008264
    19  C   -0.683657  -0.543136
    20  H   -0.223683   0.408075
    21  H    0.049653   0.074191
    22  H   -0.218852   0.397795
    23  H    0.143311  -0.014240
    24  H    0.069772   0.082659
    25  H    0.112636   0.038779
    26  H    0.327721   0.029612
    27  H    0.144145   0.055587
    28  H    0.282306  -0.092547
    29  H   -0.266733   0.443493
    30  H   -0.055953   0.194546
    31  H    0.510581  -0.257037
    32  H    0.194242   0.043162
    33  H    0.162604   0.052156
    34  H   -0.552675   0.864218
    35  H   -0.258041   0.491269
    36  H    0.068931   0.149992
    37  H   -0.133374   0.424088
    38  H   -0.001686   0.124149
    39  H    0.025853   0.243687
    40  H   -0.243139   0.536761
 Sum of Mulliken charges =  -1.00000   1.00000

 Dipole moment (field-independent basis, Debye):
    X=             -3.3768    Y=              5.6024    Z=              0.6310  Tot=              6.5718
 Quadrupole moment (field-independent basis, Debye-Ang):
   XX=           -230.1146   YY=           -180.2374   ZZ=           -164.7875
   XY=              3.3012   XZ=             -2.6530   YZ=              2.8161

 Summary of Natural Population Analysis:

                                       Natural Population
                Natural  -----------------------------------------------
    Atom  No    Charge         Core      Valence    Rydberg      Total
 -----------------------------------------------------------------------
      C    1   -0.18721      0.99963     2.17973    0.00785     3.18721
      C    2   -0.18910      0.99963     2.18092    0.00855     3.18910
      C    3   -0.19583      0.99960     2.18645    0.00978     3.19583
      C    4   -0.16558      0.99951     2.15565    0.01043     3.16558
      C    5   -0.00749      0.99953     1.99182    0.01615     3.00749
      C    6   -0.19881      0.99959     2.18928    0.00994     3.19881
      N    7   -0.27165      0.99964     2.75733    0.01468     3.77165
      C    8   -0.09531      0.99957     2.08457    0.01117     3.09531
      C    9   -0.25528      0.99958     2.24785    0.00784     3.25528
      S   10    0.08626      4.99961     2.89797    0.01616     7.91374
      C   11    0.37609      0.99960     1.60044    0.02387     2.62391
      O   12   -0.31088      0.99988     3.30575    0.00526     4.31088
      C   13   -0.16237      0.99955     2.14802    0.01480     3.16237
      C   14   -0.19457      0.99960     2.18455    0.01041     3.19457
      C   15   -0.28811      0.99959     2.27779    0.01073     3.28811
      S   16    1.00873      4.99929     1.89832    0.09366     6.99127
      O   17   -0.46427      0.99991     3.45867    0.00570     4.46427
      O   18   -0.46987      0.99991     3.46455    0.00541     4.46987
      C   19   -0.28843      0.99957     2.27708    0.01178     3.28843
      H   20    0.10139      0.00000     0.39770    0.00091     0.39861
      H   21    0.09182      0.00000     0.40692    0.00126     0.40818
      H   22    0.09973      0.00000     0.39930    0.00097     0.40027
      H   23    0.09580      0.00000     0.40307    0.00113     0.40420
      H   24    0.09778      0.00000     0.40089    0.00133     0.40222
      H   25    0.10257      0.00000     0.39650    0.00092     0.39743
      H   26    0.11250      0.00000     0.38587    0.00163     0.38750
      H   27    0.09797      0.00000     0.39994    0.00209     0.40203
      H   28    0.11441      0.00000     0.38416    0.00143     0.38559
      H   29    0.10503      0.00000     0.39356    0.00141     0.39497
      H   30    0.09999      0.00000     0.39882    0.00119     0.40001
      H   31    0.10920      0.00000     0.38844    0.00236     0.39080
      H   32    0.10910      0.00000     0.39006    0.00084     0.39090
      H   33    0.09943      0.00000     0.39901    0.00156     0.40057
      H   34    0.13191      0.00000     0.36380    0.00429     0.36809
      H   35    0.11121      0.00000     0.38642    0.00238     0.38879
      H   36    0.11654      0.00000     0.38238    0.00108     0.38346
      H   37    0.12083      0.00000     0.37781    0.00136     0.37917
      H   38    0.10978      0.00000     0.38875    0.00148     0.39022
      H   39    0.12115      0.00000     0.37717    0.00168     0.37885
      H   40    0.12557      0.00000     0.37259    0.00184     0.37443
 =======================================================================
   * Total *    0.00000     26.99280    53.67990    0.32731    81.00000

 Normal termination of Gaussian 16 at Sat Dec 12 11:22:04 2020.
