 Gaussian 16, Revision A.03,

 -----------------------------------------------------------
 # opt freq B3LYP/6-31G(d) empiricaldispersion=gd3bj scf=xqc
 -----------------------------------------------------------

 -------------------------------
 CID_116308785_JID_4617_neutraal
 -------------------------------
 Symbolic Z-matrix:
 Charge =  0 Multiplicity = 1

 SCF Done:  E(RB3LYP) =  -995.956936642     A.U. after   14 cycles
 SCF Done:  E(RB3LYP) =  -995.961494929     A.U. after   12 cycles
 SCF Done:  E(RB3LYP) =  -995.962047755     A.U. after   12 cycles
 SCF Done:  E(RB3LYP) =  -995.961759239     A.U. after   12 cycles
 SCF Done:  E(RB3LYP) =  -995.962617125     A.U. after   12 cycles
 SCF Done:  E(RB3LYP) =  -995.962555715     A.U. after   13 cycles
 SCF Done:  E(RB3LYP) =  -995.962915652     A.U. after   12 cycles
 SCF Done:  E(RB3LYP) =  -995.963049791     A.U. after   12 cycles
 SCF Done:  E(RB3LYP) =  -995.963068969     A.U. after   11 cycles
 SCF Done:  E(RB3LYP) =  -995.963071242     A.U. after    8 cycles
 SCF Done:  E(RB3LYP) =  -995.963071577     A.U. after    8 cycles
 SCF Done:  E(RB3LYP) =  -995.963071589     A.U. after    8 cycles
 SCF Done:  E(RB3LYP) =  -995.963071749     A.U. after    8 cycles
 SCF Done:  E(RB3LYP) =  -995.963071766     A.U. after    7 cycles
 Optimization completed.
    -- Stationary point found.
 Normal termination of Gaussian 16 at Thu Dec 10 10:17:37 2020.

 --------------------------------------------------------------------
 #N Geom=AllCheck Guess=TCheck SCRF=Check GenChk RB3LYP/6-31G(d) Freq
 --------------------------------------------------------------------

 Structure from the checkpoint file:  "JID_4617.chk"
 -------------------------------
 CID_116308785_JID_4617_neutraal
 -------------------------------
 Charge =  0 Multiplicity = 1

 SCF Done:  E(RB3LYP) =  -995.963071766     A.U. after    1 cycles

  Exact polarizability: 154.658   1.010 132.995  -5.988   3.355 106.155
 Approx polarizability: 193.819   3.305 185.256 -11.383   2.469 173.503

                      1                      2                      3
                      A                      A                      A
 Frequencies --     24.0334                27.9296                60.0917
 Red. masses --      4.9581                 3.9569                 5.9952
 Frc consts  --      0.0017                 0.0018                 0.0128
 IR Inten    --      0.2848                 2.6565                 1.2361

                      4                      5                      6
                      A                      A                      A
 Frequencies --     81.5808               114.5104               141.2260
 Red. masses --      3.2504                 2.9941                 1.3253
 Frc consts  --      0.0127                 0.0231                 0.0156
 IR Inten    --      0.4753                 0.1138                 0.6126

                      7                      8                      9
                      A                      A                      A
 Frequencies --    158.0155               176.9501               180.0104
 Red. masses --      2.4088                 2.3686                 3.8196
 Frc consts  --      0.0354                 0.0437                 0.0729
 IR Inten    --      0.1704                 1.9031                 2.1048

                     10                     11                     12
                      A                      A                      A
 Frequencies --    207.8829               228.9790               262.6478
 Red. masses --      3.2088                 2.9722                 1.0804
 Frc consts  --      0.0817                 0.0918                 0.0439
 IR Inten    --      1.1990                 4.0081                 0.6606

                     13                     14                     15
                      A                      A                      A
 Frequencies --    314.1663               330.8994               340.1560
 Red. masses --      1.9986                 3.9312                 2.9675
 Frc consts  --      0.1162                 0.2536                 0.2023
 IR Inten    --      0.0686                 4.7353                11.3707

                     16                     17                     18
                      A                      A                      A
 Frequencies --    353.4385               367.5981               381.9271
 Red. masses --      2.4285                 4.6931                 3.0378
 Frc consts  --      0.1787                 0.3736                 0.2611
 IR Inten    --      9.4616                 3.8014                 1.1616

                     19                     20                     21
                      A                      A                      A
 Frequencies --    468.0090               488.5832               503.1888
 Red. masses --      1.9532                 2.9757                 3.9824
 Frc consts  --      0.2521                 0.4185                 0.5941
 IR Inten    --      1.3525                 3.8841                 7.4478

                     22                     23                     24
                      A                      A                      A
 Frequencies --    586.7442               606.8939               670.0156
 Red. masses --      3.8900                 3.8935                 3.8367
 Frc consts  --      0.7890                 0.8449                 1.0148
 IR Inten    --      2.2965                 2.5253                 2.5536

                     25                     26                     27
                      A                      A                      A
 Frequencies --    713.6523               769.9844               786.1286
 Red. masses --      1.8010                 2.3532                 3.2610
 Frc consts  --      0.5404                 0.8220                 1.1874
 IR Inten    --     79.2475                22.6558                 2.3875

                     28                     29                     30
                      A                      A                      A
 Frequencies --    801.9925               837.2862               847.1322
 Red. masses --      2.1658                 3.4970                 1.5238
 Frc consts  --      0.8207                 1.4444                 0.6443
 IR Inten    --      2.8658                 7.7881                 1.3116

                     31                     32                     33
                      A                      A                      A
 Frequencies --    879.7015               916.2544               926.0278
 Red. masses --      1.8709                 2.5455                 2.2289
 Frc consts  --      0.8531                 1.2591                 1.1261
 IR Inten    --      7.0058                 5.1459                 5.1380

                     34                     35                     36
                      A                      A                      A
 Frequencies --    949.6777               968.0906               997.5527
 Red. masses --      1.9528                 2.1211                 1.6493
 Frc consts  --      1.0377                 1.1712                 0.9670
 IR Inten    --      3.9640                10.9937                 7.0438

                     37                     38                     39
                      A                      A                      A
 Frequencies --   1024.0718              1062.1689              1064.4139
 Red. masses --      3.5081                 1.9596                 1.9810
 Frc consts  --      2.1676                 1.3026                 1.3224
 IR Inten    --      9.1108                 2.0507                13.3197

                     40                     41                     42
                      A                      A                      A
 Frequencies --   1086.8244              1104.4533              1120.7491
 Red. masses --      1.7814                 1.5937                 1.3130
 Frc consts  --      1.2398                 1.1454                 0.9717
 IR Inten    --      6.2687                10.5894                14.7497

                     43                     44                     45
                      A                      A                      A
 Frequencies --   1130.6330              1161.0132              1177.4501
 Red. masses --      2.3557                 2.1360                 2.4088
 Frc consts  --      1.7742                 1.6964                 1.9676
 IR Inten    --     64.5394                32.6665                24.9164

                     46                     47                     48
                      A                      A                      A
 Frequencies --   1185.9901              1219.5293              1226.7154
 Red. masses --      1.2810                 1.4725                 1.3463
 Frc consts  --      1.0616                 1.2903                 1.1937
 IR Inten    --      1.3349                 1.4416                 7.5759

                     49                     50                     51
                      A                      A                      A
 Frequencies --   1256.3392              1277.3373              1286.9954
 Red. masses --      1.3633                 1.8333                 1.4666
 Frc consts  --      1.2678                 1.7624                 1.4313
 IR Inten    --     29.3312               226.9812                69.0155

                     52                     53                     54
                      A                      A                      A
 Frequencies --   1288.4919              1310.8993              1327.6802
 Red. masses --      1.2911                 1.3803                 1.6396
 Frc consts  --      1.2629                 1.3976                 1.7029
 IR Inten    --      9.3243                 9.1818                32.0722

                     55                     56                     57
                      A                      A                      A
 Frequencies --   1339.3678              1366.6698              1378.2792
 Red. masses --      1.3057                 1.2710                 1.5745
 Frc consts  --      1.3800                 1.3987                 1.7622
 IR Inten    --     15.9040                 1.3384                18.3101

                     58                     59                     60
                      A                      A                      A
 Frequencies --   1396.3732              1399.4152              1406.4074
 Red. masses --      1.3664                 1.4064                 1.3057
 Frc consts  --      1.5698                 1.6228                 1.5216
 IR Inten    --      1.3897                 1.9822                 5.8530

                     61                     62                     63
                      A                      A                      A
 Frequencies --   1422.1302              1442.3128              1489.4792
 Red. masses --      1.3730                 1.2676                 1.1017
 Frc consts  --      1.6361                 1.5536                 1.4401
 IR Inten    --      6.2925                 9.1963                 3.2034

                     64                     65                     66
                      A                      A                      A
 Frequencies --   1491.4773              1496.8333              1502.4618
 Red. masses --      1.2096                 1.0923                 1.1828
 Frc consts  --      1.5853                 1.4419                 1.5731
 IR Inten    --      7.8412                 5.1497                 0.5650

                     67                     68                     69
                      A                      A                      A
 Frequencies --   1511.0458              1512.2644              1523.0821
 Red. masses --      1.0954                 1.0482                 1.0519
 Frc consts  --      1.4736                 1.4123                 1.4378
 IR Inten    --      5.5629                 6.0124                 5.9042

                     70                     71                     72
                      A                      A                      A
 Frequencies --   1523.8822              1524.1565              1536.0537
 Red. masses --      1.0787                 1.0678                 1.1226
 Frc consts  --      1.4758                 1.4615                 1.5605
 IR Inten    --      6.1715                 8.1704                 7.3501

                     73                     74                     75
                      A                      A                      A
 Frequencies --   1541.4056              1810.1378              2990.0746
 Red. masses --      1.0605                11.3158                 1.0736
 Frc consts  --      1.4845                21.8453                 5.6551
 IR Inten    --     13.1623               194.3768                53.5592

                     76                     77                     78
                      A                      A                      A
 Frequencies --   3026.7011              3030.0122              3035.2241
 Red. masses --      1.0614                 1.0822                 1.0619
 Frc consts  --      5.7287                 5.8541                 5.7641
 IR Inten    --     25.9577                25.3111                43.3972

                     79                     80                     81
                      A                      A                      A
 Frequencies --   3048.0171              3049.7087              3057.5710
 Red. masses --      1.0858                 1.0670                 1.0400
 Frc consts  --      5.9433                 5.8470                 5.7284
 IR Inten    --     14.8593                21.4378                29.2288

                     82                     83                     84
                      A                      A                      A
 Frequencies --   3067.1116              3076.4374              3083.0700
 Red. masses --      1.1001                 1.0293                 1.0946
 Frc consts  --      6.0974                 5.7398                 6.1303
 IR Inten    --     27.8115                30.4973                43.5546

                     85                     86                     87
                      A                      A                      A
 Frequencies --   3086.1477              3116.5451              3127.3137
 Red. masses --      1.0672                 1.1012                 1.0977
 Frc consts  --      5.9885                 6.3018                 6.3252
 IR Inten    --     40.2373                19.8883                24.6663

                     88                     89                     90
                      A                      A                      A
 Frequencies --   3139.3023              3146.4529              3147.5893
 Red. masses --      1.0900                 1.1012                 1.1025
 Frc consts  --      6.3294                 6.4231                 6.4354
 IR Inten    --      7.8572                 9.6790                19.8705

                     91                     92                     93
                      A                      A                      A
 Frequencies --   3151.3818              3182.4520              3518.2447
 Red. masses --      1.1074                 1.1073                 1.0745
 Frc consts  --      6.4795                 6.6078                 7.8361
 IR Inten    --     24.5544                19.2874                 0.4643

 - Thermochemistry -
 -------------------
 Temperature   298.150 Kelvin.  Pressure   1.00000 Atm.
 Atom     1 has atomic number  6 and mass  12.00000

 Molecular mass:   217.11365 amu.
 Principal axes and moments of inertia in atomic units:
                           1         2         3
     Eigenvalues --  1691.467065713.035586807.22238
           X            0.99988  -0.01295  -0.00859
           Y            0.01299   0.99990   0.00504
           Z            0.00852  -0.00515   0.99995
 This molecule is an asymmetric top.
 Rotational symmetry number  1.
 Warning -- assumption of classical behavior for rotation
           may cause significant error
 Rotational temperatures (Kelvin)      0.05121     0.01516     0.01272
 Rotational constants (GHZ):           1.06697     0.31590     0.26512
 Zero-point vibrational energy     762459.7 (Joules/Mol)
                                  182.23224 (Kcal/Mol)
 Warning -- explicit consideration of  23 degrees of freedom as
           vibrations may cause significant error
 Vibrational temperatures:     34.58    40.18    86.46   117.38   164.75
          (Kelvin)            203.19   227.35   254.59   258.99   299.10
                              329.45   377.89   452.02   476.09   489.41
                              508.52   528.89   549.51   673.36   702.96
                              723.98   844.19   873.18   964.00  1026.79
                             1107.84  1131.06  1153.89  1204.67  1218.83
                             1265.69  1318.29  1332.35  1366.37  1392.87
                             1435.26  1473.41  1528.22  1531.45  1563.70
                             1589.06  1612.51  1626.73  1670.44  1694.09
                             1706.38  1754.63  1764.97  1807.59  1837.80
                             1851.70  1853.85  1886.09  1910.24  1927.05
                             1966.33  1983.04  2009.07  2013.45  2023.51
                             2046.13  2075.17  2143.03  2145.90  2153.61
                             2161.71  2174.06  2175.81  2191.38  2192.53
                             2192.92  2210.04  2217.74  2604.38  4302.05
                             4354.75  4359.51  4367.01  4385.42  4387.85
                             4399.16  4412.89  4426.31  4435.85  4440.28
                             4484.01  4499.51  4516.76  4527.04  4528.68
                             4534.14  4578.84  5061.97

 Zero-point correction=                           0.290406 (Hartree/Particle)
 Thermal correction to Energy=                    0.305880
 Thermal correction to Enthalpy=                  0.306824
 Thermal correction to Gibbs Free Energy=         0.246232
 Sum of electronic and zero-point Energies=           -995.672666
 Sum of electronic and thermal Energies=              -995.657192
 Sum of electronic and thermal Enthalpies=            -995.656247
 Sum of electronic and thermal Free Energies=         -995.716840

                     E (Thermal)             CV                S
                      KCal/Mol        Cal/Mol-Kelvin    Cal/Mol-Kelvin
 Total                  191.943             57.391            127.527
 Electronic               0.000              0.000              0.000
 Translational            0.889              2.981             42.029
 Rotational               0.889              2.981             32.553
 Vibrational            190.165             51.429             52.945
 Vibration     1          0.593              1.985              6.269
 Vibration     2          0.593              1.984              5.971
 Vibration     3          0.597              1.973              4.454
 Vibration     4          0.600              1.962              3.852
 Vibration     5          0.607              1.937              3.191
 Vibration     6          0.615              1.912              2.787
 Vibration     7          0.621              1.894              2.573
 Vibration     8          0.628              1.871              2.360
 Vibration     9          0.629              1.867              2.328
 Vibration    10          0.641              1.829              2.062
 Vibration    11          0.652              1.797              1.887
 Vibration    12          0.670              1.741              1.644
 Vibration    13          0.702              1.647              1.340
 Vibration    14          0.713              1.614              1.256
 Vibration    15          0.720              1.595              1.211
 Vibration    16          0.730              1.568              1.151
 Vibration    17          0.740              1.539              1.090
 Vibration    18          0.751              1.509              1.032
 Vibration    19          0.825              1.321              0.743
 Vibration    20          0.844              1.275              0.687
 Vibration    21          0.858              1.243              0.650
 Vibration    22          0.944              1.060              0.473
 Vibration    23          0.966              1.017              0.438

                           ! Non-Optimized Parameters !
 Normal termination of Gaussian 16 at Thu Dec 10 10:27:28 2020.

 ----------------------------------------------------------------------
 # B3LYP/6-311++G(d,p) empiricaldispersion=gd3bj scf=xqc pop=npa geom=c
 heck
 ----------------------------------------------------------------------

 ---------------------------------------
 CID_116308785_JID_4617_Energie_neutraal
 ---------------------------------------
 Structure from the checkpoint file:  "JID_4617.chk"
 Charge =  0 Multiplicity = 1

 SCF Done:  E(RB3LYP) =  -996.164674246     A.U. after   14 cycles
 Normal termination of Gaussian 16 at Thu Dec 10 10:32:17 2020.

 ----------------------------------------------------------------------
 # B3LYP/6-311++G(d,p) empiricaldispersion=gd3bj scf=xqc pop=npa geom=c
 heck
 ----------------------------------------------------------------------

 -------------------------------------
 CID_116308785_JID_4617_Energie_kation
 -------------------------------------
 Structure from the checkpoint file:  "JID_4617.chk"
 Charge =  1 Multiplicity = 2

 SCF Done:  E(UB3LYP) =  -995.878919242     A.U. after   23 cycles
 Normal termination of Gaussian 16 at Thu Dec 10 10:44:27 2020.
 Gaussian 16:  ES64L-G16RevA.03 25-Dec-2016

 ----------------------------------------------------------------------
 # B3LYP/6-311++G(d,p) empiricaldispersion=gd3bj scf=xqc pop=npa geom=c
 heck
 ----------------------------------------------------------------------

 ------------------------------------
 CID_116308785_JID_4617_Energie_anion
 ------------------------------------
 Structure from the checkpoint file:  "JID_4617.chk"
 Charge = -1 Multiplicity = 2

                         Standard orientation:
 ---------------------------------------------------------------------
 Center     Atomic      Atomic             Coordinates (Angstroms)
 Number     Number       Type             X           Y           Z
 ---------------------------------------------------------------------
      1          6           0        3.066784    1.953353   -0.469266
      2          6           0        2.308905    1.168122    0.603397
      3          6           0        0.795438    1.447642    0.585176
      4          7           0        0.217242    1.023269   -0.691091
      5          6           0       -1.174853    0.549744   -0.677208
      6          6           0       -2.167034    1.509559    0.009138
      7          6           0       -3.630432    1.055026   -0.083515
      8          6           0       -3.859438   -0.313590    0.558552
      9         16           0       -2.880152   -1.635007   -0.251269
     10          6           0       -1.227289   -0.861983   -0.078568
     11          6           0        2.488752   -0.343719    0.528040
     12          8           0        1.877839   -1.131497    1.221327
     13          8           0        3.410144   -0.724294   -0.378666
     14          6           0        3.597776   -2.142878   -0.496442
     15          1           0        2.736183    1.659555   -1.469541
     16          1           0        4.143421    1.775259   -0.411196
     17          1           0        2.888739    3.027683   -0.341520
     18          1           0        2.682449    1.460381    1.595933
     19          1           0        0.340380    0.868293    1.390164
     20          1           0        0.623767    2.512569    0.811447
     21          1           0        0.307079    1.770045   -1.374209
     22          1           0       -1.466911    0.458475   -1.730904
     23          1           0       -1.891664    1.614936    1.067775
     24          1           0       -2.062412    2.505367   -0.442106
     25          1           0       -4.274465    1.794776    0.411777
     26          1           0       -3.939161    1.012193   -1.135522
     27          1           0       -3.608645   -0.285304    1.626322
     28          1           0       -4.905979   -0.620937    0.471619
     29          1           0       -0.520808   -1.508210   -0.603992
     30          1           0       -0.937812   -0.861689    0.976797
     31          1           0        3.921745   -2.567960    0.456966
     32          1           0        2.664859   -2.624994   -0.799746
     33          1           0        4.365458   -2.274523   -1.259242
 ---------------------------------------------------------------------

 SCF Done:  E(UB3LYP) =  -996.151729141     A.U. after   33 cycles
 SCF Done:  E(UB3LYP) =  -996.151729141     a.u. after    1 cycles

 The electronic state is 2-A.
 Alpha  occ. eigenvalues --  -88.74083 -19.07484 -19.01181 -14.19893 -10.20057
 Alpha  occ. eigenvalues --  -10.13257 -10.10544 -10.10524 -10.09519 -10.09367
 Alpha  occ. eigenvalues --  -10.08913 -10.07843 -10.06814 -10.06027  -7.82712
 Alpha  occ. eigenvalues --   -5.79095  -5.78756  -5.78081  -1.01369  -0.92323
 Alpha  occ. eigenvalues --   -0.81433  -0.73574  -0.70215  -0.65813  -0.64543
 Alpha  occ. eigenvalues --   -0.62750  -0.58139  -0.53205  -0.52667  -0.50512
 Alpha  occ. eigenvalues --   -0.47072  -0.45250  -0.41830  -0.40189  -0.38652
 Alpha  occ. eigenvalues --   -0.38364  -0.37669  -0.36459  -0.35866  -0.33676
 Alpha  occ. eigenvalues --   -0.32707  -0.32283  -0.31759  -0.30276  -0.29714
 Alpha  occ. eigenvalues --   -0.29412  -0.28060  -0.26454  -0.26371  -0.26148
 Alpha  occ. eigenvalues --   -0.25083  -0.24472  -0.23495  -0.22965  -0.21324
 Alpha  occ. eigenvalues --   -0.20846  -0.18139  -0.13744  -0.12340   0.04258
 Alpha virt. eigenvalues --    0.05907   0.06573   0.07323   0.08171   0.08725
 Alpha virt. eigenvalues --    0.09061   0.09522   0.09684   0.10171   0.10498
 Alpha virt. eigenvalues --    0.11094   0.11423   0.12017   0.12264   0.12734

  Beta  occ. eigenvalues --  -88.74082 -19.07477 -19.01166 -14.19869 -10.20038
  Beta  occ. eigenvalues --  -10.13231 -10.10539 -10.10515 -10.09498 -10.09363
  Beta  occ. eigenvalues --  -10.08905 -10.07824 -10.06786 -10.05995  -7.82711
  Beta  occ. eigenvalues --   -5.79094  -5.78754  -5.78079  -1.01347  -0.92300
  Beta  occ. eigenvalues --   -0.81400  -0.73550  -0.70180  -0.65788  -0.64509
  Beta  occ. eigenvalues --   -0.62707  -0.58083  -0.53153  -0.52625  -0.50463
  Beta  occ. eigenvalues --   -0.47035  -0.45207  -0.41788  -0.40137  -0.38613
  Beta  occ. eigenvalues --   -0.38321  -0.37629  -0.36423  -0.35837  -0.33648
  Beta  occ. eigenvalues --   -0.32675  -0.32254  -0.31721  -0.30237  -0.29676
  Beta  occ. eigenvalues --   -0.29361  -0.28025  -0.26425  -0.26340  -0.26107
  Beta  occ. eigenvalues --   -0.25050  -0.24441  -0.23462  -0.22935  -0.21277
  Beta  occ. eigenvalues --   -0.20826  -0.18116  -0.13710  -0.12311
  Beta virt. eigenvalues --    0.06362   0.06658   0.07420   0.07849   0.08646
  Beta virt. eigenvalues --    0.09041   0.09267   0.09759   0.10233   0.10493
  Beta virt. eigenvalues --    0.10831   0.11449   0.11689   0.12314   0.12359

 Mulliken charges and spin densities:
               1          2
     1  C    1.047054  -1.798500
     2  C   -1.073742   1.624350
     3  C    0.569469  -1.098772
     4  N   -0.076242   0.071462
     5  C    0.654152  -1.145511
     6  C   -0.452336   0.466765
     7  C    0.434668  -0.778449
     8  C   -0.175318  -0.384203
     9  S   -0.163273  -0.051031
    10  C   -0.213379   0.038961
    11  C   -0.224109  -0.173981
    12  O   -0.233243  -0.000781
    13  O   -0.049992   0.039862
    14  C    0.511048  -0.696033
    15  H    0.072989   0.098834
    16  H   -0.241259   0.399924
    17  H   -0.227421   0.374395
    18  H   -0.338464   0.559965
    19  H    0.200778  -0.022165
    20  H   -0.408505   0.599975
    21  H   -0.021499   0.290299
    22  H   -0.069455   0.214785
    23  H    0.059371   0.061519
    24  H   -0.433037   0.611780
    25  H   -0.477366   0.657590
    26  H    0.066131   0.047035
    27  H    0.109290   0.046765
    28  H    0.010630   0.193851
    29  H    0.324708  -0.117039
    30  H    0.165969   0.039281
    31  H   -0.023469   0.192446
    32  H   -0.090912   0.255046
    33  H   -0.233237   0.381571
 Sum of Mulliken charges =  -1.00000   1.00000

 Dipole moment (field-independent basis, Debye):
    X=             -1.3459    Y=             -4.5366    Z=              0.3567  Tot=              4.7454
 Quadrupole moment (field-independent basis, Debye-Ang):
   XX=           -169.6926   YY=           -152.7899   ZZ=           -124.4242
   XY=              1.7613   XZ=              1.0579   YZ=              0.4925

 Summary of Natural Population Analysis:

                                       Natural Population
                Natural  -----------------------------------------------
    Atom  No    Charge         Core      Valence    Rydberg      Total
 -----------------------------------------------------------------------
      C    1   -0.28839      0.99965     2.28210    0.00664     3.28839
      C    2   -0.15447      0.99956     2.14323    0.01168     3.15447
      C    3   -0.08706      0.99960     2.07500    0.01246     3.08706
      N    4   -0.34782      0.99972     2.83526    0.01284     3.84782
      C    5   -0.01301      0.99956     1.99924    0.01421     3.01301
      C    6   -0.20091      0.99960     2.19012    0.01119     3.20091
      C    7   -0.19542      0.99962     2.18561    0.01020     3.19542
      C    8   -0.24983      0.99959     2.23915    0.01108     3.24983
      S    9    0.07966      4.99964     2.90353    0.01717     7.92034
      C   10   -0.25012      0.99955     2.24098    0.00959     3.25012
      C   11    0.42157      0.99966     1.55122    0.02755     2.57843
      O   12   -0.31487      0.99987     3.30953    0.00547     4.31487
      O   13   -0.27518      0.99986     3.26650    0.00883     4.27518
      C   14   -0.10333      0.99959     2.09545    0.00829     3.10333
      H   15    0.10345      0.00000     0.39494    0.00161     0.39655
      H   16    0.10446      0.00000     0.39405    0.00149     0.39554
      H   17    0.10102      0.00000     0.39749    0.00149     0.39898
      H   18    0.11053      0.00000     0.38800    0.00146     0.38947
      H   19    0.10091      0.00000     0.39723    0.00186     0.39909
      H   20    0.09056      0.00000     0.40750    0.00195     0.40944
      H   21    0.18008      0.00000     0.31689    0.00303     0.31992
      H   22    0.09521      0.00000     0.40275    0.00204     0.40479
      H   23    0.09506      0.00000     0.40327    0.00167     0.40494
      H   24    0.10566      0.00000     0.39215    0.00219     0.39434
      H   25    0.10119      0.00000     0.39723    0.00158     0.39881
      H   26    0.09704      0.00000     0.40139    0.00158     0.40296
      H   27    0.09727      0.00000     0.40136    0.00138     0.40273
      H   28    0.10525      0.00000     0.39381    0.00094     0.39475
      H   29    0.11359      0.00000     0.38515    0.00126     0.38641
      H   30    0.10459      0.00000     0.39391    0.00150     0.39541
      H   31    0.09011      0.00000     0.40852    0.00137     0.40989
      H   32    0.09183      0.00000     0.40676    0.00140     0.40817
      H   33    0.09136      0.00000     0.40726    0.00138     0.40864
 =======================================================================
   * Total *    0.00000     17.99507    40.80655    0.19838    59.00000

 Normal termination of Gaussian 16 at Thu Dec 10 11:00:45 2020.
