 Gaussian 16, Revision A.03,

 -----------------------------------------------------------
 # opt freq B3LYP/6-31G(d) empiricaldispersion=gd3bj scf=xqc
 -----------------------------------------------------------

 ------------------------------
 CID_63296755_JID_4031_neutraal
 ------------------------------
 Symbolic Z-matrix:
 Charge =  0 Multiplicity = 1

 SCF Done:  E(RB3LYP) =  -937.687479296     A.U. after   15 cycles
 SCF Done:  E(RB3LYP) =  -937.694013214     A.U. after   12 cycles
 SCF Done:  E(RB3LYP) =  -937.694908447     A.U. after   11 cycles
 SCF Done:  E(RB3LYP) =  -937.695075613     A.U. after   11 cycles
 SCF Done:  E(RB3LYP) =  -937.695119335     A.U. after   10 cycles
 SCF Done:  E(RB3LYP) =  -937.695145094     A.U. after   10 cycles
 SCF Done:  E(RB3LYP) =  -937.695159196     A.U. after   10 cycles
 SCF Done:  E(RB3LYP) =  -937.695161058     A.U. after    8 cycles
 SCF Done:  E(RB3LYP) =  -937.695161306     A.U. after    7 cycles
 Optimization completed.
    -- Stationary point found.
 Normal termination of Gaussian 16 at Thu Dec 10 09:13:27 2020.

 --------------------------------------------------------------------
 #N Geom=AllCheck Guess=TCheck SCRF=Check GenChk RB3LYP/6-31G(d) Freq
 --------------------------------------------------------------------

 Structure from the checkpoint file:  "JID_4031.chk"
 ------------------------------
 CID_63296755_JID_4031_neutraal
 ------------------------------
 Charge =  0 Multiplicity = 1

 SCF Done:  E(RB3LYP) =  -937.695161306     A.U. after    1 cycles

  Exact polarizability: 186.320   2.405 125.694  -7.903  -7.156 115.095
 Approx polarizability: 226.578   6.895 205.265 -14.884 -22.436 178.491

                      1                      2                      3
                      A                      A                      A
 Frequencies --     30.1456                35.8639                54.0888
 Red. masses --      4.1060                 3.8203                 2.8317
 Frc consts  --      0.0022                 0.0029                 0.0049
 IR Inten    --      0.2319                 0.2500                 0.3525

                      4                      5                      6
                      A                      A                      A
 Frequencies --     68.4616                72.9144               118.3420
 Red. masses --      3.5995                 3.8822                 3.2399
 Frc consts  --      0.0099                 0.0122                 0.0267
 IR Inten    --      0.2323                 0.2520                 0.9379

                      7                      8                      9
                      A                      A                      A
 Frequencies --    165.7831               213.5770               238.0287
 Red. masses --      3.0312                 2.4208                 1.6695
 Frc consts  --      0.0491                 0.0651                 0.0557
 IR Inten    --      0.0923                 4.3264                 2.8949

                     10                     11                     12
                      A                      A                      A
 Frequencies --    263.7374               271.8612               280.7369
 Red. masses --      2.8954                 2.3722                 2.3096
 Frc consts  --      0.1187                 0.1033                 0.1072
 IR Inten    --      0.2987                 1.2976                 0.1274

                     13                     14                     15
                      A                      A                      A
 Frequencies --    309.3688               354.1024               368.8600
 Red. masses --      2.6639                 3.3730                 3.7430
 Frc consts  --      0.1502                 0.2492                 0.3001
 IR Inten    --      1.4973                 3.3226                 2.5693

                     16                     17                     18
                      A                      A                      A
 Frequencies --    420.9417               493.8496               513.5282
 Red. masses --      3.4286                 4.2437                 3.6658
 Frc consts  --      0.3579                 0.6098                 0.5696
 IR Inten    --      1.1346                13.0472                 2.3820

                     19                     20                     21
                      A                      A                      A
 Frequencies --    542.7895               578.9973               624.9679
 Red. masses --      2.0105                 3.0794                 5.3416
 Frc consts  --      0.3490                 0.6082                 1.2292
 IR Inten    --     25.5228                16.1304                24.2044

                     22                     23                     24
                      A                      A                      A
 Frequencies --    658.2237               696.2343               713.7306
 Red. masses --      3.7914                 2.8559                 2.8005
 Frc consts  --      0.9678                 0.8156                 0.8405
 IR Inten    --     60.9428                 5.2583                37.8995

                     25                     26                     27
                      A                      A                      A
 Frequencies --    765.9849               794.8821               805.4376
 Red. masses --      1.7677                 1.1021                 1.1856
 Frc consts  --      0.6111                 0.4103                 0.4531
 IR Inten    --     22.7408                 1.5292                 5.3034

                     28                     29                     30
                      A                      A                      A
 Frequencies --    840.6105               851.3348               886.0351
 Red. masses --      1.2931                 1.3478                 2.5969
 Frc consts  --      0.5384                 0.5755                 1.2012
 IR Inten    --      8.6761                 5.4083                 2.4144

                     31                     32                     33
                      A                      A                      A
 Frequencies --    922.9420               930.4627               943.5861
 Red. masses --      2.0268                 3.7115                 3.1268
 Frc consts  --      1.0172                 1.8932                 1.6402
 IR Inten    --      5.1025                 0.1407                 9.8548

                     34                     35                     36
                      A                      A                      A
 Frequencies --    967.5185               981.1020               995.6970
 Red. masses --      1.9607                 1.9615                 1.8152
 Frc consts  --      1.0814                 1.1124                 1.0603
 IR Inten    --      9.6138                40.2556                 6.3067

                     37                     38                     39
                      A                      A                      A
 Frequencies --   1042.8864              1053.2152              1058.5895
 Red. masses --      1.9185                 2.7989                 2.6392
 Frc consts  --      1.2294                 1.8292                 1.7425
 IR Inten    --     42.6313                16.3843                34.9602

                     40                     41                     42
                      A                      A                      A
 Frequencies --   1063.1026              1068.4618              1084.9305
 Red. masses --      1.3100                 1.5170                 1.3806
 Frc consts  --      0.8723                 1.0203                 0.9575
 IR Inten    --     12.6981                 4.6086                 2.1021

                     43                     44                     45
                      A                      A                      A
 Frequencies --   1085.9692              1101.6969              1144.9443
 Red. masses --      1.3978                 1.7989                 1.1151
 Frc consts  --      0.9712                 1.2864                 0.8612
 IR Inten    --      1.9257                16.6220                 0.0227

                     46                     47                     48
                      A                      A                      A
 Frequencies --   1158.3423              1177.1133              1189.1417
 Red. masses --      1.1188                 2.2690                 1.8805
 Frc consts  --      0.8844                 1.8524                 1.5667
 IR Inten    --      0.5800                44.1995                19.4427

                     49                     50                     51
                      A                      A                      A
 Frequencies --   1203.9306              1210.4047              1215.3009
 Red. masses --      1.9372                 1.3894                 1.5701
 Frc consts  --      1.6544                 1.1993                 1.3663
 IR Inten    --      3.1342                 0.4689                 1.7960

                     52                     53                     54
                      A                      A                      A
 Frequencies --   1221.8604              1236.2216              1258.0033
 Red. masses --      1.2139                 1.7224                 1.8308
 Frc consts  --      1.0677                 1.5509                 1.7070
 IR Inten    --      1.6809                 2.7366                 5.5233

                     55                     56                     57
                      A                      A                      A
 Frequencies --   1283.3842              1305.3726              1340.9227
 Red. masses --      1.3962                 1.4654                 2.1956
 Frc consts  --      1.3549                 1.4712                 2.3260
 IR Inten    --     69.4082                 7.3860               105.9218

                     58                     59                     60
                      A                      A                      A
 Frequencies --   1352.7339              1371.2639              1377.1251
 Red. masses --      1.2574                 1.5134                 1.4791
 Frc consts  --      1.3556                 1.6767                 1.6527
 IR Inten    --     26.8239                46.7069                34.4117

                     61                     62                     63
                      A                      A                      A
 Frequencies --   1416.5075              1443.3708              1448.4018
 Red. masses --      1.3808                 1.6604                 1.3308
 Frc consts  --      1.6323                 2.0381                 1.6449
 IR Inten    --      0.7106                 0.6612                12.4402

                     64                     65                     66
                      A                      A                      A
 Frequencies --   1485.0302              1493.6628              1495.6935
 Red. masses --      1.4184                 1.0867                 1.0879
 Frc consts  --      1.8430                 1.4285                 1.4340
 IR Inten    --     22.4348                 0.7810                 2.1741

                     67                     68                     69
                      A                      A                      A
 Frequencies --   1525.1688              1530.1458              1534.5013
 Red. masses --      1.0921                 1.1158                 1.0611
 Frc consts  --      1.4968                 1.5392                 1.4721
 IR Inten    --     13.5007                 8.8640                 5.2572

                     70                     71                     72
                      A                      A                      A
 Frequencies --   1535.4464              1541.7489              1713.8325
 Red. masses --      1.3740                 1.2945                 7.4059
 Frc consts  --      1.9086                 1.8129                12.8163
 IR Inten    --      1.2283                 0.3509               413.9196

                     73                     74                     75
                      A                      A                      A
 Frequencies --   3001.8113              3057.3040              3058.0962
 Red. masses --      1.0715                 1.0829                 1.0574
 Frc consts  --      5.6888                 5.9638                 5.8263
 IR Inten    --     59.2336                11.2524                 3.6665

                     76                     77                     78
                      A                      A                      A
 Frequencies --   3064.6657              3082.3151              3128.2907
 Red. masses --      1.0662                 1.0928                 1.0965
 Frc consts  --      5.8999                 6.1168                 6.3224
 IR Inten    --     30.8411                44.8444                18.9873

                     79                     80                     81
                      A                      A                      A
 Frequencies --   3146.5305              3148.1289              3150.4221
 Red. masses --      1.0509                 1.0858                 1.0637
 Frc consts  --      6.1301                 6.3405                 6.2201
 IR Inten    --     17.8739                12.4551                20.2403

                     82                     83                     84
                      A                      A                      A
 Frequencies --   3150.5526              3153.7931              3158.2544
 Red. masses --      1.0586                 1.0689                 1.0826
 Frc consts  --      6.1909                 6.2643                 6.3624
 IR Inten    --     12.8582                35.1266                 4.0062

                     85                     86                     87
                      A                      A                      A
 Frequencies --   3161.0814              3221.7421              3221.8784
 Red. masses --      1.0894                 1.1194                 1.1187
 Frc consts  --      6.4138                 6.8458                 6.8418
 IR Inten    --      7.4579                 0.4651                 0.3847

                     88                     89                     90
                      A                      A                      A
 Frequencies --   3235.7049              3236.1439              3549.6220
 Red. masses --      1.1159                 1.1154                 1.0742
 Frc consts  --      6.8838                 6.8823                 7.9743
 IR Inten    --     20.8897                26.3814                11.4425

 - Thermochemistry -
 -------------------
 Temperature   298.150 Kelvin.  Pressure   1.00000 Atm.
 Atom     1 has atomic number  6 and mass  12.00000

 Molecular mass:   210.11907 amu.
 Principal axes and moments of inertia in atomic units:
                           1         2         3
     Eigenvalues --  1252.314076602.663946866.44386
           X            0.99999   0.00039  -0.00341
           Y           -0.00026   0.99927   0.03832
           Z            0.00342  -0.03832   0.99926
 This molecule is an asymmetric top.
 Rotational symmetry number  1.
 Warning -- assumption of classical behavior for rotation
           may cause significant error
 Rotational temperatures (Kelvin)      0.06916     0.01312     0.01261
 Rotational constants (GHZ):           1.44113     0.27334     0.26283
 Zero-point vibrational energy     732530.2 (Joules/Mol)
                                  175.07893 (Kcal/Mol)
 Warning -- explicit consideration of  20 degrees of freedom as
           vibrations may cause significant error
 Vibrational temperatures:     43.37    51.60    77.82    98.50   104.91
          (Kelvin)            170.27   238.52   307.29   342.47   379.46
                              391.15   403.92   445.11   509.47   530.71
                              605.64   710.54   738.85   780.95   833.05
                              899.19   947.04  1001.73  1026.90  1102.08
                             1143.66  1158.85  1209.45  1224.88  1274.81
                             1327.91  1338.73  1357.61  1392.04  1411.59
                             1432.59  1500.48  1515.34  1523.07  1529.57
                             1537.28  1560.97  1562.47  1585.10  1647.32
                             1666.60  1693.60  1710.91  1732.19  1741.50
                             1748.55  1757.98  1778.65  1809.99  1846.50
                             1878.14  1929.29  1946.28  1972.94  1981.38
                             2038.04  2076.69  2083.93  2136.63  2149.05
                             2151.97  2194.38  2201.54  2207.81  2209.16
                             2218.23  2465.82  4318.94  4398.78  4399.92
                             4409.37  4434.76  4500.91  4527.16  4529.46
                             4532.75  4532.94  4537.60  4544.02  4548.09
                             4635.37  4635.56  4655.46  4656.09  5107.11

 Zero-point correction=                           0.279006 (Hartree/Particle)
 Thermal correction to Energy=                    0.293630
 Thermal correction to Enthalpy=                  0.294574
 Thermal correction to Gibbs Free Energy=         0.235641
 Sum of electronic and zero-point Energies=           -937.416155
 Sum of electronic and thermal Energies=              -937.401532
 Sum of electronic and thermal Enthalpies=            -937.400587
 Sum of electronic and thermal Free Energies=         -937.459520

                     E (Thermal)             CV                S
                      KCal/Mol        Cal/Mol-Kelvin    Cal/Mol-Kelvin
 Total                  184.255             55.291            124.034
 Electronic               0.000              0.000              0.000
 Translational            0.889              2.981             41.931
 Rotational               0.889              2.981             32.407
 Vibrational            182.478             49.329             49.696
 Vibration     1          0.594              1.984              5.820
 Vibration     2          0.594              1.982              5.475
 Vibration     3          0.596              1.976              4.662
 Vibration     4          0.598              1.969              4.197
 Vibration     5          0.599              1.967              4.073
 Vibration     6          0.609              1.934              3.127
 Vibration     7          0.624              1.885              2.483
 Vibration     8          0.644              1.820              2.013
 Vibration     9          0.656              1.782              1.818
 Vibration    10          0.670              1.739              1.637
 Vibration    11          0.675              1.725              1.584
 Vibration    12          0.680              1.709              1.529
 Vibration    13          0.699              1.656              1.366
 Vibration    14          0.730              1.567              1.148
 Vibration    15          0.741              1.536              1.085
 Vibration    16          0.783              1.425              0.889
 Vibration    17          0.850              1.264              0.674
 Vibration    18          0.869              1.220              0.625
 Vibration    19          0.898              1.155              0.559
 Vibration    20          0.936              1.077              0.487

                           ! Non-Optimized Parameters !
 Normal termination of Gaussian 16 at Thu Dec 10 09:21:22 2020.

 ----------------------------------------------------------------------
 # B3LYP/6-311++G(d,p) empiricaldispersion=gd3bj scf=xqc pop=npa geom=c
 heck
 ----------------------------------------------------------------------

 --------------------------------------
 CID_63296755_JID_4031_Energie_neutraal
 --------------------------------------
 Structure from the checkpoint file:  "JID_4031.chk"
 Charge =  0 Multiplicity = 1

 SCF Done:  E(RB3LYP) =  -937.870578812     A.U. after   15 cycles
 Normal termination of Gaussian 16 at Thu Dec 10 09:25:19 2020.

 ----------------------------------------------------------------------
 # B3LYP/6-311++G(d,p) empiricaldispersion=gd3bj scf=xqc pop=npa geom=c
 heck
 ----------------------------------------------------------------------

 ------------------------------------
 CID_63296755_JID_4031_Energie_kation
 ------------------------------------
 Structure from the checkpoint file:  "JID_4031.chk"
 Charge =  1 Multiplicity = 2

 SCF Done:  E(UB3LYP) =  -937.586989069     A.U. after   25 cycles
 Normal termination of Gaussian 16 at Thu Dec 10 09:34:29 2020.
 Gaussian 16:  ES64L-G16RevA.03 25-Dec-2016

 ----------------------------------------------------------------------
 # B3LYP/6-311++G(d,p) empiricaldispersion=gd3bj scf=xqc pop=npa geom=c
 heck
 ----------------------------------------------------------------------

 -----------------------------------
 CID_63296755_JID_4031_Energie_anion
 -----------------------------------
 Structure from the checkpoint file:  "JID_4031.chk"
 Charge = -1 Multiplicity = 2

                         Standard orientation:
 ---------------------------------------------------------------------
 Center     Atomic      Atomic             Coordinates (Angstroms)
 Number     Number       Type             X           Y           Z
 ---------------------------------------------------------------------
      1          6           0       -3.517610    0.505251    1.576815
      2          6           0       -2.353998   -0.012702    0.730741
      3          6           0       -2.749208   -0.745174   -0.547598
      4          6           0       -3.998766   -1.576774   -0.683034
      5          6           0       -3.875292   -0.272037   -1.434125
      6          7           0       -1.464473    1.116658    0.431773
      7          6           0       -0.154730    0.962410    0.056464
      8          7           0        0.499732    1.841123   -0.603049
      9          6           0        1.860077    1.412021   -0.875905
     10          6           0        2.308363    0.326100    0.131869
     11         16           0        0.727566   -0.532777    0.580629
     12          6           0        3.351198   -0.617841   -0.398519
     13          6           0        4.810664   -0.241159   -0.271410
     14          6           0        4.248869   -1.376736    0.545881
     15          1           0       -4.115644    1.243525    1.029712
     16          1           0       -3.127710    0.989883    2.475688
     17          1           0       -4.180184   -0.309421    1.881369
     18          1           0       -1.773584   -0.704310    1.352695
     19          1           0       -1.878445   -1.129875   -1.075013
     20          1           0       -3.931829   -2.506347   -1.241140
     21          1           0       -4.695673   -1.612919    0.148910
     22          1           0       -4.491063    0.557812   -1.098134
     23          1           0       -3.725236   -0.300622   -2.509365
     24          1           0       -1.905845    1.870041   -0.087291
     25          1           0        2.548455    2.263618   -0.830396
     26          1           0        1.916838    1.008008   -1.899335
     27          1           0        2.673889    0.800986    1.049881
     28          1           0        3.059281   -1.132608   -1.311623
     29          1           0        5.472301   -0.474486   -1.100342
     30          1           0        5.052542    0.685374    0.242845
     31          1           0        4.109646   -1.216206    1.611831
     32          1           0        4.526994   -2.392636    0.281523
 ---------------------------------------------------------------------

 SCF Done:  E(UB3LYP) =  -937.854698310     A.U. after   33 cycles
 SCF Done:  E(UB3LYP) =  -937.854698310     a.u. after    1 cycles

 The electronic state is 2-A.
 Alpha  occ. eigenvalues --  -88.75806 -14.23955 -14.19276 -10.16952 -10.12836
 Alpha  occ. eigenvalues --  -10.12145 -10.10879 -10.09673 -10.08939 -10.08704
 Alpha  occ. eigenvalues --  -10.08609 -10.08276 -10.08173 -10.07453  -7.84461
 Alpha  occ. eigenvalues --   -5.80803  -5.80491  -5.79875  -0.88005  -0.81646
 Alpha  occ. eigenvalues --   -0.78035  -0.76784  -0.68965  -0.67026  -0.62531
 Alpha  occ. eigenvalues --   -0.57020  -0.53956  -0.51783  -0.51435  -0.48904
 Alpha  occ. eigenvalues --   -0.48302  -0.47072  -0.42077  -0.40942  -0.39628
 Alpha  occ. eigenvalues --   -0.38839  -0.38484  -0.37379  -0.34563  -0.33190
 Alpha  occ. eigenvalues --   -0.32198  -0.30909  -0.29706  -0.28753  -0.28217
 Alpha  occ. eigenvalues --   -0.28130  -0.27580  -0.27192  -0.25533  -0.25095
 Alpha  occ. eigenvalues --   -0.21622  -0.21285  -0.20444  -0.19983  -0.16806
 Alpha  occ. eigenvalues --   -0.15577  -0.12912   0.04235
 Alpha virt. eigenvalues --    0.05449   0.06780   0.07340   0.07368   0.07623
 Alpha virt. eigenvalues --    0.08057   0.09205   0.09729   0.09911   0.10297
 Alpha virt. eigenvalues --    0.10450   0.10744   0.10845   0.11488   0.11574

  Beta  occ. eigenvalues --  -88.75801 -14.23949 -14.19276 -10.16946 -10.12834
  Beta  occ. eigenvalues --  -10.12138 -10.10871 -10.09663 -10.08936 -10.08677
  Beta  occ. eigenvalues --  -10.08589 -10.08253 -10.08147 -10.07411  -7.84456
  Beta  occ. eigenvalues --   -5.80792  -5.80488  -5.79871  -0.87993  -0.81637
  Beta  occ. eigenvalues --   -0.78013  -0.76768  -0.68947  -0.66997  -0.62504
  Beta  occ. eigenvalues --   -0.56970  -0.53923  -0.51712  -0.51359  -0.48869
  Beta  occ. eigenvalues --   -0.48267  -0.47041  -0.42052  -0.40890  -0.39598
  Beta  occ. eigenvalues --   -0.38799  -0.38454  -0.37346  -0.34539  -0.33163
  Beta  occ. eigenvalues --   -0.32165  -0.30878  -0.29677  -0.28713  -0.28183
  Beta  occ. eigenvalues --   -0.28106  -0.27548  -0.27160  -0.25510  -0.25074
  Beta  occ. eigenvalues --   -0.21593  -0.21258  -0.20419  -0.19957  -0.16797
  Beta  occ. eigenvalues --   -0.15562  -0.12904
  Beta virt. eigenvalues --    0.06263   0.06610   0.07332   0.07719   0.07904
  Beta virt. eigenvalues --    0.08084   0.08378   0.09447   0.09962   0.10273
  Beta virt. eigenvalues --    0.10452   0.10757   0.10956   0.11213   0.11686

 Mulliken charges and spin densities:
               1          2
     1  C    1.341405  -1.888101
     2  C   -0.791517   0.103540
     3  C   -0.768073   1.323765
     4  C    0.455069  -0.918378
     5  C    0.133269  -0.591830
     6  N    0.185376   0.107266
     7  C   -0.379396  -0.110292
     8  N   -0.063168   0.024601
     9  C   -0.003761  -0.758040
    10  C    1.056206  -1.115538
    11  S   -0.021193   0.184327
    12  C   -2.179090   2.565038
    13  C    1.447087  -1.926593
    14  C    0.541669  -1.088268
    15  H   -0.348937   0.500834
    16  H    0.042124   0.133973
    17  H   -0.269459   0.416944
    18  H    0.048819   0.097099
    19  H    0.142624   0.073438
    20  H   -0.205356   0.354391
    21  H   -0.207256   0.341886
    22  H   -0.099312   0.243547
    23  H   -0.187299   0.345061
    24  H    0.204866   0.071995
    25  H    0.072544   0.098514
    26  H    0.062204   0.118095
    27  H    0.033318   0.219074
    28  H   -0.481644   0.720165
    29  H   -0.443506   0.610830
    30  H   -0.036477   0.164496
    31  H   -0.091861   0.235155
    32  H   -0.189275   0.343006
 Sum of Mulliken charges =  -1.00000   1.00000

 Dipole moment (field-independent basis, Debye):
    X=              0.5088    Y=              1.4571    Z=              1.3747  Tot=              2.0668
 Quadrupole moment (field-independent basis, Debye-Ang):
   XX=           -213.5591   YY=           -132.9618   ZZ=           -131.5605
   XY=              8.2502   XZ=              8.8837   YZ=             -3.5913

 Summary of Natural Population Analysis:

                                       Natural Population
                Natural  -----------------------------------------------
    Atom  No    Charge         Core      Valence    Rydberg      Total
 -----------------------------------------------------------------------
      C    1   -0.28951      0.99965     2.28320    0.00666     3.28951
      C    2   -0.01120      0.99957     1.99910    0.01253     3.01120
      C    3   -0.12174      0.99958     2.11167    0.01049     3.12174
      C    4   -0.19712      0.99962     2.18877    0.00873     3.19712
      C    5   -0.20085      0.99962     2.19186    0.00937     3.20085
      N    6   -0.32027      0.99964     2.80792    0.01270     3.82027
      C    7    0.16922      0.99957     1.81159    0.01963     2.83078
      N    8   -0.28565      0.99963     2.77364    0.01238     3.78565
      C    9   -0.09121      0.99959     2.08057    0.01106     3.09121
      C   10   -0.15699      0.99954     2.14420    0.01326     3.15699
      S   11    0.08287      4.99955     2.90195    0.01563     7.91713
      C   12   -0.12595      0.99955     2.11308    0.01332     3.12595
      C   13   -0.19486      0.99962     2.18564    0.00960     3.19486
      C   14   -0.19606      0.99962     2.18685    0.00959     3.19606
      H   15    0.09954      0.00000     0.39888    0.00157     0.40046
      H   16    0.10655      0.00000     0.39239    0.00105     0.39345
      H   17    0.10409      0.00000     0.39466    0.00126     0.39591
      H   18    0.10210      0.00000     0.39589    0.00201     0.39790
      H   19    0.10870      0.00000     0.38978    0.00151     0.39130
      H   20    0.10299      0.00000     0.39610    0.00091     0.39701
      H   21    0.10382      0.00000     0.39496    0.00122     0.39618
      H   22    0.10319      0.00000     0.39548    0.00133     0.39681
      H   23    0.10354      0.00000     0.39557    0.00089     0.39646
      H   24    0.19095      0.00000     0.30541    0.00364     0.30905
      H   25    0.09690      0.00000     0.40127    0.00183     0.40310
      H   26    0.09203      0.00000     0.40634    0.00163     0.40797
      H   27    0.09953      0.00000     0.39895    0.00152     0.40047
      H   28    0.10954      0.00000     0.38893    0.00152     0.39046
      H   29    0.10718      0.00000     0.39095    0.00187     0.39282
      H   30    0.10083      0.00000     0.39815    0.00102     0.39917
      H   31    0.10167      0.00000     0.39736    0.00096     0.39833
      H   32    0.10616      0.00000     0.39263    0.00121     0.39384
 =======================================================================
   * Total *   -0.00000     17.99433    38.81377    0.19190    57.00000

 Normal termination of Gaussian 16 at Thu Dec 10 09:47:45 2020.
