 Gaussian 16, Revision A.03,

 -----------------------------------------------------------
 # opt freq B3LYP/6-31G(d) empiricaldispersion=gd3bj scf=xqc
 -----------------------------------------------------------

 ------------------------------
 CID_54197020_JID_4361_neutraal
 ------------------------------
 Symbolic Z-matrix:
 Charge =  0 Multiplicity = 1

 SCF Done:  E(RB3LYP) =  -612.128982506     A.U. after   14 cycles
 SCF Done:  E(RB3LYP) =  -612.131399006     A.U. after   12 cycles
 SCF Done:  E(RB3LYP) =  -612.132029312     A.U. after   11 cycles
 SCF Done:  E(RB3LYP) =  -612.132169971     A.U. after   12 cycles
 SCF Done:  E(RB3LYP) =  -612.132202188     A.U. after   11 cycles
 SCF Done:  E(RB3LYP) =  -612.132233913     A.U. after   10 cycles
 SCF Done:  E(RB3LYP) =  -612.132241065     A.U. after   10 cycles
 SCF Done:  E(RB3LYP) =  -612.132243437     A.U. after    8 cycles
 SCF Done:  E(RB3LYP) =  -612.132245083     A.U. after    9 cycles
 SCF Done:  E(RB3LYP) =  -612.132246836     A.U. after   10 cycles
 SCF Done:  E(RB3LYP) =  -612.132248646     A.U. after   10 cycles
 SCF Done:  E(RB3LYP) =  -612.132249742     A.U. after    9 cycles
 SCF Done:  E(RB3LYP) =  -612.132249865     A.U. after    7 cycles
 Optimization completed.
    -- Stationary point found.
 Normal termination of Gaussian 16 at Thu Dec 10 09:26:02 2020.

 --------------------------------------------------------------------
 #N Geom=AllCheck Guess=TCheck SCRF=Check GenChk RB3LYP/6-31G(d) Freq
 --------------------------------------------------------------------

 Structure from the checkpoint file:  "JID_4361.chk"
 ------------------------------
 CID_54197020_JID_4361_neutraal
 ------------------------------
 Charge =  0 Multiplicity = 1

 SCF Done:  E(RB3LYP) =  -612.132249865     A.U. after    1 cycles

  Exact polarizability: 151.553   1.039 120.708  -9.038   0.428 102.940
 Approx polarizability: 186.607   5.929 194.835 -20.141   1.683 161.591

                      1                      2                      3
                      A                      A                      A
 Frequencies --     24.0170                36.5049                43.3865
 Red. masses --      4.9308                 3.8420                 3.8975
 Frc consts  --      0.0017                 0.0030                 0.0043
 IR Inten    --      1.4169                 0.3521                 4.4695

                      4                      5                      6
                      A                      A                      A
 Frequencies --     58.4421                70.1426                79.7081
 Red. masses --      3.5000                 3.9833                 3.8011
 Frc consts  --      0.0070                 0.0115                 0.0142
 IR Inten    --      0.3732                 3.5031                 0.9313

                      7                      8                      9
                      A                      A                      A
 Frequencies --    121.8057               150.9023               193.5127
 Red. masses --      2.5349                 3.4699                 1.6945
 Frc consts  --      0.0222                 0.0466                 0.0374
 IR Inten    --      2.2668                 1.3345                 0.5643

                     10                     11                     12
                      A                      A                      A
 Frequencies --    249.4513               254.5888               307.2428
 Red. masses --      2.5237                 1.8114                 1.7953
 Frc consts  --      0.0925                 0.0692                 0.0998
 IR Inten    --      0.5090                 0.0628                 0.0428

                     13                     14                     15
                      A                      A                      A
 Frequencies --    323.0463               370.4117               374.2079
 Red. masses --      2.4284                 2.1027                 1.9925
 Frc consts  --      0.1493                 0.1700                 0.1644
 IR Inten    --      0.0949                 0.3373                 1.3529

                     16                     17                     18
                      A                      A                      A
 Frequencies --    404.9751               449.4471               508.3353
 Red. masses --      1.8604                 1.9967                 2.2337
 Frc consts  --      0.1798                 0.2376                 0.3401
 IR Inten    --      0.4407                 0.4201                 0.4546

                     19                     20                     21
                      A                      A                      A
 Frequencies --    562.3361               664.3716               684.3247
 Red. masses --      2.6821                 3.2101                 2.4788
 Frc consts  --      0.4997                 0.8348                 0.6839
 IR Inten    --      0.4687                 1.7104                12.5168

                     22                     23                     24
                      A                      A                      A
 Frequencies --    713.0848               731.5027               738.8563
 Red. masses --      1.3252                 8.2302                 1.7903
 Frc consts  --      0.3970                 2.5947                 0.5758
 IR Inten    --     16.0331                 0.9853                 2.6423

                     25                     26                     27
                      A                      A                      A
 Frequencies --    774.7522               808.7380               833.7042
 Red. masses --      1.7085                 2.3399                 1.6935
 Frc consts  --      0.6042                 0.9017                 0.6935
 IR Inten    --      7.2786                 1.3959                 3.0185

                     28                     29                     30
                      A                      A                      A
 Frequencies --    844.9414               874.3067               892.6207
 Red. masses --      1.3736                 2.0910                 1.6265
 Frc consts  --      0.5778                 0.9417                 0.7636
 IR Inten    --     10.0344                 2.0130                 0.2380

                     31                     32                     33
                      A                      A                      A
 Frequencies --    940.5975               952.5420               984.9624
 Red. masses --      1.6756                 1.9398                 4.4615
 Frc consts  --      0.8734                 1.0370                 2.5502
 IR Inten    --      0.7148                 1.8850                15.3171

                     34                     35                     36
                      A                      A                      A
 Frequencies --   1000.2521              1003.7182              1015.2763
 Red. masses --      1.7982                 1.6246                 2.0481
 Frc consts  --      1.0600                 0.9643                 1.2439
 IR Inten    --      0.5591                 0.7880                 1.6722

                     37                     38                     39
                      A                      A                      A
 Frequencies --   1047.8394              1060.7793              1077.3692
 Red. masses --      3.7529                 1.6784                 1.5427
 Frc consts  --      2.4278                 1.1127                 1.0551
 IR Inten    --     13.2632                 0.4364                 0.3980

                     40                     41                     42
                      A                      A                      A
 Frequencies --   1083.4635              1116.0156              1122.2246
 Red. masses --      1.9754                 2.6540                 2.3936
 Frc consts  --      1.3662                 1.9476                 1.7761
 IR Inten    --      0.0701                17.7003                 2.6463

                     43                     44                     45
                      A                      A                      A
 Frequencies --   1136.2868              1148.7462              1179.4568
 Red. masses --      1.9322                 2.1487                 1.9851
 Frc consts  --      1.4699                 1.6706                 1.6270
 IR Inten    --     15.1871                 0.7000                 1.3135

                     46                     47                     48
                      A                      A                      A
 Frequencies --   1194.5960              1203.8723              1227.6159
 Red. masses --      1.9831                 1.5947                 1.4502
 Frc consts  --      1.6674                 1.3617                 1.2877
 IR Inten    --     12.6994                 7.0797                 1.1740

                     49                     50                     51
                      A                      A                      A
 Frequencies --   1252.8290              1282.9626              1304.7343
 Red. masses --      1.3212                 1.4806                 1.7153
 Frc consts  --      1.2218                 1.4359                 1.7205
 IR Inten    --      1.9664                 0.2346                 6.0477

                     52                     53                     54
                      A                      A                      A
 Frequencies --   1315.7091              1333.0218              1345.4146
 Red. masses --      1.5697                 1.4266                 1.5906
 Frc consts  --      1.6009                 1.4936                 1.6964
 IR Inten    --      6.2001                 1.8468                 0.8364

                     55                     56                     57
                      A                      A                      A
 Frequencies --   1357.8682              1377.7429              1381.8416
 Red. masses --      1.1494                 1.3273                 1.6193
 Frc consts  --      1.2486                 1.4845                 1.8218
 IR Inten    --      0.2098                26.2627                 2.0392

                     58                     59                     60
                      A                      A                      A
 Frequencies --   1395.5382              1399.9822              1414.7627
 Red. masses --      1.3815                 1.4910                 1.3918
 Frc consts  --      1.5852                 1.7218                 1.6414
 IR Inten    --      0.9875                 4.1388                 0.6165

                     61                     62                     63
                      A                      A                      A
 Frequencies --   1417.8616              1428.9064              1429.8208
 Red. masses --      1.4210                 1.4354                 1.4279
 Frc consts  --      1.6831                 1.7267                 1.7199
 IR Inten    --      2.0108                 2.1489                 3.1973

                     64                     65                     66
                      A                      A                      A
 Frequencies --   1443.7415              1469.9461              1501.0687
 Red. masses --      1.2735                 3.4863                 1.3722
 Frc consts  --      1.5640                 4.4383                 1.8216
 IR Inten    --      5.6583                 6.7587                14.3422

                     67                     68                     69
                      A                      A                      A
 Frequencies --   1507.2687              1513.0988              1518.9935
 Red. masses --      1.2581                 1.0863                 1.0779
 Frc consts  --      1.6840                 1.4654                 1.4653
 IR Inten    --      7.5682                 3.2472                 5.7536

                     70                     71                     72
                      A                      A                      A
 Frequencies --   1522.1389              1526.5914              1531.4054
 Red. masses --      1.1103                 1.3364                 1.2708
 Frc consts  --      1.5156                 1.8350                 1.7559
 IR Inten    --      3.3272                20.9664                19.8209

                     73                     74                     75
                      A                      A                      A
 Frequencies --   1533.6028              1536.1265              1543.6885
 Red. masses --      1.0921                 1.0825                 1.0845
 Frc consts  --      1.5134                 1.5050                 1.5226
 IR Inten    --      5.3580                 1.2451                 0.2853

                     76                     77                     78
                      A                      A                      A
 Frequencies --   1547.3311              3026.3938              3028.1191
 Red. masses --      1.1028                 1.0650                 1.0650
 Frc consts  --      1.5556                 5.7471                 5.7538
 IR Inten    --      2.3609                 0.9171                48.2363

                     79                     80                     81
                      A                      A                      A
 Frequencies --   3035.9438              3042.2109              3044.8693
 Red. masses --      1.0615                 1.0610                 1.0518
 Frc consts  --      5.7644                 5.7857                 5.7453
 IR Inten    --     39.8707                 9.2993                21.0854

                     82                     83                     84
                      A                      A                      A
 Frequencies --   3045.6714              3050.9912              3057.0529
 Red. masses --      1.0533                 1.0641                 1.0748
 Frc consts  --      5.7564                 5.8357                 5.9183
 IR Inten    --      7.8480                 9.5089                 6.5008

                     85                     86                     87
                      A                      A                      A
 Frequencies --   3058.2479              3066.1665              3074.8040
 Red. masses --      1.0894                 1.0925                 1.0963
 Frc consts  --      6.0030                 6.0517                 6.1066
 IR Inten    --      8.1948                45.7680                27.4839

                     88                     89                     90
                      A                      A                      A
 Frequencies --   3077.7756              3079.1835              3088.3721
 Red. masses --      1.1003                 1.1003                 1.0824
 Frc consts  --      6.1411                 6.1463                 6.0827
 IR Inten    --     98.7101                79.0677                 2.5929

                     91                     92                     93
                      A                      A                      A
 Frequencies --   3093.8629              3096.8267              3109.7719
 Red. masses --      1.0852                 1.1002                 1.1016
 Frc consts  --      6.1201                 6.2166                 6.2765
 IR Inten    --     58.6227                50.7043                51.6507

                     94                     95                     96
                      A                      A                      A
 Frequencies --   3116.3991              3156.6927              3301.4165
 Red. masses --      1.1019                 1.1004                 1.0998
 Frc consts  --      6.3055                 6.4608                 7.0625
 IR Inten    --     48.1374                 7.8108                 0.3825

 - Thermochemistry -
 -------------------
 Temperature   298.150 Kelvin.  Pressure   1.00000 Atm.
 Atom     1 has atomic number  6 and mass  12.00000

 Molecular mass:   196.16880 amu.
 Principal axes and moments of inertia in atomic units:
                           1         2         3
     Eigenvalues --   969.410137482.092187808.63685
           X            0.99990  -0.01405  -0.00127
           Y            0.01405   0.99990  -0.00097
           Z            0.00129   0.00096   1.00000
 This molecule is an asymmetric top.
 Rotational symmetry number  1.
 Warning -- assumption of classical behavior for rotation
           may cause significant error
 Rotational temperatures (Kelvin)      0.08935     0.01158     0.01109
 Rotational constants (GHZ):           1.86169     0.24121     0.23112
 Zero-point vibrational energy     804034.4 (Joules/Mol)
                                  192.16883 (Kcal/Mol)
 Warning -- explicit consideration of  19 degrees of freedom as
           vibrations may cause significant error
 Vibrational temperatures:     34.56    52.52    62.42    84.09   100.92
          (Kelvin)            114.68   175.25   217.11   278.42   358.90
                              366.30   442.05   464.79   532.94   538.40
                              582.67   646.65   731.38   809.08   955.88
                              984.59  1025.97  1052.47  1063.05  1114.70
                             1163.59  1199.51  1215.68  1257.93  1284.28
                             1353.31  1370.50  1417.14  1439.14  1444.13
                             1460.76  1507.61  1526.22  1550.09  1558.86
                             1605.70  1614.63  1634.86  1652.79  1696.98
                             1718.76  1732.10  1766.27  1802.54  1845.90
                             1877.22  1893.01  1917.92  1935.75  1953.67
                             1982.26  1988.16  2007.87  2014.26  2035.53
                             2039.99  2055.88  2057.19  2077.22  2114.92
                             2159.70  2168.62  2177.01  2185.49  2190.02
                             2196.42  2203.35  2206.51  2210.14  2221.02
                             2226.26  4354.31  4356.79  4368.05  4377.06
                             4380.89  4382.04  4389.70  4398.42  4400.14
                             4411.53  4423.96  4428.23  4430.26  4443.48
                             4451.38  4455.64  4474.27  4483.80  4541.78
                             4750.00

 Zero-point correction=                           0.306241 (Hartree/Particle)
 Thermal correction to Energy=                    0.321047
 Thermal correction to Enthalpy=                  0.321991
 Thermal correction to Gibbs Free Energy=         0.261699
 Sum of electronic and zero-point Energies=           -611.826009
 Sum of electronic and thermal Energies=              -611.811203
 Sum of electronic and thermal Enthalpies=            -611.810259
 Sum of electronic and thermal Free Energies=         -611.870551

                     E (Thermal)             CV                S
                      KCal/Mol        Cal/Mol-Kelvin    Cal/Mol-Kelvin
 Total                  201.460             54.387            126.895
 Electronic               0.000              0.000              0.000
 Translational            0.889              2.981             41.726
 Rotational               0.889              2.981             32.404
 Vibrational            199.682             48.426             52.764
 Vibration     1          0.593              1.985              6.271
 Vibration     2          0.594              1.982              5.440
 Vibration     3          0.595              1.980              5.098
 Vibration     4          0.596              1.974              4.509
 Vibration     5          0.598              1.968              4.149
 Vibration     6          0.600              1.963              3.898
 Vibration     7          0.609              1.931              3.072
 Vibration     8          0.618              1.902              2.661
 Vibration     9          0.635              1.849              2.194
 Vibration    10          0.662              1.764              1.734
 Vibration    11          0.665              1.755              1.699
 Vibration    12          0.697              1.660              1.377
 Vibration    13          0.708              1.629              1.295
 Vibration    14          0.742              1.533              1.078
 Vibration    15          0.745              1.525              1.062
 Vibration    16          0.770              1.459              0.945
 Vibration    17          0.808              1.362              0.797
 Vibration    18          0.864              1.232              0.638
 Vibration    19          0.918              1.113              0.519

 Optimization completed.
    -- Stationary point found.
 Normal termination of Gaussian 16 at Thu Dec 10 09:36:09 2020.

 ----------------------------------------------------------------------
 # B3LYP/6-311++G(d,p) empiricaldispersion=gd3bj scf=xqc pop=npa geom=c
 heck
 ----------------------------------------------------------------------

 --------------------------------------
 CID_54197020_JID_4361_Energie_neutraal
 --------------------------------------
 Structure from the checkpoint file:  "JID_4361.chk"
 Charge =  0 Multiplicity = 1

 SCF Done:  E(RB3LYP) =  -612.297399032     A.U. after   13 cycles
 Normal termination of Gaussian 16 at Thu Dec 10 09:40:47 2020.

 ----------------------------------------------------------------------
 # B3LYP/6-311++G(d,p) empiricaldispersion=gd3bj scf=xqc pop=npa geom=c
 heck
 ----------------------------------------------------------------------

 ------------------------------------
 CID_54197020_JID_4361_Energie_kation
 ------------------------------------
 Structure from the checkpoint file:  "JID_4361.chk"
 Charge =  1 Multiplicity = 2

 SCF Done:  E(UB3LYP) =  -611.935049158     A.U. after   33 cycles
 SCF Done:  E(UB3LYP) =  -611.935287999     a.u. after    5 cycles
 Normal termination of Gaussian 16 at Thu Dec 10 11:03:56 2020.
 Gaussian 16:  ES64L-G16RevA.03 25-Dec-2016

 ----------------------------------------------------------------------
 # B3LYP/6-311++G(d,p) empiricaldispersion=gd3bj scf=xqc pop=npa geom=c
 heck
 ----------------------------------------------------------------------

 -----------------------------------
 CID_54197020_JID_4361_Energie_anion
 -----------------------------------
 Structure from the checkpoint file:  "JID_4361.chk"
 Charge = -1 Multiplicity = 2

                         Standard orientation:
 ---------------------------------------------------------------------
 Center     Atomic      Atomic             Coordinates (Angstroms)
 Number     Number       Type             X           Y           Z
 ---------------------------------------------------------------------
      1          6           0        5.303474   -0.659679   -0.628983
      2          6           0        4.263454   -1.006174    0.440516
      3          6           0        3.502931    0.211384    0.987666
      4          6           0        2.717195    1.015090   -0.061166
      5          6           0        1.683742    0.203318   -0.858217
      6          6           0        0.623968   -0.514610   -0.008311
      7          6           0       -0.193397    0.396516    0.921158
      8          6           0       -0.908283    1.564153    0.226437
      9          6           0       -1.877254    1.142435   -0.883996
     10          7           0       -2.902783    0.219825   -0.405284
     11          6           0       -3.992497    0.436073    0.356654
     12          7           0       -4.578002   -0.717256    0.611643
     13          7           0       -3.813401   -1.658650   -0.009864
     14          7           0       -2.808612   -1.114242   -0.618399
     15          1           0        4.837099   -0.244798   -1.529531
     16          1           0        5.869868   -1.547361   -0.931414
     17          1           0        6.019642    0.082871   -0.255506
     18          1           0        3.552106   -1.737069    0.034146
     19          1           0        4.762670   -1.508261    1.279420
     20          1           0        2.819315   -0.125159    1.778127
     21          1           0        4.219322    0.886724    1.475887
     22          1           0        2.216705    1.850577    0.446649
     23          1           0        3.418121    1.476742   -0.768086
     24          1           0        1.192191    0.875466   -1.575489
     25          1           0        2.200955   -0.546342   -1.470162
     26          1           0       -0.057714   -1.063240   -0.668705
     27          1           0        1.109279   -1.279173    0.610507
     28          1           0       -0.935634   -0.216737    1.446733
     29          1           0        0.456756    0.816833    1.698066
     30          1           0       -1.458704    2.149984    0.973883
     31          1           0       -0.178996    2.247981   -0.224469
     32          1           0       -2.381833    2.012919   -1.314136
     33          1           0       -1.360835    0.619359   -1.690452
     34          1           0       -4.320734    1.409905    0.687315
 ---------------------------------------------------------------------

 SCF Done:  E(UB3LYP) =  -612.292404913     A.U. after   30 cycles

 The electronic state is 2-A.
 Alpha  occ. eigenvalues --  -14.31390 -14.28055 -14.26895 -14.24084 -10.14765
 Alpha  occ. eigenvalues --  -10.12715 -10.08196 -10.08040 -10.07541 -10.07528
 Alpha  occ. eigenvalues --  -10.07457 -10.07118 -10.07068 -10.07028  -1.03826
 Alpha  occ. eigenvalues --   -0.85504  -0.78965  -0.72964  -0.70863  -0.67500
 Alpha  occ. eigenvalues --   -0.63867  -0.60398  -0.57254  -0.56361  -0.53932
 Alpha  occ. eigenvalues --   -0.51833  -0.48546  -0.44995  -0.43231  -0.40941
 Alpha  occ. eigenvalues --   -0.39794  -0.38574  -0.38081  -0.36664  -0.35271
 Alpha  occ. eigenvalues --   -0.33503  -0.32685  -0.31553  -0.30598  -0.30014
 Alpha  occ. eigenvalues --   -0.28622  -0.28050  -0.27222  -0.26498  -0.25190
 Alpha  occ. eigenvalues --   -0.24796  -0.24262  -0.22612  -0.22012  -0.21852
 Alpha  occ. eigenvalues --   -0.20824  -0.20609  -0.20448  -0.19218   0.03799
 Alpha virt. eigenvalues --    0.05454   0.06819   0.07250   0.07442   0.08123
 Alpha virt. eigenvalues --    0.08705   0.09205   0.09986   0.10241   0.10550
 Alpha virt. eigenvalues --    0.10795   0.11227   0.11529   0.12543   0.12859

  Beta  occ. eigenvalues --  -14.31344 -14.27970 -14.26877 -14.24095 -10.14698
  Beta  occ. eigenvalues --  -10.12677 -10.08161 -10.08032 -10.07536 -10.07518
  Beta  occ. eigenvalues --  -10.07434 -10.07103 -10.07050 -10.07026  -1.03745
  Beta  occ. eigenvalues --   -0.85427  -0.78872  -0.72937  -0.70825  -0.67456
  Beta  occ. eigenvalues --   -0.63821  -0.60349  -0.57196  -0.56309  -0.53856
  Beta  occ. eigenvalues --   -0.51754  -0.48498  -0.44940  -0.43101  -0.40813
  Beta  occ. eigenvalues --   -0.39750  -0.38530  -0.37994  -0.36592  -0.35228
  Beta  occ. eigenvalues --   -0.33450  -0.32652  -0.31519  -0.30564  -0.29965
  Beta  occ. eigenvalues --   -0.28581  -0.28009  -0.27172  -0.26456  -0.25163
  Beta  occ. eigenvalues --   -0.24764  -0.24237  -0.22588  -0.21970  -0.21824
  Beta  occ. eigenvalues --   -0.20647  -0.20385  -0.20328  -0.19187
  Beta virt. eigenvalues --    0.05708   0.07000   0.07119   0.07638   0.07892
  Beta virt. eigenvalues --    0.08588   0.09283   0.09696   0.10293   0.10441
  Beta virt. eigenvalues --    0.10687   0.11025   0.11485   0.11924   0.12917

 Mulliken charges and spin densities:
               1          2
     1  C    0.262723  -0.895322
     2  C   -0.407577   0.204122
     3  C    0.069719  -0.284960
     4  C   -0.127054  -0.132197
     5  C    0.141130  -0.468710
     6  C    0.009015  -0.307875
     7  C   -0.476003   0.260095
     8  C    0.444298  -0.637576
     9  C    0.607143  -1.236858
    10  N   -0.061287   0.099452
    11  C    0.422743  -0.540751
    12  N   -0.175573   0.057385
    13  N    0.000642  -0.074305
    14  N   -0.104356   0.133809
    15  H    0.002539   0.136777
    16  H   -0.024211   0.154307
    17  H   -0.103346   0.238594
    18  H    0.129934  -0.003026
    19  H   -0.016160   0.160259
    20  H    0.007080   0.123356
    21  H   -0.093938   0.251514
    22  H   -0.165106   0.327670
    23  H   -0.129755   0.293901
    24  H   -0.036128   0.191990
    25  H    0.040665   0.121810
    26  H    0.165208   0.013400
    27  H    0.139520   0.010511
    28  H    0.135522   0.025889
    29  H    0.081302   0.080720
    30  H   -0.179956   0.371633
    31  H   -0.283032   0.432665
    32  H   -1.070322   1.317663
    33  H    0.129588   0.065876
    34  H   -0.334966   0.508181
 Sum of Mulliken charges =  -1.00000   1.00000

 Dipole moment (field-independent basis, Debye):
    X=              3.9713    Y=             -3.5219    Z=              1.6277  Tot=              5.5519
 Quadrupole moment (field-independent basis, Debye-Ang):
   XX=           -190.3206   YY=           -140.7382   ZZ=           -115.7844
   XY=             -1.6881   XZ=             -0.9900   YZ=              5.5405

 Summary of Natural Population Analysis:

                                       Natural Population
                Natural  -----------------------------------------------
    Atom  No    Charge         Core      Valence    Rydberg      Total
 -----------------------------------------------------------------------
      C    1   -0.28657      0.99967     2.28263    0.00428     3.28657
      C    2   -0.19163      0.99964     2.18530    0.00669     3.19163
      C    3   -0.19189      0.99963     2.18282    0.00944     3.19189
      C    4   -0.19400      0.99963     2.18530    0.00907     3.19400
      C    5   -0.19475      0.99963     2.18582    0.00930     3.19475
      C    6   -0.19684      0.99962     2.19005    0.00716     3.19684
      C    7   -0.19390      0.99962     2.18606    0.00821     3.19390
      C    8   -0.19624      0.99962     2.18674    0.00988     3.19624
      C    9   -0.08889      0.99959     2.07675    0.01254     3.08889
      N   10   -0.11049      0.99965     2.59490    0.01594     3.61049
      C   11    0.10273      0.99963     1.88056    0.01709     2.89727
      N   12   -0.16954      0.99974     2.65726    0.01254     3.66954
      N   13   -0.04836      0.99981     2.53152    0.01703     3.54836
      N   14   -0.03435      0.99977     2.51746    0.01711     3.53435
      H   15    0.09749      0.00000     0.40149    0.00102     0.40251
      H   16    0.09675      0.00000     0.40226    0.00099     0.40325
      H   17    0.09570      0.00000     0.40311    0.00120     0.40430
      H   18    0.09345      0.00000     0.40533    0.00122     0.40655
      H   19    0.09396      0.00000     0.40497    0.00107     0.40604
      H   20    0.09530      0.00000     0.40360    0.00109     0.40470
      H   21    0.09589      0.00000     0.40312    0.00099     0.40411
      H   22    0.09885      0.00000     0.39993    0.00123     0.40115
      H   23    0.09745      0.00000     0.40144    0.00111     0.40255
      H   24    0.09846      0.00000     0.40039    0.00115     0.40154
      H   25    0.09572      0.00000     0.40328    0.00100     0.40428
      H   26    0.10467      0.00000     0.39380    0.00153     0.39533
      H   27    0.09543      0.00000     0.40350    0.00107     0.40457
      H   28    0.09934      0.00000     0.39942    0.00124     0.40066
      H   29    0.09827      0.00000     0.40071    0.00102     0.40173
      H   30    0.10111      0.00000     0.39745    0.00145     0.39889
      H   31    0.10748      0.00000     0.39013    0.00239     0.39252
      H   32    0.11370      0.00000     0.37826    0.00804     0.38630
      H   33    0.10809      0.00000     0.39001    0.00190     0.39191
      H   34    0.10760      0.00000     0.39069    0.00171     0.39240
 =======================================================================
   * Total *    0.00000     13.99525    39.81606    0.18869    54.00000

 Normal termination of Gaussian 16 at Thu Dec 10 11:19:00 2020.
