 Gaussian 16, Revision A.03,

 -----------------------------------------------------------
 # opt freq B3LYP/6-31G(d) empiricaldispersion=gd3bj scf=xqc
 -----------------------------------------------------------

 -------------------------------
 CID_117554033_JID_9412_neutraal
 -------------------------------
 Symbolic Z-matrix:
 Charge =  0 Multiplicity = 1

 SCF Done:  E(RB3LYP) =  -803.932660579     A.U. after   14 cycles
 SCF Done:  E(RB3LYP) =  -803.937063057     A.U. after   12 cycles
 SCF Done:  E(RB3LYP) =  -803.937841258     A.U. after   12 cycles
 SCF Done:  E(RB3LYP) =  -803.938056695     A.U. after   12 cycles
 SCF Done:  E(RB3LYP) =  -803.938181869     A.U. after   11 cycles
 SCF Done:  E(RB3LYP) =  -803.938233891     A.U. after   11 cycles
 SCF Done:  E(RB3LYP) =  -803.938258704     A.U. after   10 cycles
 SCF Done:  E(RB3LYP) =  -803.938284817     A.U. after   10 cycles
 SCF Done:  E(RB3LYP) =  -803.938299892     A.U. after   10 cycles
 SCF Done:  E(RB3LYP) =  -803.938325966     A.U. after   11 cycles
 SCF Done:  E(RB3LYP) =  -803.941168390     A.U. after    9 cycles
 SCF Done:  E(RB3LYP) =  -803.941169707     A.U. after    9 cycles
 SCF Done:  E(RB3LYP) =  -803.941170193     A.U. after    8 cycles
 SCF Done:  E(RB3LYP) =  -803.941170300     A.U. after    7 cycles
 SCF Done:  E(RB3LYP) =  -803.941170332     A.U. after    6 cycles
 Optimization completed.
    -- Stationary point found.
 Normal termination of Gaussian 16 at Sat Dec 12 09:58:21 2020.

 --------------------------------------------------------------------
 #N Geom=AllCheck Guess=TCheck SCRF=Check GenChk RB3LYP/6-31G(d) Freq
 --------------------------------------------------------------------

 Structure from the checkpoint file:  "JID_9412.chk"
 -------------------------------
 CID_117554033_JID_9412_neutraal
 -------------------------------
 Charge =  0 Multiplicity = 1

 SCF Done:  E(RB3LYP) =  -803.941170332     A.U. after    1 cycles

  Exact polarizability: 267.125   4.734 181.373  -1.017 -10.273 112.517
 Approx polarizability: 348.599  13.892 296.016  -3.989 -28.754 175.411

                      1                      2                      3
                      A                      A                      A
 Frequencies --     24.7614                34.0849                51.6916
 Red. masses --      3.8409                 3.4988                 3.2191
 Frc consts  --      0.0014                 0.0024                 0.0051
 IR Inten    --      0.3645                 0.8479                 1.1253

                      4                      5                      6
                      A                      A                      A
 Frequencies --     68.2040                89.0754               108.3154
 Red. masses --      3.5886                 3.5041                 2.9679
 Frc consts  --      0.0098                 0.0164                 0.0205
 IR Inten    --      0.9670                 0.5637                 1.0782

                      7                      8                      9
                      A                      A                      A
 Frequencies --    122.6577               138.3105               156.4454
 Red. masses --      3.7425                 2.3372                 1.8443
 Frc consts  --      0.0332                 0.0263                 0.0266
 IR Inten    --      0.2555                 0.7699                 2.1465

                     10                     11                     12
                      A                      A                      A
 Frequencies --    178.0684               195.0702               220.5878
 Red. masses --      1.6317                 1.6644                 1.6473
 Frc consts  --      0.0305                 0.0373                 0.0472
 IR Inten    --      0.6522                 0.1654                 0.3324

                     13                     14                     15
                      A                      A                      A
 Frequencies --    228.2916               241.3501               245.3747
 Red. masses --      1.6541                 1.8420                 1.5738
 Frc consts  --      0.0508                 0.0632                 0.0558
 IR Inten    --      0.8177                 1.7130                 0.7372

                     16                     17                     18
                      A                      A                      A
 Frequencies --    262.6484               285.6174               306.1574
 Red. masses --      2.7106                 2.7467                 3.6155
 Frc consts  --      0.1102                 0.1320                 0.1997
 IR Inten    --      0.1119                 1.5137                 1.9588

                     19                     20                     21
                      A                      A                      A
 Frequencies --    322.3277               363.3869               395.9228
 Red. masses --      3.2746                 2.8440                 3.0931
 Frc consts  --      0.2004                 0.2213                 0.2857
 IR Inten    --      0.9970                 0.7096                 0.4979

                     22                     23                     24
                      A                      A                      A
 Frequencies --    413.6562               419.5846               440.4422
 Red. masses --      3.0276                 3.3319                 2.1916
 Frc consts  --      0.3052                 0.3456                 0.2505
 IR Inten    --      0.2156                 1.5178                 1.0162

                     25                     26                     27
                      A                      A                      A
 Frequencies --    444.5770               492.9115               538.5317
 Red. masses --      2.8605                 4.0777                 4.1421
 Frc consts  --      0.3331                 0.5837                 0.7078
 IR Inten    --      5.5884                12.6402                 6.0859

                     28                     29                     30
                      A                      A                      A
 Frequencies --    592.3907               636.8735               686.8125
 Red. masses --      3.3406                 7.7222                 4.9670
 Frc consts  --      0.6907                 1.8454                 1.3804
 IR Inten    --      4.8293                 2.6527                 2.7416

                     31                     32                     33
                      A                      A                      A
 Frequencies --    697.8385               727.8991               730.8060
 Red. masses --      3.1704                 2.8550                 2.2419
 Frc consts  --      0.9096                 0.8913                 0.7055
 IR Inten    --     13.7879                 2.1342                28.6803

                     34                     35                     36
                      A                      A                      A
 Frequencies --    740.7205               773.5619               781.9148
 Red. masses --      3.6903                 1.9726                 3.6020
 Frc consts  --      1.1929                 0.6955                 1.2975
 IR Inten    --     32.2326                36.2988                10.1276

                     37                     38                     39
                      A                      A                      A
 Frequencies --    808.9399               826.5437               869.7741
 Red. masses --      2.4193                 1.8194                 1.4875
 Frc consts  --      0.9328                 0.7323                 0.6630
 IR Inten    --      3.2046                17.2074                70.2684

                     40                     41                     42
                      A                      A                      A
 Frequencies --    886.8856               941.7004               942.4010
 Red. masses --      2.2734                 1.9158                 1.3485
 Frc consts  --      1.0536                 1.0010                 0.7056
 IR Inten    --      1.1599                 2.4779                 0.3967

                     43                     44                     45
                      A                      A                      A
 Frequencies --    947.2331               969.4005               978.3548
 Red. masses --      1.2073                 1.3772                 1.5136
 Frc consts  --      0.6382                 0.7625                 0.8536
 IR Inten    --      1.5177                 2.3245                 1.9531

                     46                     47                     48
                      A                      A                      A
 Frequencies --    985.4550               986.5478              1007.4212
 Red. masses --      1.6858                 1.6561                 1.5235
 Frc consts  --      0.9645                 0.9497                 0.9110
 IR Inten    --      2.4201                 1.0438                 9.3732

                     49                     50                     51
                      A                      A                      A
 Frequencies --   1033.0980              1044.7024              1053.0759
 Red. masses --      5.2143                 1.7898                 4.7471
 Frc consts  --      3.2789                 1.1509                 3.1017
 IR Inten    --     24.1403                 2.1358                11.5404

                     52                     53                     54
                      A                      A                      A
 Frequencies --   1059.0151              1072.6674              1090.7040
 Red. masses --      4.0593                 1.4449                 2.1187
 Frc consts  --      2.6823                 0.9795                 1.4850
 IR Inten    --      2.7565                 3.1094                 2.7468

                     55                     56                     57
                      A                      A                      A
 Frequencies --   1118.9072              1144.2224              1151.0084
 Red. masses --      1.9374                 2.1200                 1.5859
 Frc consts  --      1.4291                 1.6353                 1.2379
 IR Inten    --     15.6503                 1.4295                 5.7846

                     58                     59                     60
                      A                      A                      A
 Frequencies --   1160.0419              1175.7024              1201.5279
 Red. masses --      1.4327                 2.3485                 1.8724
 Frc consts  --      1.1359                 1.9127                 1.5927
 IR Inten    --      3.6833                31.8561                 4.5140

                     61                     62                     63
                      A                      A                      A
 Frequencies --   1205.4215              1216.2816              1234.5854
 Red. masses --      3.3316                 1.8039                 1.4631
 Frc consts  --      2.8522                 1.5723                 1.3139
 IR Inten    --      7.2954                 4.1693                 3.7373

                     64                     65                     66
                      A                      A                      A
 Frequencies --   1239.0476              1291.6509              1303.3439
 Red. masses --      1.5982                 1.6036                 4.7677
 Frc consts  --      1.4456                 1.5763                 4.7717
 IR Inten    --     39.1408                 0.5148                 1.3623

                     67                     68                     69
                      A                      A                      A
 Frequencies --   1310.9571              1342.6323              1348.9207
 Red. masses --      1.4617                 3.6898                 1.3421
 Frc consts  --      1.4801                 3.9190                 1.4388
 IR Inten    --      8.0076                 8.2540                43.3091

                     70                     71                     72
                      A                      A                      A
 Frequencies --   1375.0050              1376.3607              1390.8124
 Red. masses --      1.3640                 1.3472                 1.4129
 Frc consts  --      1.5195                 1.5036                 1.6102
 IR Inten    --      0.1928                 3.6678                 9.5352

                     73                     74                     75
                      A                      A                      A
 Frequencies --   1418.0949              1431.0804              1433.7588
 Red. masses --      1.3607                 1.6687                 1.3087
 Frc consts  --      1.6122                 2.0135                 1.5851
 IR Inten    --     11.7950                10.3697                 4.3403

                     76                     77                     78
                      A                      A                      A
 Frequencies --   1451.7937              1454.0070              1456.7818
 Red. masses --      2.7529                 1.2326                 1.8861
 Frc consts  --      3.4186                 1.5353                 2.3583
 IR Inten    --      1.9255                 7.3963                12.3495

                     79                     80                     81
                      A                      A                      A
 Frequencies --   1471.6765              1484.4774              1505.5029
 Red. masses --      3.1357                 1.1974                 1.1897
 Frc consts  --      4.0014                 1.5547                 1.5888
 IR Inten    --     79.2587                 2.5199                 6.6312

                     82                     83                     84
                      A                      A                      A
 Frequencies --   1513.8875              1516.0898              1516.8423
 Red. masses --      1.0698                 1.0562                 1.0791
 Frc consts  --      1.4446                 1.4304                 1.4628
 IR Inten    --      6.0201                 1.8168                 0.5062

                     85                     86                     87
                      A                      A                      A
 Frequencies --   1523.1050              1526.7057              1528.6638
 Red. masses --      1.0450                 2.3034                 1.0743
 Frc consts  --      1.4283                 3.1633                 1.4791
 IR Inten    --      0.7655                11.0842                16.7050

                     88                     89                     90
                      A                      A                      A
 Frequencies --   1529.7323              1534.5992              1545.3632
 Red. masses --      1.1147                 1.0572                 1.0639
 Frc consts  --      1.5369                 1.4668                 1.4970
 IR Inten    --      7.1910                 1.2434                 5.3201

                     91                     92                     93
                      A                      A                      A
 Frequencies --   1549.9022              1584.9455              1613.1708
 Red. masses --      1.0504                 5.9145                 5.1114
 Frc consts  --      1.4867                 8.7538                 7.8371
 IR Inten    --      8.9354                67.5006                15.9062

                     94                     95                     96
                      A                      A                      A
 Frequencies --   1630.0757              1653.3766              2985.1716
 Red. masses --      5.7278                 5.6485                 1.0583
 Frc consts  --      8.9672                 9.0976                 5.5566
 IR Inten    --     16.5886                12.3240                88.2837

                     97                     98                     99
                      A                      A                      A
 Frequencies --   3014.0505              3028.6949              3031.0578
 Red. masses --      1.0680                 1.0816                 1.0448
 Frc consts  --      5.7165                 5.8458                 5.6556
 IR Inten    --     58.2942                 9.2214                42.6857

                    100                    101                    102
                      A                      A                      A
 Frequencies --   3045.4380              3050.7234              3058.1824
 Red. masses --      1.0392                 1.0449                 1.0770
 Frc consts  --      5.6787                 5.7297                 5.9346
 IR Inten    --     23.2071                18.6000                45.5783

                    103                    104                    105
                      A                      A                      A
 Frequencies --   3089.3154              3089.5989              3101.2693
 Red. masses --      1.0932                 1.0953                 1.0783
 Frc consts  --      6.1472                 6.1603                 6.1104
 IR Inten    --      7.1923                41.5468                28.0888

                    106                    107                    108
                      A                      A                      A
 Frequencies --   3105.8459              3113.4163              3125.0978
 Red. masses --      1.1015                 1.1011                 1.1007
 Frc consts  --      6.2604                 6.2888                 6.3333
 IR Inten    --      1.7050                67.6872                14.3421

                    109                    110                    111
                      A                      A                      A
 Frequencies --   3126.9724              3146.6176              3149.2347
 Red. masses --      1.0998                 1.0989                 1.1004
 Frc consts  --      6.3362                 6.4107                 6.4303
 IR Inten    --     43.6900                25.6459                17.5673

                    112                    113                    114
                      A                      A                      A
 Frequencies --   3168.8792              3197.6325              3204.2896
 Red. masses --      1.0881                 1.0906                 1.0909
 Frc consts  --      6.4377                 6.5700                 6.5991
 IR Inten    --     23.2833                38.1306                 4.4426

                    115                    116                    117
                      A                      A                      A
 Frequencies --   3218.7111              3505.4083              3510.4130
 Red. masses --      1.0939                 1.0820                 1.0751
 Frc consts  --      6.6773                 7.8333                 7.8055
 IR Inten    --     15.6078               318.5481                17.6071

 - Thermochemistry -
 -------------------
 Temperature   298.150 Kelvin.  Pressure   1.00000 Atm.
 Atom     1 has atomic number  6 and mass  12.00000

 Molecular mass:   258.18445 amu.
 Principal axes and moments of inertia in atomic units:
                           1         2         3
     Eigenvalues --  2273.135539590.91483**********
           X            0.99993  -0.01216   0.00105
           Y            0.01216   0.99993   0.00139
           Z           -0.00107  -0.00137   1.00000
 This molecule is an asymmetric top.
 Rotational symmetry number  1.
 Warning -- assumption of classical behavior for rotation
           may cause significant error
 Rotational temperatures (Kelvin)      0.03810     0.00903     0.00783
 Rotational constants (GHZ):           0.79394     0.18817     0.16325
 Zero-point vibrational energy     940186.3 (Joules/Mol)
                                  224.70992 (Kcal/Mol)
 Warning -- explicit consideration of  28 degrees of freedom as
           vibrations may cause significant error
 Vibrational temperatures:     35.63    49.04    74.37    98.13   128.16
          (Kelvin)            155.84   176.48   199.00   225.09   256.20
                              280.66   317.38   328.46   347.25   353.04
                              377.89   410.94   440.49   463.76   522.83
                              569.64   595.16   603.69   633.70   639.65
                              709.19   774.83   852.32   916.32   988.17
                             1004.03  1047.28  1051.47  1065.73  1112.98
                             1125.00  1163.88  1189.21  1251.41  1276.03
                             1354.90  1355.90  1362.86  1394.75  1407.63
                             1417.85  1419.42  1449.45  1486.40  1503.09
                             1515.14  1523.69  1543.33  1569.28  1609.86
                             1646.28  1656.04  1669.04  1691.57  1728.73
                             1734.33  1749.96  1776.29  1782.71  1858.40
                             1875.22  1886.17  1931.75  1940.80  1978.33
                             1980.28  2001.07  2040.32  2059.01  2062.86
                             2088.81  2091.99  2095.98  2117.41  2135.83
                             2166.08  2178.15  2181.32  2182.40  2191.41
                             2196.59  2199.41  2200.94  2207.95  2223.43
                             2229.96  2280.38  2320.99  2345.32  2378.84
                             4295.00  4336.55  4357.62  4361.02  4381.71
                             4389.31  4400.04  4444.84  4445.24  4462.03
                             4468.62  4479.51  4496.32  4499.02  4527.28
                             4531.05  4559.31  4600.68  4610.26  4631.01
                             5043.50  5050.70

 Zero-point correction=                           0.358098 (Hartree/Particle)
 Thermal correction to Energy=                    0.377055
 Thermal correction to Enthalpy=                  0.377999
 Thermal correction to Gibbs Free Energy=         0.310179
 Sum of electronic and zero-point Energies=           -803.583072
 Sum of electronic and thermal Energies=              -803.564116
 Sum of electronic and thermal Enthalpies=            -803.563172
 Sum of electronic and thermal Free Energies=         -803.630991

                     E (Thermal)             CV                S
                      KCal/Mol        Cal/Mol-Kelvin    Cal/Mol-Kelvin
 Total                  236.605             71.942            142.738
 Electronic               0.000              0.000              0.000
 Translational            0.889              2.981             42.545
 Rotational               0.889              2.981             33.843
 Vibrational            234.828             65.980             66.349
 Vibration     1          0.593              1.985              6.210
 Vibration     2          0.594              1.983              5.576
 Vibration     3          0.596              1.977              4.752
 Vibration     4          0.598              1.969              4.205
 Vibration     5          0.602              1.957              3.680
 Vibration     6          0.606              1.943              3.299
 Vibration     7          0.610              1.930              3.058
 Vibration     8          0.614              1.915              2.827
 Vibration     9          0.620              1.895              2.592
 Vibration    10          0.629              1.869              2.349
 Vibration    11          0.636              1.847              2.179
 Vibration    12          0.647              1.810              1.954
 Vibration    13          0.651              1.798              1.892
 Vibration    14          0.658              1.777              1.793
 Vibration    15          0.660              1.770              1.764
 Vibration    16          0.670              1.741              1.644
 Vibration    17          0.683              1.700              1.500
 Vibration    18          0.697              1.662              1.383
 Vibration    19          0.707              1.631              1.298
 Vibration    20          0.737              1.548              1.108
 Vibration    21          0.763              1.479              0.978
 Vibration    22          0.777              1.441              0.914
 Vibration    23          0.782              1.428              0.893
 Vibration    24          0.800              1.382              0.825
 Vibration    25          0.804              1.373              0.812
 Vibration    26          0.849              1.266              0.676
 Vibration    27          0.894              1.165              0.568
 Vibration    28          0.950              1.048              0.463

 Optimization completed.
    -- Stationary point found.
 Normal termination of Gaussian 16 at Sat Dec 12 10:19:52 2020.

 ----------------------------------------------------------------------
 # B3LYP/6-311++G(d,p) empiricaldispersion=gd3bj scf=xqc pop=npa geom=c
 heck
 ----------------------------------------------------------------------

 ---------------------------------------
 CID_117554033_JID_9412_Energie_neutraal
 ---------------------------------------
 Structure from the checkpoint file:  "JID_9412.chk"
 Charge =  0 Multiplicity = 1

 SCF Done:  E(RB3LYP) =  -804.156495926     A.U. after   16 cycles
 Normal termination of Gaussian 16 at Sat Dec 12 10:29:57 2020.

 ----------------------------------------------------------------------
 # B3LYP/6-311++G(d,p) empiricaldispersion=gd3bj scf=xqc pop=npa geom=c
 heck
 ----------------------------------------------------------------------

 -------------------------------------
 CID_117554033_JID_9412_Energie_kation
 -------------------------------------
 Structure from the checkpoint file:  "JID_9412.chk"
 Charge =  1 Multiplicity = 2

 SCF Done:  E(UB3LYP) =  -803.892962412     A.U. after   24 cycles
 Normal termination of Gaussian 16 at Sat Dec 12 10:52:15 2020.
 Gaussian 16:  ES64L-G16RevA.03 25-Dec-2016

 ----------------------------------------------------------------------
 # B3LYP/6-311++G(d,p) empiricaldispersion=gd3bj scf=xqc pop=npa geom=c
 heck
 ----------------------------------------------------------------------

 ------------------------------------
 CID_117554033_JID_9412_Energie_anion
 ------------------------------------
 Structure from the checkpoint file:  "JID_9412.chk"
 Charge = -1 Multiplicity = 2

                         Standard orientation:
 ---------------------------------------------------------------------
 Center     Atomic      Atomic             Coordinates (Angstroms)
 Number     Number       Type             X           Y           Z
 ---------------------------------------------------------------------
      1          6           0        1.125330   -2.663785    1.111409
      2          6           0        0.648892   -1.414494    0.445164
      3          6           0        1.296624   -0.298488   -0.067395
      4          7           0        0.364645    0.612578   -0.549651
      5          6           0       -0.816897    0.066004   -0.347956
      6          7           0       -0.693016   -1.154049    0.260946
      7          6           0       -2.154558    0.670890   -0.659411
      8          6           0       -3.055665   -0.358651   -1.381119
      9          7           0       -3.361422   -1.568391   -0.586397
     10          6           0       -4.638312   -1.532041    0.129679
     11          6           0       -2.792179    1.333238    0.596321
     12          6           0       -1.825261    2.336372    1.240093
     13          6           0       -4.116367    2.032463    0.260782
     14          6           0        2.726546    0.006574   -0.113264
     15          6           0        3.151387    1.344728   -0.233211
     16          7           0        4.427868    1.731506   -0.274117
     17          6           0        5.366514    0.777661   -0.194458
     18          6           0        5.067397   -0.579021   -0.086371
     19          6           0        3.731178   -0.969923   -0.053683
     20          1           0        0.357288   -3.064257    1.782668
     21          1           0        1.380505   -3.455746    0.393791
     22          1           0        2.018840   -2.466073    1.711499
     23          1           0       -1.499544   -1.760668    0.396976
     24          1           0       -1.957686    1.474320   -1.381110
     25          1           0       -3.979001    0.129754   -1.726890
     26          1           0       -2.516241   -0.684053   -2.276856
     27          1           0       -3.383108   -2.361158   -1.222602
     28          1           0       -5.492116   -1.255761   -0.512376
     29          1           0       -4.834734   -2.518868    0.560507
     30          1           0       -4.591328   -0.813776    0.951125
     31          1           0       -2.985916    0.539419    1.331181
     32          1           0       -1.573365    3.137984    0.535103
     33          1           0       -2.283783    2.794761    2.123644
     34          1           0       -0.887735    1.863899    1.542413
     35          1           0       -4.881765    1.344637   -0.110607
     36          1           0       -4.522696    2.528301    1.149367
     37          1           0       -3.960085    2.803218   -0.504645
     38          1           0        2.398945    2.125575   -0.301494
     39          1           0        6.400572    1.116807   -0.225392
     40          1           0        5.864196   -1.315933   -0.043015
     41          1           0        3.474449   -2.023047   -0.008235
 ---------------------------------------------------------------------

 SCF Done:  E(UB3LYP) =  -804.151116372     A.U. after   33 cycles
 SCF Done:  E(UB3LYP) =  -804.151116372     a.u. after    1 cycles

 The electronic state is 2-A.
 Alpha  occ. eigenvalues --  -14.25598 -14.21634 -14.21298 -14.19290 -10.12716
 Alpha  occ. eigenvalues --  -10.11261 -10.11252 -10.10745 -10.10634 -10.09766
 Alpha  occ. eigenvalues --  -10.09504 -10.09399 -10.09355 -10.09349 -10.09154
 Alpha  occ. eigenvalues --  -10.09124 -10.08738 -10.07584 -10.06851  -0.91649
 Alpha  occ. eigenvalues --   -0.84993  -0.81499  -0.77386  -0.73579  -0.71878
 Alpha  occ. eigenvalues --   -0.68874  -0.66728  -0.65031  -0.60693  -0.59581
 Alpha  occ. eigenvalues --   -0.57695  -0.54830  -0.54069  -0.52034  -0.49724
 Alpha  occ. eigenvalues --   -0.48117  -0.47579  -0.42674  -0.41925  -0.40586
 Alpha  occ. eigenvalues --   -0.39505  -0.37939  -0.36876  -0.36553  -0.35639
 Alpha  occ. eigenvalues --   -0.34901  -0.34463  -0.33082  -0.32773  -0.32600
 Alpha  occ. eigenvalues --   -0.32149  -0.31163  -0.30433  -0.30193  -0.29819
 Alpha  occ. eigenvalues --   -0.29695  -0.28548  -0.27764  -0.27463  -0.26619
 Alpha  occ. eigenvalues --   -0.24704  -0.24180  -0.23483  -0.21339  -0.19225
 Alpha  occ. eigenvalues --   -0.18157  -0.16814  -0.16376  -0.14825  -0.11390
 Alpha  occ. eigenvalues --    0.03715
 Alpha virt. eigenvalues --    0.05178   0.05897   0.06383   0.06572   0.06944
 Alpha virt. eigenvalues --    0.07511   0.08163   0.08759   0.09409   0.09573
 Alpha virt. eigenvalues --    0.09774   0.09945   0.10883   0.11260   0.11599

  Beta  occ. eigenvalues --  -14.25582 -14.21588 -14.21259 -14.19290 -10.12718
  Beta  occ. eigenvalues --  -10.11243 -10.11231 -10.10750 -10.10616 -10.09752
  Beta  occ. eigenvalues --  -10.09455 -10.09401 -10.09358 -10.09348 -10.09115
  Beta  occ. eigenvalues --  -10.09103 -10.08708 -10.07572 -10.06848  -0.91634
  Beta  occ. eigenvalues --   -0.84927  -0.81441  -0.77367  -0.73553  -0.71818
  Beta  occ. eigenvalues --   -0.68838  -0.66692  -0.64993  -0.60654  -0.59547
  Beta  occ. eigenvalues --   -0.57627  -0.54760  -0.54027  -0.51961  -0.49693
  Beta  occ. eigenvalues --   -0.48097  -0.47548  -0.42644  -0.41893  -0.40495
  Beta  occ. eigenvalues --   -0.39475  -0.37911  -0.36845  -0.36520  -0.35597
  Beta  occ. eigenvalues --   -0.34852  -0.34432  -0.33050  -0.32738  -0.32573
  Beta  occ. eigenvalues --   -0.32110  -0.31065  -0.30403  -0.30130  -0.29778
  Beta  occ. eigenvalues --   -0.29673  -0.28527  -0.27726  -0.27437  -0.26581
  Beta  occ. eigenvalues --   -0.24688  -0.24147  -0.23463  -0.21185  -0.19099
  Beta  occ. eigenvalues --   -0.18139  -0.16764  -0.16333  -0.14763  -0.11311
  Beta virt. eigenvalues --    0.05653   0.05864   0.06216   0.06472   0.07084
  Beta virt. eigenvalues --    0.07483   0.07887   0.08374   0.09073   0.09554
  Beta virt. eigenvalues --    0.09939   0.10045   0.10318   0.10967   0.11324

 Mulliken charges and spin densities:
               1          2
     1  C    0.255992  -1.101639
     2  C    0.265980   0.088351
     3  C    0.476040  -0.314160
     4  N    0.115312  -0.007031
     5  C   -0.766302   0.546658
     6  N   -0.106811   0.051538
     7  C   -0.318297   0.445153
     8  C    0.621918  -1.519400
     9  N   -0.591054   0.319944
    10  C    1.104516  -1.486672
    11  C   -0.265811   0.374083
    12  C   -0.695130  -0.023338
    13  C   -0.028733  -0.581932
    14  C    0.409229   0.105801
    15  C   -0.825768   0.155066
    16  N   -0.031960   0.023370
    17  C   -0.216172  -0.118457
    18  C    0.082214  -0.269048
    19  C   -0.149571   0.080203
    20  H   -0.361469   0.509690
    21  H   -0.144826   0.339512
    22  H    0.049671   0.092249
    23  H    0.480187  -0.074201
    24  H    0.237941   0.005819
    25  H   -0.082791   0.192466
    26  H   -0.100014   0.311917
    27  H   -0.379645   0.658120
    28  H   -0.378225   0.524137
    29  H   -0.676548   0.838447
    30  H   -0.039043   0.192865
    31  H   -0.068172   0.206990
    32  H    0.124507   0.014659
    33  H    0.090030   0.036145
    34  H    0.179858   0.019191
    35  H    0.185136  -0.057286
    36  H    0.021443   0.112620
    37  H    0.078271   0.064341
    38  H    0.193703   0.028893
    39  H    0.150579   0.003721
    40  H    0.024560   0.144323
    41  H    0.079253   0.066893
 Sum of Mulliken charges =  -1.00000   1.00000

 Dipole moment (field-independent basis, Debye):
    X=              4.6612    Y=              4.8042    Z=              1.0568  Tot=              6.7767
 Quadrupole moment (field-independent basis, Debye-Ang):
   XX=           -209.4259   YY=           -172.9610   ZZ=           -148.1811
   XY=            -33.9519   XZ=             -1.8837   YZ=              0.2796

 Summary of Natural Population Analysis:

                                       Natural Population
                Natural  -----------------------------------------------
    Atom  No    Charge         Core      Valence    Rydberg      Total
 -----------------------------------------------------------------------
      C    1   -0.30309      0.99964     2.29775    0.00570     3.30309
      C    2    0.07640      0.99950     1.91256    0.01154     2.92360
      C    3    0.01324      0.99949     1.96673    0.02054     2.98676
      N    4   -0.26097      0.99968     2.75339    0.00790     3.76097
      C    5    0.20097      0.99959     1.78052    0.01892     2.79903
      N    6   -0.27668      0.99961     2.76845    0.00861     3.77668
      C    7   -0.13300      0.99953     2.12121    0.01226     3.13300
      C    8   -0.08210      0.99960     2.07006    0.01244     3.08210
      N    9   -0.35696      0.99975     2.84181    0.01540     3.85696
      C   10   -0.17550      0.99964     2.16680    0.00906     3.17550
      C   11   -0.11015      0.99960     2.10142    0.00913     3.11015
      C   12   -0.28349      0.99965     2.27883    0.00501     3.28349
      C   13   -0.28617      0.99965     2.28165    0.00487     3.28617
      C   14    0.00945      0.99949     1.98564    0.00541     2.99055
      C   15    0.02061      0.99961     1.96198    0.01780     2.97939
      N   16   -0.22755      0.99972     2.71725    0.01057     3.72755
      C   17    0.01394      0.99960     1.97097    0.01549     2.98606
      C   18   -0.12645      0.99956     2.11801    0.00887     3.12645
      C   19   -0.09220      0.99958     2.07937    0.01325     3.09220
      H   20    0.10953      0.00000     0.38922    0.00124     0.39047
      H   21    0.10589      0.00000     0.39290    0.00121     0.39411
      H   22    0.10766      0.00000     0.39122    0.00112     0.39234
      H   23    0.22208      0.00000     0.27465    0.00326     0.27792
      H   24    0.10966      0.00000     0.38895    0.00139     0.39034
      H   25    0.08791      0.00000     0.41064    0.00145     0.41209
      H   26    0.10005      0.00000     0.39868    0.00127     0.39995
      H   27    0.18478      0.00000     0.30661    0.00861     0.31522
      H   28    0.08159      0.00000     0.41656    0.00185     0.41841
      H   29    0.10142      0.00000     0.39609    0.00250     0.39858
      H   30    0.08878      0.00000     0.40938    0.00183     0.41122
      H   31    0.09640      0.00000     0.40149    0.00211     0.40360
      H   32    0.09667      0.00000     0.40251    0.00082     0.40333
      H   33    0.09490      0.00000     0.40434    0.00076     0.40510
      H   34    0.10773      0.00000     0.39143    0.00084     0.39227
      H   35    0.10220      0.00000     0.39683    0.00096     0.39780
      H   36    0.09861      0.00000     0.40060    0.00079     0.40139
      H   37    0.09547      0.00000     0.40367    0.00086     0.40453
      H   38    0.09974      0.00000     0.39833    0.00193     0.40026
      H   39    0.08604      0.00000     0.41268    0.00128     0.41396
      H   40    0.10069      0.00000     0.39845    0.00086     0.39931
      H   41    0.10203      0.00000     0.39651    0.00146     0.39797
 =======================================================================
   * Total *    0.00015     18.99249    50.75615    0.25121    69.99985

 Normal termination of Gaussian 16 at Sat Dec 12 11:23:35 2020.
