 Gaussian 16, Revision A.03,

 -----------------------------------------------------------
 # opt freq B3LYP/6-31G(d) empiricaldispersion=gd3bj scf=xqc
 -----------------------------------------------------------

 -------------------------------
 CID_150757083_JID_2733_neutraal
 -------------------------------
 Symbolic Z-matrix:
 Charge =  0 Multiplicity = 1

 SCF Done:  E(RB3LYP) =  -500.234291965     A.U. after   14 cycles
 SCF Done:  E(RB3LYP) =  -500.236871122     A.U. after   11 cycles
 SCF Done:  E(RB3LYP) =  -500.237068251     A.U. after   11 cycles
 SCF Done:  E(RB3LYP) =  -500.237186804     A.U. after   11 cycles
 SCF Done:  E(RB3LYP) =  -500.237227429     A.U. after   10 cycles
 SCF Done:  E(RB3LYP) =  -500.237250791     A.U. after   10 cycles
 SCF Done:  E(RB3LYP) =  -500.237265395     A.U. after    9 cycles
 SCF Done:  E(RB3LYP) =  -500.237273051     A.U. after    9 cycles
 SCF Done:  E(RB3LYP) =  -500.237288090     A.U. after    9 cycles
 SCF Done:  E(RB3LYP) =  -500.237310181     A.U. after   10 cycles
 SCF Done:  E(RB3LYP) =  -500.237403620     A.U. after    9 cycles
 SCF Done:  E(RB3LYP) =  -500.237402715     A.U. after    9 cycles
 SCF Done:  E(RB3LYP) =  -500.237405201     A.U. after    9 cycles
 SCF Done:  E(RB3LYP) =  -500.237405288     A.U. after    7 cycles
 SCF Done:  E(RB3LYP) =  -500.237405305     A.U. after    6 cycles
 Optimization completed.
    -- Stationary point found.
 Normal termination of Gaussian 16 at Wed Dec  9 17:56:14 2020.

 --------------------------------------------------------------------
 #N Geom=AllCheck Guess=TCheck SCRF=Check GenChk RB3LYP/6-31G(d) Freq
 --------------------------------------------------------------------

 Structure from the checkpoint file:  "JID_2733.chk"
 -------------------------------
 CID_150757083_JID_2733_neutraal
 -------------------------------
 Charge =  0 Multiplicity = 1

 SCF Done:  E(RB3LYP) =  -500.237405305     A.U. after    1 cycles

  Exact polarizability: 120.575  -0.895 115.260 -11.823   2.835  92.382
 Approx polarizability: 158.205   0.087 177.519 -28.304   4.863 143.773

                      1                      2                      3
                      A                      A                      A
 Frequencies --     25.3289                62.8465                70.6999
 Red. masses --      1.7952                 2.0399                 1.3092
 Frc consts  --      0.0007                 0.0047                 0.0039
 IR Inten    --      0.0150                 0.0463                 0.2424

                      4                      5                      6
                      A                      A                      A
 Frequencies --     82.5437                96.6069               173.0499
 Red. masses --      4.1886                 2.6622                 2.7758
 Frc consts  --      0.0168                 0.0146                 0.0490
 IR Inten    --      0.4256                 0.5389                 0.1397

                      7                      8                      9
                      A                      A                      A
 Frequencies --    211.3173               221.0539               291.6250
 Red. masses --      2.7117                 3.3893                 4.2348
 Frc consts  --      0.0713                 0.0976                 0.2122
 IR Inten    --      6.2777                 0.4001                 1.5676

                     10                     11                     12
                      A                      A                      A
 Frequencies --    336.6607               430.7179               471.3313
 Red. masses --      1.9144                 2.5649                 2.1421
 Frc consts  --      0.1278                 0.2804                 0.2804
 IR Inten    --      0.9746                 5.3450                 0.4797

                     13                     14                     15
                      A                      A                      A
 Frequencies --    582.6050               633.6669               638.0589
 Red. masses --      4.4338                 2.6624                 4.1454
 Frc consts  --      0.8867                 0.6299                 0.9944
 IR Inten    --      1.2158                 0.0915                 4.9550

                     16                     17                     18
                      A                      A                      A
 Frequencies --    662.3042               721.4516               751.8353
 Red. masses --      5.4598                 4.0226                 2.1226
 Frc consts  --      1.4110                 1.2336                 0.7069
 IR Inten    --      4.4031                 4.1366                 6.0230

                     19                     20                     21
                      A                      A                      A
 Frequencies --    781.7967               800.4519               826.2430
 Red. masses --      1.4188                 1.4191                 1.6738
 Frc consts  --      0.5109                 0.5357                 0.6733
 IR Inten    --      1.6537                29.3866                 0.1959

                     22                     23                     24
                      A                      A                      A
 Frequencies --    873.8466               878.7005               894.4854
 Red. masses --      1.3466                 2.9915                 1.9912
 Frc consts  --      0.6058                 1.3609                 0.9387
 IR Inten    --      1.2922                 0.3084                 2.0718

                     25                     26                     27
                      A                      A                      A
 Frequencies --    901.2833               953.4309               982.3524
 Red. masses --      2.4939                 4.8300                 1.9151
 Frc consts  --      1.1936                 2.5869                 1.0889
 IR Inten    --      0.7003                11.6341                 0.7337

                     28                     29                     30
                      A                      A                      A
 Frequencies --    991.8916               993.8418              1026.3011
 Red. masses --      1.2891                 1.5408                 2.2097
 Frc consts  --      0.7473                 0.8967                 1.3713
 IR Inten    --      1.4268                 1.1775                14.7467

                     31                     32                     33
                      A                      A                      A
 Frequencies --   1042.7760              1074.9303              1082.3762
 Red. masses --      2.4481                 1.4783                 1.7628
 Frc consts  --      1.5684                 1.0064                 1.2168
 IR Inten    --      4.0265                 0.9316                 0.2113

                     34                     35                     36
                      A                      A                      A
 Frequencies --   1094.7048              1159.3194              1186.3535
 Red. masses --      2.0067                 1.2926                 2.2131
 Frc consts  --      1.4168                 1.0235                 1.8352
 IR Inten    --      0.6830                 0.2127                 1.5576

                     37                     38                     39
                      A                      A                      A
 Frequencies --   1197.5818              1220.9603              1239.1135
 Red. masses --      1.3343                 1.4805                 1.6434
 Frc consts  --      1.1275                 1.3003                 1.4867
 IR Inten    --      0.9668                 0.4975                 4.7045

                     40                     41                     42
                      A                      A                      A
 Frequencies --   1247.8051              1256.6842              1288.4657
 Red. masses --      1.3645                 1.5449                 1.2051
 Frc consts  --      1.2517                 1.4375                 1.1788
 IR Inten    --      3.9049                 0.1033                 0.5950

                     43                     44                     45
                      A                      A                      A
 Frequencies --   1315.9061              1319.7204              1330.9021
 Red. masses --      1.3994                 1.3361                 3.5627
 Frc consts  --      1.4277                 1.3711                 3.7181
 IR Inten    --      0.8874                 0.6599                10.8554

                     46                     47                     48
                      A                      A                      A
 Frequencies --   1348.4521              1357.0326              1369.8588
 Red. masses --      1.2950                 1.3394                 1.5931
 Frc consts  --      1.3873                 1.4533                 1.7613
 IR Inten    --      2.5713                 0.0641                 0.3940

                     49                     50                     51
                      A                      A                      A
 Frequencies --   1377.9176              1386.0959              1420.6404
 Red. masses --      2.0350                 1.7948                 1.5103
 Frc consts  --      2.2764                 2.0317                 1.7959
 IR Inten    --      1.9175                 9.6033                19.7318

                     52                     53                     54
                      A                      A                      A
 Frequencies --   1439.3881              1474.3622              1511.4563
 Red. masses --      2.6857                 1.5108                 1.1624
 Frc consts  --      3.2784                 1.9349                 1.5646
 IR Inten    --     35.4364                 4.6482                 2.3809

                     55                     56                     57
                      A                      A                      A
 Frequencies --   1515.2403              1518.3328              1523.9848
 Red. masses --      1.0703                 1.0679                 1.9649
 Frc consts  --      1.4479                 1.4505                 2.6887
 IR Inten    --      5.7165                 2.4582                 4.8104

                     58                     59                     60
                      A                      A                      A
 Frequencies --   1528.3032              1529.6140              1539.5776
 Red. masses --      1.1385                 1.1466                 1.2435
 Frc consts  --      1.5667                 1.5806                 1.7366
 IR Inten    --      0.8558                 4.0047                22.8363

                     61                     62                     63
                      A                      A                      A
 Frequencies --   1552.1015              1592.2598              3011.8848
 Red. masses --      1.1058                 4.9710                 1.0825
 Frc consts  --      1.5695                 7.4254                 5.7859
 IR Inten    --      0.4986                 5.0688                24.8914

                     64                     65                     66
                      A                      A                      A
 Frequencies --   3047.2594              3048.4685              3056.2323
 Red. masses --      1.0596                 1.0607                 1.0629
 Frc consts  --      5.7971                 5.8076                 5.8494
 IR Inten    --     35.4840                28.6174                12.7144

                     67                     68                     69
                      A                      A                      A
 Frequencies --   3057.9398              3064.0444              3070.2554
 Red. masses --      1.0621                 1.0394                 1.0667
 Frc consts  --      5.8518                 5.7495                 5.9245
 IR Inten    --     43.7434                41.0222                43.4846

                     70                     71                     72
                      A                      A                      A
 Frequencies --   3083.5923              3086.3886              3095.1473
 Red. masses --      1.1022                 1.0993                 1.1018
 Frc consts  --      6.1747                 6.1700                 6.2188
 IR Inten    --      9.3743                53.5113                14.6316

                     73                     74                     75
                      A                      A                      A
 Frequencies --   3102.5576              3118.6062              3128.0815
 Red. masses --      1.1057                 1.1054                 1.1018
 Frc consts  --      6.2709                 6.3339                 6.3517
 IR Inten    --      9.3311                82.9955                18.9860

                     76                     77                     78
                      A                      A                      A
 Frequencies --   3188.4470              3253.1325              3274.1805
 Red. masses --      1.1010                 1.0923                 1.1011
 Frc consts  --      6.5945                 6.8106                 6.9550
 IR Inten    --      2.5021                11.3063                 4.1309

 - Thermochemistry -
 -------------------
 Temperature   298.150 Kelvin.  Pressure   1.00000 Atm.
 Atom     1 has atomic number  6 and mass  12.00000

 Molecular mass:   164.13135 amu.
 Principal axes and moments of inertia in atomic units:
                           1         2         3
     Eigenvalues --  1060.137642980.623543324.19472
           X            0.99991   0.01061   0.00789
           Y           -0.01064   0.99994   0.00354
           Z           -0.00785  -0.00362   0.99996
 This molecule is an asymmetric top.
 Rotational symmetry number  1.
 Warning -- assumption of classical behavior for rotation
           may cause significant error
 Rotational temperatures (Kelvin)      0.08170     0.02906     0.02606
 Rotational constants (GHZ):           1.70236     0.60549     0.54291
 Zero-point vibrational energy     658524.9 (Joules/Mol)
                                  157.39123 (Kcal/Mol)
 Warning -- explicit consideration of  13 degrees of freedom as
           vibrations may cause significant error
 Vibrational temperatures:     36.44    90.42   101.72   118.76   139.00
          (Kelvin)            248.98   304.04   318.05   419.58   484.38
                              619.71   678.14   838.24   911.71   918.02
                              952.91  1038.01  1081.72  1124.83  1151.67
                             1188.78  1257.27  1264.25  1286.97  1296.75
                             1371.77  1413.39  1427.11  1429.92  1476.62
                             1500.32  1546.58  1557.30  1575.04  1668.00
                             1706.90  1723.05  1756.69  1782.81  1795.31
                             1808.09  1853.81  1893.30  1898.78  1914.87
                             1940.12  1952.47  1970.92  1982.52  1994.28
                             2043.98  2070.96  2121.28  2174.65  2180.09
                             2184.54  2192.67  2198.89  2200.77  2215.11
                             2233.13  2290.91  4333.43  4384.33  4386.07
                             4397.24  4399.69  4408.48  4417.41  4436.60
                             4440.62  4453.23  4463.89  4486.98  4500.61
                             4587.46  4680.53  4710.82

 Zero-point correction=                           0.250819 (Hartree/Particle)
 Thermal correction to Energy=                    0.262455
 Thermal correction to Enthalpy=                  0.263399
 Thermal correction to Gibbs Free Energy=         0.211443
 Sum of electronic and zero-point Energies=           -499.986586
 Sum of electronic and thermal Energies=              -499.974950
 Sum of electronic and thermal Enthalpies=            -499.974006
 Sum of electronic and thermal Free Energies=         -500.025962

                     E (Thermal)             CV                S
                      KCal/Mol        Cal/Mol-Kelvin    Cal/Mol-Kelvin
 Total                  164.693             43.301            109.350
 Electronic               0.000              0.000              0.000
 Translational            0.889              2.981             41.195
 Rotational               0.889              2.981             30.730
 Vibrational            162.915             37.340             37.424
 Vibration     1          0.593              1.985              6.165
 Vibration     2          0.597              1.972              4.366
 Vibration     3          0.598              1.968              4.134
 Vibration     4          0.600              1.961              3.829
 Vibration     5          0.603              1.952              3.522
 Vibration     6          0.627              1.876              2.402
 Vibration     7          0.643              1.824              2.032
 Vibration     8          0.648              1.809              1.950
 Vibration     9          0.687              1.689              1.465
 Vibration    10          0.717              1.602              1.228
 Vibration    11          0.792              1.403              0.856
 Vibration    12          0.828              1.314              0.734
 Vibration    13          0.939              1.069              0.481

                           ! Non-Optimized Parameters !
 Normal termination of Gaussian 16 at Wed Dec  9 18:03:26 2020.

 ----------------------------------------------------------------------
 # B3LYP/6-311++G(d,p) empiricaldispersion=gd3bj scf=xqc pop=npa geom=c
 heck
 ----------------------------------------------------------------------

 ---------------------------------------
 CID_150757083_JID_2733_Energie_neutraal
 ---------------------------------------
 Structure from the checkpoint file:  "JID_2733.chk"
 Charge =  0 Multiplicity = 1

 SCF Done:  E(RB3LYP) =  -500.369656367     A.U. after   14 cycles
 Normal termination of Gaussian 16 at Wed Dec  9 18:07:01 2020.

 ----------------------------------------------------------------------
 # B3LYP/6-311++G(d,p) empiricaldispersion=gd3bj scf=xqc pop=npa geom=c
 heck
 ----------------------------------------------------------------------

 -------------------------------------
 CID_150757083_JID_2733_Energie_kation
 -------------------------------------
 Structure from the checkpoint file:  "JID_2733.chk"
 Charge =  1 Multiplicity = 2

 SCF Done:  E(UB3LYP) =  -500.046461111     A.U. after   33 cycles
 SCF Done:  E(UB3LYP) =  -500.057291132     a.u. after   17 cycles
 Normal termination of Gaussian 16 at Wed Dec  9 19:18:33 2020.
 Gaussian 16:  ES64L-G16RevA.03 25-Dec-2016

 ----------------------------------------------------------------------
 # B3LYP/6-311++G(d,p) empiricaldispersion=gd3bj scf=xqc pop=npa geom=c
 heck
 ----------------------------------------------------------------------

 ------------------------------------
 CID_150757083_JID_2733_Energie_anion
 ------------------------------------
 Structure from the checkpoint file:  "JID_2733.chk"
 Charge = -1 Multiplicity = 2

                         Standard orientation:
 ---------------------------------------------------------------------
 Center     Atomic      Atomic             Coordinates (Angstroms)
 Number     Number       Type             X           Y           Z
 ---------------------------------------------------------------------
      1          6           0        1.965622    1.985946    0.077776
      2          7           0        1.925073    0.543977   -0.065933
      3          6           0        1.109947   -0.347978    0.574220
      4          6           0        1.512516   -1.602953    0.139102
      5          6           0        2.573451   -1.360408   -0.757184
      6          7           0        2.828761   -0.058590   -0.879662
      7          6           0        0.016625    0.062352    1.513231
      8          6           0       -1.386905    0.166765    0.877186
      9          6           0       -1.508796    1.113684   -0.327837
     10          6           0       -2.876668    0.764382   -0.953351
     11          6           0       -3.160216   -0.713074   -0.543690
     12          6           0       -1.951423   -1.147586    0.314237
     13          1           0        2.194384    2.271859    1.110224
     14          1           0        2.757838    2.344442   -0.578610
     15          1           0        1.014644    2.438767   -0.216139
     16          1           0        1.094583   -2.552353    0.441792
     17          1           0        3.164402   -2.074329   -1.315896
     18          1           0       -0.027270   -0.666575    2.331308
     19          1           0        0.269026    1.024346    1.976316
     20          1           0       -2.066857    0.523276    1.665597
     21          1           0       -1.425679    2.171513   -0.052684
     22          1           0       -0.702870    0.890753   -1.038342
     23          1           0       -2.872551    0.901601   -2.039135
     24          1           0       -3.655536    1.424108   -0.555196
     25          1           0       -3.293625   -1.364716   -1.412833
     26          1           0       -4.085459   -0.773158    0.039881
     27          1           0       -1.189016   -1.618448   -0.317468
     28          1           0       -2.217764   -1.865570    1.098205
 ---------------------------------------------------------------------

 SCF Done:  E(UB3LYP) =  -500.354987570     A.U. after   30 cycles

 The electronic state is 2-A.
 Alpha  occ. eigenvalues --  -14.28433 -14.22375 -10.10617 -10.10489 -10.08688
 Alpha  occ. eigenvalues --  -10.07382 -10.06572 -10.05990 -10.05809 -10.05713
 Alpha  occ. eigenvalues --  -10.05359 -10.05345  -0.94449  -0.74481  -0.73291
 Alpha  occ. eigenvalues --   -0.69625  -0.63298  -0.60158  -0.59741  -0.56100
 Alpha  occ. eigenvalues --   -0.50024  -0.46650  -0.45902  -0.44717  -0.39779
 Alpha  occ. eigenvalues --   -0.38262  -0.37204  -0.35409  -0.34824  -0.33238
 Alpha  occ. eigenvalues --   -0.32095  -0.31435  -0.30084  -0.29158  -0.28960
 Alpha  occ. eigenvalues --   -0.27442  -0.23548  -0.23365  -0.23089  -0.21533
 Alpha  occ. eigenvalues --   -0.21345  -0.21028  -0.19122  -0.15019  -0.13950
 Alpha  occ. eigenvalues --    0.04721
 Alpha virt. eigenvalues --    0.07114   0.07671   0.07879   0.09064   0.09505
 Alpha virt. eigenvalues --    0.09771   0.10449   0.10651   0.11164   0.12012
 Alpha virt. eigenvalues --    0.12543   0.12877   0.13125   0.13942   0.14393

  Beta  occ. eigenvalues --  -14.28424 -14.22367 -10.10613 -10.10450 -10.08688
  Beta  occ. eigenvalues --  -10.07355 -10.06554 -10.05982 -10.05793 -10.05695
  Beta  occ. eigenvalues --  -10.05342 -10.05319  -0.94433  -0.74453  -0.73260
  Beta  occ. eigenvalues --   -0.69597  -0.63258  -0.60112  -0.59694  -0.56041
  Beta  occ. eigenvalues --   -0.50010  -0.46599  -0.45846  -0.44662  -0.39726
  Beta  occ. eigenvalues --   -0.38219  -0.37147  -0.35370  -0.34784  -0.33202
  Beta  occ. eigenvalues --   -0.32056  -0.31399  -0.30052  -0.29122  -0.28930
  Beta  occ. eigenvalues --   -0.27416  -0.23498  -0.23319  -0.23047  -0.21488
  Beta  occ. eigenvalues --   -0.21303  -0.20996  -0.19102  -0.14988  -0.13915
  Beta virt. eigenvalues --    0.07105   0.07953   0.08093   0.08527   0.09442
  Beta virt. eigenvalues --    0.09901   0.10390   0.10839   0.11255   0.11425
  Beta virt. eigenvalues --    0.12521   0.13019   0.13191   0.13358   0.14450

 Mulliken charges and spin densities:
               1          2
     1  C    0.914456  -1.260070
     2  N    0.145426   0.209357
     3  C   -0.315053   0.052939
     4  C   -0.343274   0.578413
     5  C   -0.215553  -0.091382
     6  N   -0.207096  -0.041052
     7  C   -0.208718  -0.496466
     8  C    0.730759  -0.238262
     9  C    0.053265  -0.374356
    10  C    0.549108  -1.114550
    11  C    0.198208  -0.655724
    12  C    0.357043  -0.765373
    13  H   -0.384632   0.560898
    14  H    0.033126   0.125328
    15  H   -0.319060   0.515365
    16  H   -0.109827   0.278128
    17  H    0.043657   0.096119
    18  H   -0.410610   0.602746
    19  H   -0.379709   0.528864
    20  H   -0.496085   0.716247
    21  H   -0.363209   0.531456
    22  H    0.044184   0.091818
    23  H    0.012462   0.118273
    24  H   -0.173119   0.324701
    25  H   -0.055644   0.182153
    26  H   -0.149655   0.297134
    27  H    0.263921  -0.161505
    28  H   -0.214370   0.388801
 Sum of Mulliken charges =  -1.00000   1.00000

 Dipole moment (field-independent basis, Debye):
    X=              2.5659    Y=             -3.8529    Z=             -3.9458  Tot=              6.0826
 Quadrupole moment (field-independent basis, Debye-Ang):
   XX=           -132.9880   YY=           -116.8170   ZZ=           -113.5950
   XY=             -1.0554   XZ=              6.1615   YZ=             -1.1011

 Summary of Natural Population Analysis:

                                       Natural Population
                Natural  -----------------------------------------------
    Atom  No    Charge         Core      Valence    Rydberg      Total
 -----------------------------------------------------------------------
      C    1   -0.17639      0.99963     2.16875    0.00801     3.17639
      N    2   -0.11043      0.99962     2.59757    0.01324     3.61043
      C    3    0.09452      0.99952     1.89283    0.01312     2.90548
      C    4   -0.16636      0.99949     2.15854    0.00832     3.16636
      C    5   -0.01879      0.99963     2.00506    0.01410     3.01879
      N    6   -0.15986      0.99974     2.64913    0.01099     3.65986
      C    7   -0.20766      0.99958     2.19688    0.01120     3.20766
      C    8   -0.10526      0.99958     2.09301    0.01267     3.10526
      C    9   -0.19270      0.99961     2.18411    0.00898     3.19270
      C   10   -0.19036      0.99965     2.18308    0.00764     3.19036
      C   11   -0.19124      0.99965     2.18408    0.00752     3.19124
      C   12   -0.19196      0.99961     2.18387    0.00849     3.19196
      H   13    0.10023      0.00000     0.39833    0.00144     0.39977
      H   14    0.10852      0.00000     0.38990    0.00159     0.39148
      H   15    0.10418      0.00000     0.39417    0.00165     0.39582
      H   16    0.10849      0.00000     0.39074    0.00077     0.39151
      H   17    0.09383      0.00000     0.40541    0.00076     0.40617
      H   18    0.11060      0.00000     0.38778    0.00163     0.38940
      H   19    0.11071      0.00000     0.38686    0.00244     0.38929
      H   20    0.10037      0.00000     0.39542    0.00421     0.39963
      H   21    0.10404      0.00000     0.39381    0.00214     0.39596
      H   22    0.09387      0.00000     0.40430    0.00183     0.40613
      H   23    0.09505      0.00000     0.40406    0.00088     0.40495
      H   24    0.09790      0.00000     0.40072    0.00138     0.40210
      H   25    0.09421      0.00000     0.40493    0.00086     0.40579
      H   26    0.09729      0.00000     0.40143    0.00128     0.40271
      H   27    0.09639      0.00000     0.40183    0.00178     0.40361
      H   28    0.10081      0.00000     0.39783    0.00136     0.39919
 =======================================================================
   * Total *   -0.00000     11.99531    32.85442    0.15027    45.00000

 Normal termination of Gaussian 16 at Wed Dec  9 19:27:52 2020.
