 Gaussian 16, Revision A.03,

 -----------------------------------------------------------
 # opt freq B3LYP/6-31G(d) empiricaldispersion=gd3bj scf=xqc
 -----------------------------------------------------------

 ------------------------------
 CID_80651820_JID_7795_neutraal
 ------------------------------
 Symbolic Z-matrix:
 Charge =  0 Multiplicity = 1

 SCF Done:  E(RB3LYP) =  -1100.17583320     A.U. after   15 cycles
 SCF Done:  E(RB3LYP) =  -1100.18036487     A.U. after   12 cycles
 SCF Done:  E(RB3LYP) =  -1100.18123730     A.U. after   13 cycles
 SCF Done:  E(RB3LYP) =  -1100.18196123     A.U. after   15 cycles
 SCF Done:  E(RB3LYP) =  -1100.18316737     A.U. after   12 cycles
 SCF Done:  E(RB3LYP) =  -1100.18403272     A.U. after   13 cycles
 SCF Done:  E(RB3LYP) =  -1100.18423915     A.U. after   13 cycles
 SCF Done:  E(RB3LYP) =  -1100.18429944     A.U. after   11 cycles
 SCF Done:  E(RB3LYP) =  -1100.18434077     A.U. after   10 cycles
 SCF Done:  E(RB3LYP) =  -1100.18435891     A.U. after   11 cycles
 SCF Done:  E(RB3LYP) =  -1100.18437274     A.U. after    6 cycles
 SCF Done:  E(RB3LYP) =  -1100.18437284     A.U. after    7 cycles
 SCF Done:  E(RB3LYP) =  -1100.18437294     A.U. after    7 cycles
 SCF Done:  E(RB3LYP) =  -1100.18437302     A.U. after    7 cycles
 SCF Done:  E(RB3LYP) =  -1100.18437306     A.U. after    7 cycles
 Optimization completed.
    -- Stationary point found.
 Normal termination of Gaussian 16 at Fri Dec 11 13:18:43 2020.

 --------------------------------------------------------------------
 #N Geom=AllCheck Guess=TCheck SCRF=Check GenChk RB3LYP/6-31G(d) Freq
 --------------------------------------------------------------------

 Structure from the checkpoint file:  "JID_7795.chk"
 ------------------------------
 CID_80651820_JID_7795_neutraal
 ------------------------------
 Charge =  0 Multiplicity = 1

 SCF Done:  E(RB3LYP) =  -1100.18437306     A.U. after    1 cycles

  Exact polarizability: 231.115   2.675 145.216 -12.674  -6.199 119.759
 Approx polarizability: 292.052   2.463 245.129 -35.179 -20.643 208.848

                      1                      2                      3
                      A                      A                      A
 Frequencies --     19.8887                31.2138                38.1549
 Red. masses --      3.8896                 3.4720                 4.3380
 Frc consts  --      0.0009                 0.0020                 0.0037
 IR Inten    --      4.4548                 5.0746                 1.1672

                      4                      5                      6
                      A                      A                      A
 Frequencies --     51.8195                79.2953                88.5743
 Red. masses --      4.5104                 2.0263                 1.2055
 Frc consts  --      0.0071                 0.0075                 0.0056
 IR Inten    --      1.2598                 1.0661                 0.2880

                      7                      8                      9
                      A                      A                      A
 Frequencies --     95.2331               137.4366               155.3029
 Red. masses --      2.7685                 2.9551                 3.7221
 Frc consts  --      0.0148                 0.0329                 0.0529
 IR Inten    --      1.9616                 1.1444                 2.3058

                     10                     11                     12
                      A                      A                      A
 Frequencies --    158.6397               227.3280               238.5102
 Red. masses --      1.1820                 4.3497                 4.8514
 Frc consts  --      0.0175                 0.1324                 0.1626
 IR Inten    --      0.2028                 0.1485                 0.9279

                     13                     14                     15
                      A                      A                      A
 Frequencies --    249.2787               263.5719               281.3372
 Red. masses --      1.7618                 1.9288                 2.5679
 Frc consts  --      0.0645                 0.0789                 0.1198
 IR Inten    --      1.2497                 0.3638                 2.4202

                     16                     17                     18
                      A                      A                      A
 Frequencies --    296.8050               335.9619               366.4376
 Red. masses --      4.9230                 3.8976                 5.0898
 Frc consts  --      0.2555                 0.2592                 0.4027
 IR Inten    --      0.3684                 0.8733                 3.3110

                     19                     20                     21
                      A                      A                      A
 Frequencies --    380.5479               418.6287               467.9547
 Red. masses --      4.3092                 3.6316                 5.8758
 Frc consts  --      0.3677                 0.3750                 0.7581
 IR Inten    --      1.2496                 4.1066                 3.5471

                     22                     23                     24
                      A                      A                      A
 Frequencies --    476.2146               513.6695               520.4500
 Red. masses --      5.1459                 5.2264                 3.8952
 Frc consts  --      0.6876                 0.8125                 0.6216
 IR Inten    --      5.1507                 3.0186                 3.9273

                     25                     26                     27
                      A                      A                      A
 Frequencies --    648.1000               680.7794               689.5315
 Red. masses --      7.8724                 5.3404                 5.8957
 Frc consts  --      1.9482                 1.4583                 1.6516
 IR Inten    --      1.4459                 3.6163                 4.9840

                     28                     29                     30
                      A                      A                      A
 Frequencies --    692.6290               705.7711               747.8758
 Red. masses --      5.2115                 9.2299                 4.7394
 Frc consts  --      1.4730                 2.7088                 1.5618
 IR Inten    --      1.2265                 4.0021                11.5865

                     31                     32                     33
                      A                      A                      A
 Frequencies --    754.7364               806.2287               848.3019
 Red. masses --      5.1258                 1.4023                 1.6414
 Frc consts  --      1.7203                 0.5370                 0.6959
 IR Inten    --      7.3060                85.7357                12.4009

                     34                     35                     36
                      A                      A                      A
 Frequencies --    858.0745               964.4806               988.4962
 Red. masses --      2.5843                 1.3144                 1.9201
 Frc consts  --      1.1211                 0.7204                 1.1054
 IR Inten    --     12.6473                 8.1013                 3.3625

                     37                     38                     39
                      A                      A                      A
 Frequencies --    989.8505               992.1793              1014.0025
 Red. masses --      1.5448                 3.0295                 1.4517
 Frc consts  --      0.8918                 1.7571                 0.8794
 IR Inten    --      0.9750                 0.3571                19.0785

                     40                     41                     42
                      A                      A                      A
 Frequencies --   1026.1184              1045.3876              1079.1599
 Red. masses --      1.8047                 3.2353                 1.4839
 Frc consts  --      1.1196                 2.0832                 1.0182
 IR Inten    --      3.6977                10.8114                 1.8992

                     43                     44                     45
                      A                      A                      A
 Frequencies --   1083.8447              1131.2172              1145.8460
 Red. masses --      9.9466                 3.1461                 2.1731
 Frc consts  --      6.8843                 2.3720                 1.6810
 IR Inten    --      2.4619                81.1414                10.2378

                     46                     47                     48
                      A                      A                      A
 Frequencies --   1150.0153              1164.2671              1167.2849
 Red. masses --      2.4589                 1.3402                 1.6687
 Frc consts  --      1.9160                 1.0704                 1.3396
 IR Inten    --     37.7585                 3.3817                12.0860

                     49                     50                     51
                      A                      A                      A
 Frequencies --   1180.8533              1199.5340              1245.5559
 Red. masses --      1.3970                 1.8002                 2.2632
 Frc consts  --      1.1477                 1.5262                 2.0687
 IR Inten    --      8.7798                16.6838                 2.1406

                     52                     53                     54
                      A                      A                      A
 Frequencies --   1259.1062              1284.2374              1311.4057
 Red. masses --      5.1217                 1.8746                 2.3514
 Frc consts  --      4.7840                 1.8215                 2.3826
 IR Inten    --      0.4322                 2.9095                 1.5452

                     55                     56                     57
                      A                      A                      A
 Frequencies --   1322.0668              1358.9019              1395.3851
 Red. masses --      1.6689                 5.0574                 1.8869
 Frc consts  --      1.7186                 5.5025                 2.1647
 IR Inten    --      8.4533                 6.4255                 8.7059

                     58                     59                     60
                      A                      A                      A
 Frequencies --   1429.7740              1434.5628              1446.9655
 Red. masses --      1.5283                 1.8828                 2.8389
 Frc consts  --      1.8408                 2.2830                 3.5020
 IR Inten    --      9.6461                60.3101                 6.0226

                     61                     62                     63
                      A                      A                      A
 Frequencies --   1458.5666              1483.7118              1489.8202
 Red. masses --      3.1095                 1.1896                 1.2524
 Frc consts  --      3.8976                 1.5430                 1.6379
 IR Inten    --     52.6196                 0.4446                35.0116

                     64                     65                     66
                      A                      A                      A
 Frequencies --   1504.2756              1508.0565              1509.8306
 Red. masses --      1.6937                 1.5803                 1.0691
 Frc consts  --      2.2580                 2.1175                 1.4359
 IR Inten    --    160.9061                10.8937                 6.5393

                     67                     68                     69
                      A                      A                      A
 Frequencies --   1518.6245              1519.0760              1524.8770
 Red. masses --      1.0659                 1.0606                 1.4478
 Frc consts  --      1.4484                 1.4419                 1.9834
 IR Inten    --      5.9207                 4.7860                14.5056

                     70                     71                     72
                      A                      A                      A
 Frequencies --   1537.9333              1538.4213              1547.0939
 Red. masses --      1.2050                 1.1084                 1.0549
 Frc consts  --      1.6792                 1.5456                 1.4877
 IR Inten    --     10.9735                 3.5431                10.3286

                     73                     74                     75
                      A                      A                      A
 Frequencies --   1570.3990              1612.1768              1649.8439
 Red. masses --      3.7898                 6.0391                 5.4772
 Frc consts  --      5.5067                 9.2480                 8.7841
 IR Inten    --     47.2377                19.4820                49.8000

                     76                     77                     78
                      A                      A                      A
 Frequencies --   2927.4723              2959.0051              3025.7348
 Red. masses --      1.0742                 1.0605                 1.0849
 Frc consts  --      5.4240                 5.4709                 5.8517
 IR Inten    --     61.7518               121.0979                27.3328

                     79                     80                     81
                      A                      A                      A
 Frequencies --   3049.7108              3069.6834              3076.8129
 Red. masses --      1.0396                 1.0371                 1.0747
 Frc consts  --      5.6967                 5.7579                 5.9943
 IR Inten    --     19.4346                21.9685                41.1772

                     82                     83                     84
                      A                      A                      A
 Frequencies --   3100.8516              3127.7745              3143.0887
 Red. masses --      1.1015                 1.1017                 1.1002
 Frc consts  --      6.2404                 6.3502                 6.4037
 IR Inten    --     13.8118                31.2685                14.5852

                     85                     86                     87
                      A                      A                      A
 Frequencies --   3164.8369              3174.7756              3183.3941
 Red. masses --      1.0983                 1.1051                 1.0899
 Frc consts  --      6.4813                 6.5626                 6.5075
 IR Inten    --      2.7864                 2.7701                11.9970

                     88                     89                     90
                      A                      A                      A
 Frequencies --   3204.4532              3227.6366              3492.3902
 Red. masses --      1.0908                 1.0931                 1.0742
 Frc consts  --      6.5992                 6.7094                 7.7197
 IR Inten    --     11.1203                 0.9147                 0.1113

 - Thermochemistry -
 -------------------
 Temperature   298.150 Kelvin.  Pressure   1.00000 Atm.
 Atom     1 has atomic number  6 and mass  12.00000

 Molecular mass:   249.10482 amu.
 Principal axes and moments of inertia in atomic units:
                           1         2         3
     Eigenvalues --  1737.727679853.52242**********
           X            0.99995   0.00332   0.00984
           Y           -0.00349   0.99984   0.01755
           Z           -0.00978  -0.01759   0.99980
 This molecule is an asymmetric top.
 Rotational symmetry number  1.
 Warning -- assumption of classical behavior for rotation
           may cause significant error
 Rotational temperatures (Kelvin)      0.04984     0.00879     0.00825
 Rotational constants (GHZ):           1.03856     0.18316     0.17194
 Zero-point vibrational energy     682081.4 (Joules/Mol)
                                  163.02137 (Kcal/Mol)
 Warning -- explicit consideration of  24 degrees of freedom as
           vibrations may cause significant error
 Vibrational temperatures:     28.62    44.91    54.90    74.56   114.09
          (Kelvin)            127.44   137.02   197.74   223.45   228.25
                              327.07   343.16   358.66   379.22   404.78
                              427.04   483.37   527.22   547.52   602.31
                              673.28   685.17   739.06   748.81   932.47
                              979.49   992.08   996.54  1015.45  1076.03
                             1085.90  1159.98  1220.52  1234.58  1387.67
                             1422.23  1424.17  1427.52  1458.92  1476.36
                             1504.08  1552.67  1559.41  1627.57  1648.62
                             1654.62  1675.12  1679.46  1698.98  1725.86
                             1792.08  1811.57  1847.73  1886.82  1902.16
                             1955.16  2007.65  2057.13  2064.02  2081.86
                             2098.55  2134.73  2143.52  2164.32  2169.76
                             2172.31  2184.96  2185.61  2193.96  2212.74
                             2213.45  2225.92  2259.45  2319.56  2373.76
                             4211.98  4257.35  4353.36  4387.85  4416.59
                             4426.85  4461.43  4500.17  4522.20  4553.49
                             4567.79  4580.19  4610.49  4643.85  5024.77

 Zero-point correction=                           0.259791 (Hartree/Particle)
 Thermal correction to Energy=                    0.276993
 Thermal correction to Enthalpy=                  0.277937
 Thermal correction to Gibbs Free Energy=         0.211969
 Sum of electronic and zero-point Energies=          -1099.924582
 Sum of electronic and thermal Energies=             -1099.907380
 Sum of electronic and thermal Enthalpies=           -1099.906436
 Sum of electronic and thermal Free Energies=        -1099.972404

                     E (Thermal)             CV                S
                      KCal/Mol        Cal/Mol-Kelvin    Cal/Mol-Kelvin
 Total                  173.816             61.772            138.842
 Electronic               0.000              0.000              0.000
 Translational            0.889              2.981             42.439
 Rotational               0.889              2.981             33.552
 Vibrational            172.038             55.811             62.851
 Vibration     1          0.593              1.986              6.645
 Vibration     2          0.594              1.983              5.751
 Vibration     3          0.594              1.982              5.353
 Vibration     4          0.596              1.977              4.747
 Vibration     5          0.600              1.963              3.908
 Vibration     6          0.601              1.957              3.691
 Vibration     7          0.603              1.953              3.550
 Vibration     8          0.614              1.916              2.839
 Vibration     9          0.620              1.897              2.606
 Vibration    10          0.621              1.893              2.566
 Vibration    11          0.651              1.799              1.900
 Vibration    12          0.656              1.782              1.814
 Vibration    13          0.662              1.764              1.736
 Vibration    14          0.670              1.740              1.638
 Vibration    15          0.681              1.708              1.526
 Vibration    16          0.690              1.680              1.435
 Vibration    17          0.717              1.604              1.231
 Vibration    18          0.739              1.541              1.095
 Vibration    19          0.750              1.512              1.037
 Vibration    20          0.781              1.430              0.897
 Vibration    21          0.825              1.321              0.743
 Vibration    22          0.833              1.303              0.720
 Vibration    23          0.869              1.220              0.625
 Vibration    24          0.875              1.205              0.609

                           ! Non-Optimized Parameters !
 Normal termination of Gaussian 16 at Fri Dec 11 13:29:01 2020.

 ----------------------------------------------------------------------
 # B3LYP/6-311++G(d,p) empiricaldispersion=gd3bj scf=xqc pop=npa geom=c
 heck
 ----------------------------------------------------------------------

 --------------------------------------
 CID_80651820_JID_7795_Energie_neutraal
 --------------------------------------
 Structure from the checkpoint file:  "JID_7795.chk"
 Charge =  0 Multiplicity = 1

 SCF Done:  E(RB3LYP) =  -1100.39763375     A.U. after   16 cycles
 Normal termination of Gaussian 16 at Fri Dec 11 13:34:25 2020.

 ----------------------------------------------------------------------
 # B3LYP/6-311++G(d,p) empiricaldispersion=gd3bj scf=xqc pop=npa geom=c
 heck
 ----------------------------------------------------------------------

 ------------------------------------
 CID_80651820_JID_7795_Energie_kation
 ------------------------------------
 Structure from the checkpoint file:  "JID_7795.chk"
 Charge =  1 Multiplicity = 2

 SCF Done:  E(UB3LYP) =  -1100.10405201     A.U. after   25 cycles
 Normal termination of Gaussian 16 at Fri Dec 11 13:46:11 2020.
 Gaussian 16:  ES64L-G16RevA.03 25-Dec-2016

 ----------------------------------------------------------------------
 # B3LYP/6-311++G(d,p) empiricaldispersion=gd3bj scf=xqc pop=npa geom=c
 heck
 ----------------------------------------------------------------------

 -----------------------------------
 CID_80651820_JID_7795_Energie_anion
 -----------------------------------
 Structure from the checkpoint file:  "JID_7795.chk"
 Charge = -1 Multiplicity = 2

                         Standard orientation:
 ---------------------------------------------------------------------
 Center     Atomic      Atomic             Coordinates (Angstroms)
 Number     Number       Type             X           Y           Z
 ---------------------------------------------------------------------
      1          6           0        4.476350    2.155609    0.386329
      2          6           0        3.777341    0.947087   -0.132390
      3          7           0        3.976727    0.396559   -1.314803
      4          7           0        3.131639   -0.686460   -1.424475
      5          6           0        2.449823   -0.769065   -0.301856
      6          7           0        2.827214    0.244096    0.560285
      7          6           0        2.272113    0.547691    1.867776
      8         16           0        1.245104   -1.984901    0.094526
      9          6           0       -0.254998   -0.995347   -0.014431
     10          7           0       -1.283195   -1.510253    0.659161
     11          6           0       -2.446778   -0.851075    0.619040
     12          6           0       -2.639989    0.351783   -0.069892
     13          6           0       -1.547140    0.858686   -0.778783
     14          6           0       -0.331617    0.182255   -0.766349
     15          6           0       -3.971301    1.064564   -0.037597
     16          7           0       -5.083540    0.123703   -0.102875
     17          6           0       -6.383629    0.780979   -0.064746
     18          1           0        3.773671    2.965237    0.617324
     19          1           0        5.170814    2.504018   -0.380441
     20          1           0        5.046018    1.936925    1.297733
     21          1           0        1.441523    1.256202    1.782339
     22          1           0        1.902149   -0.375427    2.316457
     23          1           0        3.050136    0.974214    2.504021
     24          1           0       -3.276603   -1.299128    1.158879
     25          1           0       -1.651573    1.774941   -1.355555
     26          1           0        0.517738    0.535451   -1.339897
     27          1           0       -4.072099    1.619310    0.907132
     28          1           0       -3.994500    1.829105   -0.839025
     29          1           0       -4.999820   -0.425972   -0.956193
     30          1           0       -6.524725    1.552485   -0.844369
     31          1           0       -7.173485    0.031722   -0.173882
     32          1           0       -6.513884    1.266809    0.909412
 ---------------------------------------------------------------------

 SCF Done:  E(UB3LYP) =  -1100.39632192     A.U. after   33 cycles
 SCF Done:  E(UB3LYP) =  -1100.39632192     a.u. after    1 cycles

 The electronic state is 2-A.
 Alpha  occ. eigenvalues --  -88.77004 -14.29278 -14.23272 -14.22879 -14.21539
 Alpha  occ. eigenvalues --  -14.20422 -10.16003 -10.14935 -10.13798 -10.12776
 Alpha  occ. eigenvalues --  -10.10927 -10.10507 -10.09493 -10.09286 -10.08442
 Alpha  occ. eigenvalues --  -10.08241 -10.07650  -7.85624  -5.82034  -5.81623
 Alpha  occ. eigenvalues --   -5.80997  -0.97348  -0.84905  -0.83800  -0.82236
 Alpha  occ. eigenvalues --   -0.75023  -0.71130  -0.69433  -0.65660  -0.64165
 Alpha  occ. eigenvalues --   -0.63021  -0.59809  -0.55736  -0.52908  -0.52212
 Alpha  occ. eigenvalues --   -0.50045  -0.48065  -0.42970  -0.41882  -0.40663
 Alpha  occ. eigenvalues --   -0.40315  -0.37996  -0.36512  -0.35430  -0.35280
 Alpha  occ. eigenvalues --   -0.34543  -0.34270  -0.33733  -0.32286  -0.31914
 Alpha  occ. eigenvalues --   -0.31610  -0.30880  -0.30101  -0.29531  -0.28745
 Alpha  occ. eigenvalues --   -0.27203  -0.25131  -0.22507  -0.20077  -0.19917
 Alpha  occ. eigenvalues --   -0.18728  -0.17288  -0.16996  -0.15844  -0.14509
 Alpha  occ. eigenvalues --   -0.13105   0.03507
 Alpha virt. eigenvalues --    0.05028   0.05676   0.07104   0.07377   0.07812
 Alpha virt. eigenvalues --    0.07999   0.08107   0.08553   0.09230   0.09963
 Alpha virt. eigenvalues --    0.10289   0.10888   0.11332   0.11587   0.11807

  Beta  occ. eigenvalues --  -88.77003 -14.29272 -14.23267 -14.22878 -14.21538
  Beta  occ. eigenvalues --  -14.20289 -10.16000 -10.14934 -10.13826 -10.12732
  Beta  occ. eigenvalues --  -10.10908 -10.10480 -10.09447 -10.09117 -10.08487
  Beta  occ. eigenvalues --  -10.08111 -10.07546  -7.85624  -5.82031  -5.81623
  Beta  occ. eigenvalues --   -5.80999  -0.97335  -0.84686  -0.83781  -0.82220
  Beta  occ. eigenvalues --   -0.75002  -0.70954  -0.69309  -0.65564  -0.64105
  Beta  occ. eigenvalues --   -0.62969  -0.59705  -0.55619  -0.52611  -0.52179
  Beta  occ. eigenvalues --   -0.49990  -0.48021  -0.42899  -0.41837  -0.40587
  Beta  occ. eigenvalues --   -0.40264  -0.37922  -0.36455  -0.35388  -0.35207
  Beta  occ. eigenvalues --   -0.34462  -0.34224  -0.33664  -0.32218  -0.31866
  Beta  occ. eigenvalues --   -0.31416  -0.30811  -0.29897  -0.29413  -0.28659
  Beta  occ. eigenvalues --   -0.27153  -0.25078  -0.22467  -0.20044  -0.19694
  Beta  occ. eigenvalues --   -0.17905  -0.17188  -0.16946  -0.15737  -0.14460
  Beta  occ. eigenvalues --   -0.12862
  Beta virt. eigenvalues --    0.05605   0.06068   0.06956   0.07496   0.07703
  Beta virt. eigenvalues --    0.08039   0.08184   0.08323   0.08952   0.09575
  Beta virt. eigenvalues --    0.10058   0.10462   0.11027   0.11414   0.11695

 Mulliken charges and spin densities:
               1          2
     1  C    1.564778  -2.177443
     2  C   -0.827381   1.015463
     3  N   -0.107088   0.046961
     4  N    0.089223  -0.040816
     5  C   -0.829640   0.433963
     6  N    0.066391   0.114551
     7  C    0.372576  -0.738474
     8  S   -0.243138  -0.042840
     9  C    0.021563  -0.084532
    10  N    0.038705   0.081620
    11  C   -0.510153   0.161734
    12  C    0.313545   0.323807
    13  C   -0.275928   0.301928
    14  C   -0.474391   0.086779
    15  C    0.177899  -1.005302
    16  N   -0.187440   0.106668
    17  C    0.378444  -0.717217
    18  H   -0.287437   0.459091
    19  H    0.088055   0.085722
    20  H   -0.257505   0.426849
    21  H    0.083789   0.123995
    22  H    0.035877   0.130417
    23  H   -0.429161   0.607001
    24  H    0.173011   0.035736
    25  H   -0.152392   0.307189
    26  H    0.252328  -0.023797
    27  H   -0.022639   0.189595
    28  H    0.113969   0.041333
    29  H    0.155082   0.047037
    30  H   -0.202810   0.316598
    31  H   -0.007520   0.136370
    32  H   -0.110614   0.250016
 Sum of Mulliken charges =  -1.00000   1.00000

 Dipole moment (field-independent basis, Debye):
    X=             -1.5100    Y=             -0.9402    Z=              0.1061  Tot=              1.7820
 Quadrupole moment (field-independent basis, Debye-Ang):
   XX=           -207.5263   YY=           -143.7084   ZZ=           -144.1570
   XY=             -1.0204   XZ=              4.1992   YZ=             -4.5931

 Summary of Natural Population Analysis:

                                       Natural Population
                Natural  -----------------------------------------------
    Atom  No    Charge         Core      Valence    Rydberg      Total
 -----------------------------------------------------------------------
      C    1   -0.30986      0.99963     2.30466    0.00557     3.30986
      C    2    0.19097      0.99961     1.79190    0.01753     2.80903
      N    3   -0.16822      0.99969     2.65607    0.01247     3.66822
      N    4   -0.15754      0.99966     2.64459    0.01328     3.65754
      C    5    0.08814      0.99954     1.88763    0.02469     2.91186
      N    6   -0.21722      0.99956     2.70585    0.01180     3.71722
      C    7   -0.17923      0.99963     2.17194    0.00765     3.17923
      S    8    0.15057      4.99945     2.83017    0.01981     7.84943
      C    9    0.02967      0.99945     1.95214    0.01875     2.97033
      N   10   -0.23133      0.99965     2.71966    0.01202     3.73133
      C   11    0.06205      0.99953     1.92385    0.01458     2.93795
      C   12   -0.05497      0.99950     2.04480    0.01067     3.05497
      C   13   -0.05540      0.99952     2.04582    0.01006     3.05540
      C   14   -0.11831      0.99947     2.10957    0.00927     3.11831
      C   15   -0.08847      0.99960     2.07890    0.00997     3.08847
      N   16   -0.33360      0.99975     2.82344    0.01041     3.83360
      C   17   -0.17582      0.99967     2.16955    0.00660     3.17582
      H   18    0.11036      0.00000     0.38814    0.00151     0.38964
      H   19    0.11569      0.00000     0.38313    0.00118     0.38431
      H   20    0.10999      0.00000     0.38830    0.00170     0.39001
      H   21    0.10569      0.00000     0.39282    0.00150     0.39431
      H   22    0.11048      0.00000     0.38810    0.00141     0.38952
      H   23    0.10478      0.00000     0.39362    0.00161     0.39522
      H   24    0.09498      0.00000     0.40338    0.00164     0.40502
      H   25    0.09864      0.00000     0.40035    0.00102     0.40136
      H   26    0.10928      0.00000     0.38893    0.00179     0.39072
      H   27    0.09588      0.00000     0.40255    0.00157     0.40412
      H   28    0.08211      0.00000     0.41577    0.00212     0.41789
      H   29    0.16940      0.00000     0.32677    0.00383     0.33060
      H   30    0.07767      0.00000     0.41969    0.00265     0.42233
      H   31    0.09270      0.00000     0.40629    0.00101     0.40730
      H   32    0.09092      0.00000     0.40755    0.00154     0.40908
 =======================================================================
   * Total *    0.00000     20.99291    44.76586    0.24122    66.00000

 Normal termination of Gaussian 16 at Fri Dec 11 14:01:35 2020.
