 Gaussian 16, Revision A.03,

 -----------------------------------------------------------
 # opt freq B3LYP/6-31G(d) empiricaldispersion=gd3bj scf=xqc
 -----------------------------------------------------------

 -------------------------------
 CID_113667925_JID_7617_neutraal
 -------------------------------
 Symbolic Z-matrix:
 Charge =  0 Multiplicity = 1

 SCF Done:  E(RB3LYP) =  -712.864313564     A.U. after   13 cycles
 SCF Done:  E(RB3LYP) =  -712.868912712     A.U. after   12 cycles
 SCF Done:  E(RB3LYP) =  -712.869373768     A.U. after   12 cycles
 SCF Done:  E(RB3LYP) =  -712.869499833     A.U. after   12 cycles
 SCF Done:  E(RB3LYP) =  -712.869672245     A.U. after   11 cycles
 SCF Done:  E(RB3LYP) =  -712.869727840     A.U. after   11 cycles
 SCF Done:  E(RB3LYP) =  -712.869794902     A.U. after   11 cycles
 SCF Done:  E(RB3LYP) =  -712.869833191     A.U. after   10 cycles
 SCF Done:  E(RB3LYP) =  -712.869862725     A.U. after   11 cycles
 SCF Done:  E(RB3LYP) =  -712.869872603     A.U. after   10 cycles
 SCF Done:  E(RB3LYP) =  -712.869875447     A.U. after   10 cycles
 SCF Done:  E(RB3LYP) =  -712.869876225     A.U. after    8 cycles
 SCF Done:  E(RB3LYP) =  -712.869876200     A.U. after    9 cycles
 SCF Done:  E(RB3LYP) =  -712.869876439     A.U. after    9 cycles
 SCF Done:  E(RB3LYP) =  -712.869876452     A.U. after    7 cycles
 Optimization completed.
    -- Stationary point found.
 Normal termination of Gaussian 16 at Fri Dec 11 13:12:01 2020.

 --------------------------------------------------------------------
 #N Geom=AllCheck Guess=TCheck SCRF=Check GenChk RB3LYP/6-31G(d) Freq
 --------------------------------------------------------------------

 Structure from the checkpoint file:  "JID_7617.chk"
 -------------------------------
 CID_113667925_JID_7617_neutraal
 -------------------------------
 Charge =  0 Multiplicity = 1

 SCF Done:  E(RB3LYP) =  -712.869876452     A.U. after    1 cycles

  Exact polarizability: 164.734 -13.601 178.943   6.423  -2.817 142.221
 Approx polarizability: 209.935 -28.282 252.777  15.964  -1.580 249.843

                      1                      2                      3
                      A                      A                      A
 Frequencies --     21.3955                29.2361                42.8247
 Red. masses --      3.5212                 2.8902                 3.8384
 Frc consts  --      0.0009                 0.0015                 0.0041
 IR Inten    --      0.0219                 0.1832                 0.0293

                      4                      5                      6
                      A                      A                      A
 Frequencies --     54.7376                62.8432                75.6892
 Red. masses --      4.6454                 2.4127                 3.1972
 Frc consts  --      0.0082                 0.0056                 0.0108
 IR Inten    --      0.0309                 0.0019                 0.0126

                      7                      8                      9
                      A                      A                      A
 Frequencies --     80.9935               111.4045               130.2615
 Red. masses --      2.8471                 2.8685                 2.1779
 Frc consts  --      0.0110                 0.0210                 0.0218
 IR Inten    --      0.0387                 0.3505                 0.1974

                     10                     11                     12
                      A                      A                      A
 Frequencies --    181.8898               190.5289               209.3918
 Red. masses --      1.7696                 3.2342                 1.4858
 Frc consts  --      0.0345                 0.0692                 0.0384
 IR Inten    --      0.4158                 0.1659                 0.0756

                     13                     14                     15
                      A                      A                      A
 Frequencies --    229.3998               244.5100               256.7360
 Red. masses --      2.3811                 2.6577                 1.3802
 Frc consts  --      0.0738                 0.0936                 0.0536
 IR Inten    --      0.0382                 1.0845                 0.4755

                     16                     17                     18
                      A                      A                      A
 Frequencies --    282.2376               300.8945               312.6443
 Red. masses --      1.8467                 1.8334                 1.9183
 Frc consts  --      0.0867                 0.0978                 0.1105
 IR Inten    --      0.1988                 0.9904                 0.3165

                     19                     20                     21
                      A                      A                      A
 Frequencies --    342.9651               363.3484               386.8284
 Red. masses --      2.3699                 2.2534                 2.2534
 Frc consts  --      0.1642                 0.1753                 0.1987
 IR Inten    --      1.8959                 0.9266                 2.9808

                     22                     23                     24
                      A                      A                      A
 Frequencies --    422.0480               468.9398               473.9896
 Red. masses --      4.5956                 2.2603                 2.9774
 Frc consts  --      0.4823                 0.2928                 0.3941
 IR Inten    --     19.4822                 0.5860                 2.3502

                     25                     26                     27
                      A                      A                      A
 Frequencies --    528.5123               546.0881               599.3687
 Red. masses --      2.6767                 3.0861                 2.8126
 Frc consts  --      0.4405                 0.5422                 0.5953
 IR Inten    --      5.6519                 0.8465                 0.9840

                     28                     29                     30
                      A                      A                      A
 Frequencies --    621.8112               660.8575               732.1827
 Red. masses --      4.5447                 2.4484                 2.8488
 Frc consts  --      1.0353                 0.6300                 0.8998
 IR Inten    --      5.5807                30.9168                76.0950

                     31                     32                     33
                      A                      A                      A
 Frequencies --    734.3373               774.9235               788.7002
 Red. masses --      1.3760                 1.3210                 2.5901
 Frc consts  --      0.4372                 0.4674                 0.9493
 IR Inten    --      6.6964                 4.8900                 5.1341

                     34                     35                     36
                      A                      A                      A
 Frequencies --    794.7489               812.7418               834.7074
 Red. masses --      1.2466                 1.5207                 2.3854
 Frc consts  --      0.4639                 0.5918                 0.9792
 IR Inten    --     13.8144                 1.3115                 4.0589

                     37                     38                     39
                      A                      A                      A
 Frequencies --    864.9566               875.3963               895.8770
 Red. masses --      1.7403                 2.8509                 1.6967
 Frc consts  --      0.7671                 1.2872                 0.8023
 IR Inten    --     15.4467                22.9160                 9.8189

                     40                     41                     42
                      A                      A                      A
 Frequencies --    901.2171               952.2013               952.8611
 Red. masses --      1.8757                 2.0366                 1.3940
 Frc consts  --      0.8976                 1.0880                 0.7457
 IR Inten    --      6.4003                 0.7445                 1.0024

                     43                     44                     45
                      A                      A                      A
 Frequencies --    970.1480               981.3372              1004.7357
 Red. masses --      1.7830                 1.4379                 1.7450
 Frc consts  --      0.9887                 0.8159                 1.0379
 IR Inten    --      0.3379                 0.0783                 0.6401

                     46                     47                     48
                      A                      A                      A
 Frequencies --   1014.3361              1035.1088              1036.8738
 Red. masses --      1.7436                 2.6885                 4.7616
 Frc consts  --      1.0569                 1.6972                 3.0162
 IR Inten    --      2.0807                 5.1106                20.0705

                     49                     50                     51
                      A                      A                      A
 Frequencies --   1059.5423              1081.3639              1090.5548
 Red. masses --      1.6773                 1.5021                 2.4504
 Frc consts  --      1.1094                 1.0349                 1.7171
 IR Inten    --      0.2000                 0.8077                15.1387

                     52                     53                     54
                      A                      A                      A
 Frequencies --   1101.1041              1108.5767              1128.1075
 Red. masses --      2.1102                 2.2580                 1.9506
 Frc consts  --      1.5074                 1.6349                 1.4625
 IR Inten    --     12.0787                 3.6653                 3.2258

                     55                     56                     57
                      A                      A                      A
 Frequencies --   1151.4466              1181.0475              1181.7874
 Red. masses --      1.8282                 3.0272                 2.0499
 Frc consts  --      1.4281                 2.4878                 1.6868
 IR Inten    --      8.8983                68.1614                 3.9214

                     58                     59                     60
                      A                      A                      A
 Frequencies --   1194.2354              1208.2364              1238.5752
 Red. masses --      2.1221                 1.9003                 1.8736
 Frc consts  --      1.7832                 1.6345                 1.6934
 IR Inten    --      3.4727                 2.1864                 0.9695

                     61                     62                     63
                      A                      A                      A
 Frequencies --   1243.7883              1262.1852              1276.5588
 Red. masses --      2.4081                 2.0075                 1.6316
 Frc consts  --      2.1949                 1.8844                 1.5666
 IR Inten    --      8.2632                 0.9609                 0.8760

                     64                     65                     66
                      A                      A                      A
 Frequencies --   1289.4980              1304.5770              1325.1645
 Red. masses --      1.5644                 1.3443                 1.1695
 Frc consts  --      1.5326                 1.3480                 1.2100
 IR Inten    --      1.0404                 0.3422                 4.8656

                     67                     68                     69
                      A                      A                      A
 Frequencies --   1334.7446              1348.7831              1369.3766
 Red. masses --      1.1935                 1.3248                 1.2297
 Frc consts  --      1.2528                 1.4200                 1.3586
 IR Inten    --      1.6108                 1.3530                 2.6909

                     70                     71                     72
                      A                      A                      A
 Frequencies --   1379.1183              1391.0941              1398.2773
 Red. masses --      1.4915                 1.2529                 1.2840
 Frc consts  --      1.6714                 1.4285                 1.4791
 IR Inten    --      2.4503                 1.1578                10.1655

                     73                     74                     75
                      A                      A                      A
 Frequencies --   1405.0912              1408.9450              1414.1805
 Red. masses --      1.3720                 1.2832                 1.3285
 Frc consts  --      1.5960                 1.5009                 1.5654
 IR Inten    --      6.0188                 5.1163                 4.7739

                     76                     77                     78
                      A                      A                      A
 Frequencies --   1429.1887              1436.7236              1442.7625
 Red. masses --      1.4547                 1.2496                 1.3052
 Frc consts  --      1.7507                 1.5198                 1.6008
 IR Inten    --      1.1790                 8.9630                 5.9245

                     79                     80                     81
                      A                      A                      A
 Frequencies --   1444.4722              1451.1185              1504.8146
 Red. masses --      1.2718                 1.7876                 1.0915
 Frc consts  --      1.5635                 2.2178                 1.4563
 IR Inten    --      3.8921                32.1142                10.6853

                     82                     83                     84
                      A                      A                      A
 Frequencies --   1506.6184              1514.5360              1518.2291
 Red. masses --      1.0796                 1.3473                 1.0787
 Frc consts  --      1.4439                 1.8208                 1.4649
 IR Inten    --      3.7524                10.3687                 7.4584

                     85                     86                     87
                      A                      A                      A
 Frequencies --   1523.7760              1524.9237              1526.7945
 Red. masses --      1.3814                 1.0754                 1.0999
 Frc consts  --      1.8898                 1.4734                 1.5106
 IR Inten    --      8.5223                 3.0250                 2.5386

                     88                     89                     90
                      A                      A                      A
 Frequencies --   1527.2625              1535.8030              1536.7301
 Red. masses --      1.1836                 1.0568                 1.0659
 Frc consts  --      1.6266                 1.4687                 1.4830
 IR Inten    --      4.8899                 5.7549                 6.7044

                     91                     92                     93
                      A                      A                      A
 Frequencies --   1538.4320              1540.7055              1545.8898
 Red. masses --      1.0622                 1.0762                 1.0659
 Frc consts  --      1.4812                 1.5052                 1.5008
 IR Inten    --      4.2077                 9.9356                 0.9233

                     94                     95                     96
                      A                      A                      A
 Frequencies --   1589.8203              1631.0651              3001.9319
 Red. masses --      8.3919                 4.8106                 1.0809
 Frc consts  --     12.4970                 7.5403                 5.7388
 IR Inten    --      8.8471                 1.6322                21.8057

                     97                     98                     99
                      A                      A                      A
 Frequencies --   3030.3783              3036.9765              3039.7395
 Red. masses --      1.0641                 1.0628                 1.0608
 Frc consts  --      5.7572                 5.7757                 5.7753
 IR Inten    --     23.2403                23.4834                48.1773

                    100                    101                    102
                      A                      A                      A
 Frequencies --   3044.8666              3045.9865              3050.7904
 Red. masses --      1.0376                 1.0403                 1.0445
 Frc consts  --      5.6681                 5.6869                 5.7280
 IR Inten    --     18.8680                23.2158                 8.7315

                    103                    104                    105
                      A                      A                      A
 Frequencies --   3054.8220              3057.0523              3064.8626
 Red. masses --      1.0666                 1.0637                 1.0928
 Frc consts  --      5.8644                 5.8569                 6.0479
 IR Inten    --     43.6985                 8.0829                41.6146

                    106                    107                    108
                      A                      A                      A
 Frequencies --   3071.5755              3077.0789              3080.8884
 Red. masses --      1.0989                 1.0992                 1.0874
 Frc consts  --      6.1087                 6.1320                 6.0813
 IR Inten    --     34.4318                 9.2420                32.0334

                    109                    110                    111
                      A                      A                      A
 Frequencies --   3093.8309              3104.7859              3106.2141
 Red. masses --      1.0978                 1.0969                 1.1016
 Frc consts  --      6.1911                 6.2298                 6.2624
 IR Inten    --     79.6937                 1.4876                48.4779

                    112                    113                    114
                      A                      A                      A
 Frequencies --   3109.2215              3116.6382              3116.9643
 Red. masses --      1.1014                 1.0994                 1.1015
 Frc consts  --      6.2734                 6.2919                 6.3053
 IR Inten    --     42.1872                37.5192                57.8057

                    115                    116                    117
                      A                      A                      A
 Frequencies --   3126.0493              3147.3981              3166.1319
 Red. masses --      1.1013                 1.0989                 1.0898
 Frc consts  --      6.3408                 6.4136                 6.4366
 IR Inten    --     54.1314                25.8968                28.6219

                    118                    119                    120
                      A                      A                      A
 Frequencies --   3175.6413              3195.9579              3497.3679
 Red. masses --      1.0875                 1.0969                 1.0733
 Frc consts  --      6.4617                 6.6013                 7.7351
 IR Inten    --      6.5397                42.6707                 0.6518

 - Thermochemistry -
 -------------------
 Temperature   298.150 Kelvin.  Pressure   1.00000 Atm.
 Atom     1 has atomic number  6 and mass  12.00000

 Molecular mass:   235.20485 amu.
 Principal axes and moments of inertia in atomic units:
                           1         2         3
     Eigenvalues --  3450.508814732.107246939.48498
           X            0.99840   0.05659  -0.00155
           Y           -0.05658   0.99838   0.00623
           Z            0.00190  -0.00613   0.99998
 This molecule is an asymmetric top.
 Rotational symmetry number  1.
 Warning -- assumption of classical behavior for rotation
           may cause significant error
 Rotational temperatures (Kelvin)      0.02510     0.01830     0.01248
 Rotational constants (GHZ):           0.52304     0.38138     0.26007
 Zero-point vibrational energy     998574.0 (Joules/Mol)
                                  238.66492 (Kcal/Mol)
 Warning -- explicit consideration of  27 degrees of freedom as
           vibrations may cause significant error
 Vibrational temperatures:     30.78    42.06    61.62    78.76    90.42
          (Kelvin)            108.90   116.53   160.29   187.42   261.70
                              274.13   301.27   330.06   351.80   369.39
                              406.08   432.92   449.83   493.45   522.78
                              556.56   607.23   674.70   681.97   760.41
                              785.70   862.36   894.65   950.83  1053.45
                             1056.55  1114.94  1134.76  1143.47  1169.35
                             1200.96  1244.48  1259.50  1288.97  1296.65
                             1370.01  1370.95  1395.83  1411.93  1445.59
                             1459.40  1489.29  1491.83  1524.45  1555.84
                             1569.07  1584.24  1594.99  1623.10  1656.67
                             1699.26  1700.33  1718.24  1738.38  1782.03
                             1789.53  1816.00  1836.68  1855.30  1877.00
                             1906.62  1920.40  1940.60  1970.23  1984.24
                             2001.47  2011.81  2021.61  2027.16  2034.69
                             2056.28  2067.12  2075.81  2078.27  2087.84
                             2165.09  2167.69  2179.08  2184.39  2192.37
                             2194.03  2196.72  2197.39  2209.68  2211.01
                             2213.46  2216.73  2224.19  2287.40  2346.74
                             4319.11  4360.04  4369.53  4373.51  4380.88
                             4382.50  4389.41  4395.21  4398.42  4409.65
                             4419.31  4427.23  4432.71  4451.33  4467.09
                             4469.15  4473.48  4484.15  4484.62  4497.69
                             4528.40  4555.36  4569.04  4598.27  5031.93

 Zero-point correction=                           0.380337 (Hartree/Particle)
 Thermal correction to Energy=                    0.399114
 Thermal correction to Enthalpy=                  0.400058
 Thermal correction to Gibbs Free Energy=         0.331488
 Sum of electronic and zero-point Energies=           -712.489540
 Sum of electronic and thermal Energies=              -712.470763
 Sum of electronic and thermal Enthalpies=            -712.469819
 Sum of electronic and thermal Free Energies=         -712.538388

                     E (Thermal)             CV                S
                      KCal/Mol        Cal/Mol-Kelvin    Cal/Mol-Kelvin
 Total                  250.448             69.819            144.317
 Electronic               0.000              0.000              0.000
 Translational            0.889              2.981             42.267
 Rotational               0.889              2.981             33.093
 Vibrational            248.670             63.857             68.956
 Vibration     1          0.593              1.985              6.500
 Vibration     2          0.593              1.984              5.881
 Vibration     3          0.595              1.980              5.124
 Vibration     4          0.596              1.976              4.638
 Vibration     5          0.597              1.972              4.366
 Vibration     6          0.599              1.965              4.000
 Vibration     7          0.600              1.962              3.867
 Vibration     8          0.607              1.940              3.244
 Vibration     9          0.612              1.923              2.942
 Vibration    10          0.630              1.864              2.309
 Vibration    11          0.634              1.853              2.223
 Vibration    12          0.642              1.826              2.049
 Vibration    13          0.652              1.796              1.884
 Vibration    14          0.660              1.772              1.770
 Vibration    15          0.666              1.751              1.684
 Vibration    16          0.681              1.707              1.520
 Vibration    17          0.693              1.672              1.412
 Vibration    18          0.701              1.650              1.348
 Vibration    19          0.722              1.590              1.198
 Vibration    20          0.737              1.548              1.108
 Vibration    21          0.755              1.498              1.012
 Vibration    22          0.784              1.422              0.885
 Vibration    23          0.826              1.319              0.741
 Vibration    24          0.831              1.308              0.726
 Vibration    25          0.883              1.187              0.591
 Vibration    26          0.901              1.148              0.552
 Vibration    27          0.957              1.033              0.451

 Optimization completed.
    -- Stationary point found.
 Normal termination of Gaussian 16 at Fri Dec 11 13:35:12 2020.

 ----------------------------------------------------------------------
 # B3LYP/6-311++G(d,p) empiricaldispersion=gd3bj scf=xqc pop=npa geom=c
 heck
 ----------------------------------------------------------------------

 ---------------------------------------
 CID_113667925_JID_7617_Energie_neutraal
 ---------------------------------------
 Structure from the checkpoint file:  "JID_7617.chk"
 Charge =  0 Multiplicity = 1

 SCF Done:  E(RB3LYP) =  -713.063862582     A.U. after   14 cycles
 Normal termination of Gaussian 16 at Fri Dec 11 13:45:28 2020.

 ----------------------------------------------------------------------
 # B3LYP/6-311++G(d,p) empiricaldispersion=gd3bj scf=xqc pop=npa geom=c
 heck
 ----------------------------------------------------------------------

 -------------------------------------
 CID_113667925_JID_7617_Energie_kation
 -------------------------------------
 Structure from the checkpoint file:  "JID_7617.chk"
 Charge =  1 Multiplicity = 2

 SCF Done:  E(UB3LYP) =  -712.769430386     A.U. after   21 cycles
 Normal termination of Gaussian 16 at Fri Dec 11 14:07:28 2020.
 Gaussian 16:  ES64L-G16RevA.03 25-Dec-2016

 ----------------------------------------------------------------------
 # B3LYP/6-311++G(d,p) empiricaldispersion=gd3bj scf=xqc pop=npa geom=c
 heck
 ----------------------------------------------------------------------

 ------------------------------------
 CID_113667925_JID_7617_Energie_anion
 ------------------------------------
 Structure from the checkpoint file:  "JID_7617.chk"
 Charge = -1 Multiplicity = 2

                         Standard orientation:
 ---------------------------------------------------------------------
 Center     Atomic      Atomic             Coordinates (Angstroms)
 Number     Number       Type             X           Y           Z
 ---------------------------------------------------------------------
      1          6           0       -2.763037   -2.463738   -0.917417
      2          6           0       -3.534788   -1.159423   -0.692973
      3          6           0       -3.240539   -0.487052    0.657053
      4          6           0       -1.761784   -0.150848    0.900346
      5          6           0       -1.114325    0.758235   -0.162110
      6          6           0       -1.836869    2.109286   -0.327909
      7          6           0       -1.848109    2.995345    0.920580
      8          6           0        0.398935    0.942730    0.135123
      9          6           0        1.095580   -0.408145    0.217450
     10          7           0        1.593224   -0.790745    1.402447
     11          6           0        2.213259   -1.976602    1.442954
     12          6           0        2.337288   -2.787800    0.316781
     13          7           0        1.837564   -2.422096   -0.871322
     14          6           0        1.224718   -1.238061   -0.907732
     15          7           0        0.994543    1.870055   -0.827284
     16          6           0        2.294211    2.451157   -0.495328
     17          6           0        3.520357    1.525539   -0.516893
     18          1           0       -1.681243   -2.296069   -0.965593
     19          1           0       -3.062961   -2.944138   -1.855336
     20          1           0       -2.948952   -3.175426   -0.103378
     21          1           0       -3.316368   -0.460983   -1.511715
     22          1           0       -4.612023   -1.362503   -0.752659
     23          1           0       -3.849987    0.421210    0.744861
     24          1           0       -3.574787   -1.154502    1.463472
     25          1           0       -1.658916    0.318813    1.886784
     26          1           0       -1.195949   -1.086273    0.965742
     27          1           0       -1.183024    0.242322   -1.132355
     28          1           0       -1.353424    2.655988   -1.142009
     29          1           0       -2.868868    1.914634   -0.644857
     30          1           0       -0.831301    3.265452    1.225387
     31          1           0       -2.388562    3.927754    0.723540
     32          1           0       -2.335967    2.505957    1.770921
     33          1           0        0.509588    1.396451    1.125881
     34          1           0        2.621428   -2.285645    2.403163
     35          1           0        2.844039   -3.748795    0.367086
     36          1           0        0.818449   -0.934015   -1.870964
     37          1           0        1.009526    1.463615   -1.760560
     38          1           0        2.459061    3.276523   -1.199774
     39          1           0        2.197097    2.908787    0.497132
     40          1           0        3.598427    1.000795   -1.477188
     41          1           0        4.437596    2.111123   -0.380285
     42          1           0        3.480414    0.774685    0.276264
 ---------------------------------------------------------------------

 SCF Done:  E(UB3LYP) =  -713.063083418     A.U. after   33 cycles
 SCF Done:  E(UB3LYP) =  -713.063083417     a.u. after    1 cycles

 The electronic state is 2-A.
 Alpha  occ. eigenvalues --  -14.18240 -14.14540 -14.14514 -10.08826 -10.07653
 Alpha  occ. eigenvalues --  -10.06251 -10.05843 -10.05767 -10.05700 -10.05452
 Alpha  occ. eigenvalues --  -10.05426 -10.05362 -10.05299 -10.05093 -10.05090
 Alpha  occ. eigenvalues --  -10.04798 -10.04742  -0.82126  -0.79313  -0.74524
 Alpha  occ. eigenvalues --   -0.70994  -0.67595  -0.64388  -0.62235  -0.61613
 Alpha  occ. eigenvalues --   -0.58284  -0.54140  -0.53011  -0.50792  -0.49767
 Alpha  occ. eigenvalues --   -0.48125  -0.46647  -0.42786  -0.37960  -0.37381
 Alpha  occ. eigenvalues --   -0.37268  -0.35944  -0.35284  -0.34522  -0.33480
 Alpha  occ. eigenvalues --   -0.32610  -0.31651  -0.30673  -0.30435  -0.29746
 Alpha  occ. eigenvalues --   -0.28497  -0.28016  -0.27655  -0.26811  -0.26105
 Alpha  occ. eigenvalues --   -0.26027  -0.24747  -0.24420  -0.23800  -0.23504
 Alpha  occ. eigenvalues --   -0.22811  -0.22307  -0.20541  -0.19953  -0.19815
 Alpha  occ. eigenvalues --   -0.17807  -0.14886  -0.12756  -0.10969  -0.08910
 Alpha  occ. eigenvalues --    0.05028
 Alpha virt. eigenvalues --    0.06514   0.07395   0.07982   0.08489   0.09267
 Alpha virt. eigenvalues --    0.09622   0.09825   0.10556   0.10910   0.11033
 Alpha virt. eigenvalues --    0.11512   0.12011   0.12051   0.12601   0.12982

  Beta  occ. eigenvalues --  -14.18222 -14.13934 -14.13917 -10.08824 -10.07660
  Beta  occ. eigenvalues --  -10.06240 -10.05836 -10.05765 -10.05662 -10.05445
  Beta  occ. eigenvalues --  -10.05423 -10.05341 -10.05240 -10.05076 -10.05025
  Beta  occ. eigenvalues --  -10.04795 -10.04742  -0.81463  -0.79168  -0.73510
  Beta  occ. eigenvalues --   -0.70965  -0.67569  -0.64279  -0.62191  -0.61432
  Beta  occ. eigenvalues --   -0.58213  -0.54051  -0.52982  -0.50509  -0.49327
  Beta  occ. eigenvalues --   -0.47940  -0.46580  -0.42757  -0.37873  -0.37280
  Beta  occ. eigenvalues --   -0.37207  -0.35732  -0.35137  -0.34485  -0.33396
  Beta  occ. eigenvalues --   -0.32591  -0.31550  -0.30619  -0.30376  -0.29673
  Beta  occ. eigenvalues --   -0.28391  -0.27888  -0.27539  -0.26418  -0.26007
  Beta  occ. eigenvalues --   -0.25520  -0.24639  -0.24312  -0.23728  -0.23311
  Beta  occ. eigenvalues --   -0.22687  -0.22278  -0.20432  -0.19891  -0.19788
  Beta  occ. eigenvalues --   -0.15052  -0.14098  -0.12193  -0.10367  -0.08343
  Beta virt. eigenvalues --    0.06838   0.07465   0.07998   0.08491   0.09298
  Beta virt. eigenvalues --    0.09633   0.09787   0.10492   0.10825   0.11091
  Beta virt. eigenvalues --    0.11544   0.11602   0.11927   0.12250   0.12643

 Mulliken charges and spin densities:
               1          2
     1  C   -0.309568  -0.310795
     2  C   -0.163393  -0.033168
     3  C   -0.201651  -0.285913
     4  C   -0.572917   0.111902
     5  C    0.504629   0.314717
     6  C    0.052458  -0.217332
     7  C   -0.284803  -0.321686
     8  C   -0.291396  -0.328914
     9  C   -0.489181  -0.137527
    10  N    0.123880   0.265268
    11  C    0.006855   0.130001
    12  C   -0.172002   0.000922
    13  N   -0.012749   0.273361
    14  C   -0.893304   0.142629
    15  N    0.037688   0.023941
    16  C   -0.066297  -0.037288
    17  C   -0.533563  -0.029291
    18  H    0.189223   0.023106
    19  H    0.075553   0.039635
    20  H    0.115302   0.003132
    21  H    0.066957   0.069795
    22  H   -0.336362   0.497962
    23  H    0.024959   0.108797
    24  H    0.083101   0.070413
    25  H    0.129090   0.015736
    26  H    0.173113  -0.000346
    27  H    0.295856  -0.102783
    28  H    0.048563   0.064507
    29  H   -0.107975   0.265362
    30  H    0.102261   0.046498
    31  H   -0.008937   0.138857
    32  H    0.105455   0.023939
    33  H    0.254711  -0.019135
    34  H    0.126771  -0.002765
    35  H    0.111453  -0.004855
    36  H    0.050538   0.061040
    37  H    0.153967   0.057979
    38  H    0.087557   0.060708
    39  H    0.107515  -0.000593
    40  H    0.148731  -0.000634
    41  H    0.087331   0.031816
    42  H    0.180581  -0.008996
 Sum of Mulliken charges =  -1.00000   1.00000

 Dipole moment (field-independent basis, Debye):
    X=              0.0103    Y=              2.8262    Z=              0.1875  Tot=              2.8324
 Quadrupole moment (field-independent basis, Debye-Ang):
   XX=           -161.4757   YY=           -145.6221   ZZ=           -126.9121
   XY=              9.5853   XZ=             -2.5273   YZ=             -3.5481

 Summary of Natural Population Analysis:

                                       Natural Population
                Natural  -----------------------------------------------
    Atom  No    Charge         Core      Valence    Rydberg      Total
 -----------------------------------------------------------------------
      C    1   -0.29124      0.99966     2.28538    0.00620     3.29124
      C    2   -0.19260      0.99964     2.18501    0.00795     3.19260
      C    3   -0.18809      0.99963     2.17958    0.00888     3.18809
      C    4   -0.19555      0.99961     2.18692    0.00903     3.19555
      C    5   -0.10724      0.99958     2.09652    0.01114     3.10724
      C    6   -0.19322      0.99962     2.18439    0.00921     3.19322
      C    7   -0.28880      0.99966     2.28356    0.00557     3.28880
      C    8   -0.02372      0.99953     2.00793    0.01626     3.02372
      C    9    0.08101      0.99951     1.90170    0.01779     2.91899
      N   10   -0.16746      0.99968     2.65398    0.01380     3.66746
      C   11    0.00836      0.99959     1.97879    0.01326     2.99164
      C   12   -0.00928      0.99960     1.99566    0.01402     3.00928
      N   13   -0.14379      0.99971     2.63196    0.01212     3.64379
      C   14    0.00297      0.99951     1.98251    0.01500     2.99703
      N   15   -0.34115      0.99974     2.82961    0.01180     3.84115
      C   16   -0.08199      0.99965     2.07245    0.00990     3.08199
      C   17   -0.29856      0.99966     2.29437    0.00453     3.29856
      H   18    0.10661      0.00000     0.39230    0.00109     0.39339
      H   19    0.09506      0.00000     0.40423    0.00071     0.40494
      H   20    0.09314      0.00000     0.40606    0.00080     0.40686
      H   21    0.09333      0.00000     0.40564    0.00103     0.40667
      H   22    0.09298      0.00000     0.40586    0.00116     0.40702
      H   23    0.09470      0.00000     0.40429    0.00101     0.40530
      H   24    0.09270      0.00000     0.40648    0.00083     0.40730
      H   25    0.09772      0.00000     0.40121    0.00107     0.40228
      H   26    0.10854      0.00000     0.38981    0.00165     0.39146
      H   27    0.09511      0.00000     0.40266    0.00223     0.40489
      H   28    0.10489      0.00000     0.39387    0.00124     0.39511
      H   29    0.09307      0.00000     0.40583    0.00110     0.40693
      H   30    0.09780      0.00000     0.40130    0.00091     0.40220
      H   31    0.09504      0.00000     0.40426    0.00070     0.40496
      H   32    0.09399      0.00000     0.40522    0.00079     0.40601
      H   33    0.09869      0.00000     0.39893    0.00238     0.40131
      H   34    0.08027      0.00000     0.41842    0.00131     0.41973
      H   35    0.08027      0.00000     0.41830    0.00142     0.41973
      H   36    0.07747      0.00000     0.41970    0.00283     0.42253
      H   37    0.17062      0.00000     0.32728    0.00211     0.32938
      H   38    0.08401      0.00000     0.41474    0.00124     0.41599
      H   39    0.08749      0.00000     0.41124    0.00127     0.41251
      H   40    0.09620      0.00000     0.40250    0.00129     0.40380
      H   41    0.09001      0.00000     0.40886    0.00113     0.40999
      H   42    0.11066      0.00000     0.38784    0.00150     0.38934
 =======================================================================
   * Total *   -0.00000     16.99359    47.78714    0.21927    65.00000

 Normal termination of Gaussian 16 at Fri Dec 11 14:40:38 2020.
