 Gaussian 16, Revision A.03,

 -----------------------------------------------------------
 # opt freq B3LYP/6-31G(d) empiricaldispersion=gd3bj scf=xqc
 -----------------------------------------------------------

 ------------------------------
 CID_58429754_JID_6968_neutraal
 ------------------------------
 Symbolic Z-matrix:
 Charge =  0 Multiplicity = 1

 SCF Done:  E(RB3LYP) =  -689.791661170     A.U. after   15 cycles
 SCF Done:  E(RB3LYP) =  -689.794254943     A.U. after   12 cycles
 SCF Done:  E(RB3LYP) =  -689.793823370     A.U. after   13 cycles
 SCF Done:  E(RB3LYP) =  -689.795861645     A.U. after   12 cycles
 SCF Done:  E(RB3LYP) =  -689.796490657     A.U. after   11 cycles
 SCF Done:  E(RB3LYP) =  -689.796682258     A.U. after   11 cycles
 SCF Done:  E(RB3LYP) =  -689.796762798     A.U. after   11 cycles
 SCF Done:  E(RB3LYP) =  -689.796786541     A.U. after   10 cycles
 SCF Done:  E(RB3LYP) =  -689.796796120     A.U. after    9 cycles
 SCF Done:  E(RB3LYP) =  -689.796799566     A.U. after    8 cycles
 SCF Done:  E(RB3LYP) =  -689.796800212     A.U. after    8 cycles
 SCF Done:  E(RB3LYP) =  -689.796800302     A.U. after    7 cycles
 Optimization completed.
    -- Stationary point found.
 Normal termination of Gaussian 16 at Fri Dec 11 01:16:26 2020.

 --------------------------------------------------------------------
 #N Geom=AllCheck Guess=TCheck SCRF=Check GenChk RB3LYP/6-31G(d) Freq
 --------------------------------------------------------------------

 Structure from the checkpoint file:  "JID_6968.chk"
 ------------------------------
 CID_58429754_JID_6968_neutraal
 ------------------------------
 Charge =  0 Multiplicity = 1

 SCF Done:  E(RB3LYP) =  -689.796800302     A.U. after    1 cycles

  Exact polarizability: 227.860   1.642 159.664  -5.394   5.149  84.531
 Approx polarizability: 342.914  -1.167 256.544 -15.121  11.335 132.644

                      1                      2                      3
                      A                      A                      A
 Frequencies --     34.8567                61.2481                81.7629
 Red. masses --      3.6159                 2.8930                 3.2080
 Frc consts  --      0.0026                 0.0064                 0.0126
 IR Inten    --      0.1965                 0.2228                 0.4805

                      4                      5                      6
                      A                      A                      A
 Frequencies --    108.2591               139.3215               190.3756
 Red. masses --      4.5566                 3.8796                 4.7709
 Frc consts  --      0.0315                 0.0444                 0.1019
 IR Inten    --      4.6285                 0.2394                 6.2977

                      7                      8                      9
                      A                      A                      A
 Frequencies --    223.1127               240.8612               271.7956
 Red. masses --      3.3103                 2.0062                 1.2695
 Frc consts  --      0.0971                 0.0686                 0.0553
 IR Inten    --      1.6150                 0.0695                 0.0940

                     10                     11                     12
                      A                      A                      A
 Frequencies --    284.5174               292.5512               336.7591
 Red. masses --      3.9160                 1.1644                 2.5891
 Frc consts  --      0.1868                 0.0587                 0.1730
 IR Inten    --      5.2726                 0.4170                 0.3993

                     13                     14                     15
                      A                      A                      A
 Frequencies --    357.0905               378.3620               426.4410
 Red. masses --      3.3914                 2.3155                 4.0813
 Frc consts  --      0.2548                 0.1953                 0.4373
 IR Inten    --     12.0904                 0.4901                 2.2253

                     16                     17                     18
                      A                      A                      A
 Frequencies --    435.9209               468.3085               472.4355
 Red. masses --      3.9724                 3.3561                 3.2575
 Frc consts  --      0.4448                 0.4337                 0.4284
 IR Inten    --      0.9740                 2.6719                 7.9081

                     19                     20                     21
                      A                      A                      A
 Frequencies --    517.0311               522.2359               549.1885
 Red. masses --      4.0564                 3.0191                 3.6354
 Frc consts  --      0.6389                 0.4851                 0.6460
 IR Inten    --      3.8219                 0.7671                 2.5345

                     22                     23                     24
                      A                      A                      A
 Frequencies --    566.9343               589.5375               607.1500
 Red. masses --      2.0542                 2.4279                 2.9166
 Frc consts  --      0.3890                 0.4972                 0.6335
 IR Inten    --     61.2154                10.6575                21.6927

                     25                     26                     27
                      A                      A                      A
 Frequencies --    638.4300               670.5888               717.4739
 Red. masses --      3.6490                 1.9452                 2.1835
 Frc consts  --      0.8763                 0.5154                 0.6622
 IR Inten    --     41.7039                75.9249               189.2713

                     28                     29                     30
                      A                      A                      A
 Frequencies --    731.1397               742.4732               777.6374
 Red. masses --      1.9381                 1.6652                 3.1181
 Frc consts  --      0.6104                 0.5408                 1.1110
 IR Inten    --     10.2587                16.3433                 4.1496

                     31                     32                     33
                      A                      A                      A
 Frequencies --    787.8705               806.9401               837.3794
 Red. masses --      2.6487                 2.3527                 3.3429
 Frc consts  --      0.9687                 0.9026                 1.3811
 IR Inten    --      2.5815                14.5963                36.4024

                     34                     35                     36
                      A                      A                      A
 Frequencies --    863.5531               902.2563               913.4500
 Red. masses --      1.3817                 1.6265                 2.5409
 Frc consts  --      0.6071                 0.7801                 1.2491
 IR Inten    --     43.1098                 3.5322                 5.8434

                     37                     38                     39
                      A                      A                      A
 Frequencies --    935.2431               946.0814               952.3937
 Red. masses --      2.7425                 1.3497                 1.2810
 Frc consts  --      1.4134                 0.7118                 0.6846
 IR Inten    --     35.8205                 1.8052                 1.0725

                     40                     41                     42
                      A                      A                      A
 Frequencies --    973.4589               974.8250               984.5028
 Red. masses --      1.6631                 1.4046                 2.0112
 Frc consts  --      0.9285                 0.7864                 1.1485
 IR Inten    --      4.0770                 2.9232                18.8837

                     43                     44                     45
                      A                      A                      A
 Frequencies --   1041.2869              1100.1717              1154.3495
 Red. masses --      3.6375                 2.8771                 1.9704
 Frc consts  --      2.3238                 2.0518                 1.5469
 IR Inten    --     88.8625                 0.9387                47.1731

                     46                     47                     48
                      A                      A                      A
 Frequencies --   1161.3471              1174.1287              1196.8765
 Red. masses --      2.4304                 1.9781                 1.3951
 Frc consts  --      1.9313                 1.6067                 1.1775
 IR Inten    --      4.2587               113.4920                 2.2594

                     49                     50                     51
                      A                      A                      A
 Frequencies --   1200.9944              1210.9161              1217.1962
 Red. masses --      1.4119                 1.2951                 1.7841
 Frc consts  --      1.1999                 1.1189                 1.5574
 IR Inten    --     15.1622                 4.3741                 7.1451

                     52                     53                     54
                      A                      A                      A
 Frequencies --   1261.8222              1269.0678              1327.1992
 Red. masses --      1.6280                 2.4313                 2.8704
 Frc consts  --      1.5272                 2.3070                 2.9790
 IR Inten    --     35.4232                67.2072                11.1834

                     55                     56                     57
                      A                      A                      A
 Frequencies --   1345.9303              1353.7840              1382.5684
 Red. masses --      4.2917                 3.2613                 1.3683
 Frc consts  --      4.5806                 3.5216                 1.5410
 IR Inten    --      7.8318                16.0494                 5.9285

                     58                     59                     60
                      A                      A                      A
 Frequencies --   1409.3150              1417.7837              1429.9878
 Red. masses --      2.6351                 1.3008                 1.3282
 Frc consts  --      3.0837                 1.5406                 1.6002
 IR Inten    --    114.2135                12.5896                16.5363

                     61                     62                     63
                      A                      A                      A
 Frequencies --   1446.5473              1454.2855              1487.0073
 Red. masses --      1.2470                 1.2551                 1.2957
 Frc consts  --      1.5373                 1.5640                 1.6881
 IR Inten    --     29.0926                 0.7251                 4.8909

                     64                     65                     66
                      A                      A                      A
 Frequencies --   1500.5034              1508.0215              1515.8725
 Red. masses --      2.2008                 2.4944                 1.0514
 Frc consts  --      2.9195                 3.3421                 1.4235
 IR Inten    --      7.4427                49.4080                 1.6332

                     67                     68                     69
                      A                      A                      A
 Frequencies --   1521.2733              1531.4018              1545.5375
 Red. masses --      1.0872                 1.0534                 1.0569
 Frc consts  --      1.4825                 1.4555                 1.4874
 IR Inten    --      0.3117                 2.9200                10.7620

                     70                     71                     72
                      A                      A                      A
 Frequencies --   1610.1694              1636.3816              1655.1139
 Red. masses --      2.7977                 2.0575                 4.9096
 Frc consts  --      4.2736                 3.2461                 7.9242
 IR Inten    --     84.3372                63.3408                11.7986

                     73                     74                     75
                      A                      A                      A
 Frequencies --   1676.4455              1717.4030              2989.7052
 Red. masses --      4.9763                 5.2316                 1.0720
 Frc consts  --      8.2401                 9.0913                 5.6455
 IR Inten    --    442.9104                17.8478                18.8211

                     76                     77                     78
                      A                      A                      A
 Frequencies --   3057.5787              3064.0835              3070.3888
 Red. masses --      1.0358                 1.0361                 1.0864
 Frc consts  --      5.7056                 5.7311                 6.0346
 IR Inten    --     11.3094                15.6439                23.7748

                     79                     80                     81
                      A                      A                      A
 Frequencies --   3102.5892              3124.2307              3131.8658
 Red. masses --      1.0895                 1.1012                 1.1015
 Frc consts  --      6.1794                 6.3332                 6.3657
 IR Inten    --     17.3106                 5.7025                51.8908

                     82                     83                     84
                      A                      A                      A
 Frequencies --   3142.0487              3152.4968              3179.2502
 Red. masses --      1.1035                 1.1031                 1.0588
 Frc consts  --      6.4187                 6.4594                 6.3056
 IR Inten    --     29.7215                 5.8275                 5.5745

                     85                     86                     87
                      A                      A                      A
 Frequencies --   3187.8975              3204.5455              3238.2118
 Red. masses --      1.0870                 1.0939                 1.0925
 Frc consts  --      6.5088                 6.6188                 6.7499
 IR Inten    --      4.2293                22.4529                10.1692

                     88                     89                     90
                      A                      A                      A
 Frequencies --   3266.1619              3539.4998              3658.7051
 Red. masses --      1.1174                 1.0457                 1.1013
 Frc consts  --      7.0232                 7.7184                 8.6859
 IR Inten    --     10.7075                55.5052                80.8491

 - Thermochemistry -
 -------------------
 Temperature   298.150 Kelvin.  Pressure   1.00000 Atm.
 Atom     1 has atomic number  6 and mass  12.00000

 Molecular mass:   216.12626 amu.
 Principal axes and moments of inertia in atomic units:
                           1         2         3
     Eigenvalues --  1880.314434472.686085801.75039
           X            0.99992  -0.01202   0.00460
           Y            0.01201   0.99993   0.00019
           Z           -0.00460  -0.00013   0.99999
 This molecule is an asymmetric top.
 Rotational symmetry number  1.
 Warning -- assumption of classical behavior for rotation
           may cause significant error
 Rotational temperatures (Kelvin)      0.04606     0.01937     0.01493
 Rotational constants (GHZ):           0.95981     0.40350     0.31107
 Zero-point vibrational energy     711070.5 (Joules/Mol)
                                  169.94993 (Kcal/Mol)
 Warning -- explicit consideration of  24 degrees of freedom as
           vibrations may cause significant error
 Vibrational temperatures:     50.15    88.12   117.64   155.76   200.45
          (Kelvin)            273.91   321.01   346.55   391.05   409.36
                              420.92   484.52   513.77   544.38   613.55
                              627.19   673.79   679.73   743.89   751.38
                              790.16   815.69   848.21   873.55   918.56
                              964.83  1032.28  1051.95  1068.25  1118.85
                             1133.57  1161.01  1204.80  1242.46  1298.15
                             1314.25  1345.61  1361.20  1370.28  1400.59
                             1402.56  1416.48  1498.18  1582.90  1660.85
                             1670.92  1689.31  1722.04  1727.96  1742.24
                             1751.27  1815.48  1825.91  1909.54  1936.49
                             1947.79  1989.21  2027.69  2039.87  2057.43
                             2081.26  2092.39  2139.47  2158.89  2169.71
                             2181.00  2188.77  2203.35  2223.68  2316.67
                             2354.39  2381.34  2412.03  2470.96  4301.52
                             4399.17  4408.53  4417.60  4463.93  4495.07
                             4506.06  4520.71  4535.74  4574.23  4586.67
                             4610.63  4659.06  4699.28  5092.55  5264.06

 Zero-point correction=                           0.270832 (Hartree/Particle)
 Thermal correction to Energy=                    0.285272
 Thermal correction to Enthalpy=                  0.286216
 Thermal correction to Gibbs Free Energy=         0.229815
 Sum of electronic and zero-point Energies=           -689.525968
 Sum of electronic and thermal Energies=              -689.511529
 Sum of electronic and thermal Enthalpies=            -689.510584
 Sum of electronic and thermal Free Energies=         -689.566986

                     E (Thermal)             CV                S
                      KCal/Mol        Cal/Mol-Kelvin    Cal/Mol-Kelvin
 Total                  179.011             58.066            118.707
 Electronic               0.000              0.000              0.000
 Translational            0.889              2.981             42.015
 Rotational               0.889              2.981             32.256
 Vibrational            177.233             52.104             44.435
 Vibration     1          0.594              1.983              5.532
 Vibration     2          0.597              1.973              4.417
 Vibration     3          0.600              1.962              3.848
 Vibration     4          0.606              1.943              3.300
 Vibration     5          0.615              1.914              2.813
 Vibration     6          0.634              1.853              2.224
 Vibration     7          0.649              1.806              1.934
 Vibration     8          0.658              1.778              1.797
 Vibration     9          0.675              1.725              1.585
 Vibration    10          0.683              1.702              1.506
 Vibration    11          0.688              1.688              1.459
 Vibration    12          0.717              1.602              1.227
 Vibration    13          0.732              1.561              1.135
 Vibration    14          0.749              1.516              1.046
 Vibration    15          0.788              1.413              0.870
 Vibration    16          0.796              1.392              0.840
 Vibration    17          0.825              1.320              0.742
 Vibration    18          0.829              1.311              0.731
 Vibration    19          0.872              1.212              0.617
 Vibration    20          0.877              1.201              0.605
 Vibration    21          0.904              1.141              0.546
 Vibration    22          0.923              1.103              0.510
 Vibration    23          0.947              1.054              0.468
 Vibration    24          0.966              1.017              0.438

 Optimization completed.
    -- Stationary point found.
 Normal termination of Gaussian 16 at Fri Dec 11 01:27:05 2020.

 ----------------------------------------------------------------------
 # B3LYP/6-311++G(d,p) empiricaldispersion=gd3bj scf=xqc pop=npa geom=c
 heck
 ----------------------------------------------------------------------

 --------------------------------------
 CID_58429754_JID_6968_Energie_neutraal
 --------------------------------------
 Structure from the checkpoint file:  "JID_6968.chk"
 Charge =  0 Multiplicity = 1

 SCF Done:  E(RB3LYP) =  -689.985400406     A.U. after   16 cycles
 Normal termination of Gaussian 16 at Fri Dec 11 01:31:35 2020.

 ----------------------------------------------------------------------
 # B3LYP/6-311++G(d,p) empiricaldispersion=gd3bj scf=xqc pop=npa geom=c
 heck
 ----------------------------------------------------------------------

 ------------------------------------
 CID_58429754_JID_6968_Energie_kation
 ------------------------------------
 Structure from the checkpoint file:  "JID_6968.chk"
 Charge =  1 Multiplicity = 2

 SCF Done:  E(UB3LYP) =  -689.717710551     A.U. after   22 cycles
 Normal termination of Gaussian 16 at Fri Dec 11 01:39:56 2020.
 Gaussian 16:  ES64L-G16RevA.03 25-Dec-2016

 ----------------------------------------------------------------------
 # B3LYP/6-311++G(d,p) empiricaldispersion=gd3bj scf=xqc pop=npa geom=c
 heck
 ----------------------------------------------------------------------

 -----------------------------------
 CID_58429754_JID_6968_Energie_anion
 -----------------------------------
 Structure from the checkpoint file:  "JID_6968.chk"
 Charge = -1 Multiplicity = 2

                         Standard orientation:
 ---------------------------------------------------------------------
 Center     Atomic      Atomic             Coordinates (Angstroms)
 Number     Number       Type             X           Y           Z
 ---------------------------------------------------------------------
      1          6           0        4.118953   -0.022243   -0.095179
      2          6           0        2.908767   -0.934803    0.078697
      3          6           0        2.415086   -0.999472    1.519541
      4          8           0        1.840580   -0.591667   -0.863027
      5          6           0        0.957458    0.410302   -0.505881
      6          6           0        1.376783    1.741590   -0.579431
      7          6           0        0.509790    2.771179   -0.226835
      8          6           0       -0.783653    2.474976    0.199170
      9          6           0       -1.223531    1.154736    0.242753
     10          6           0       -0.365762    0.097377   -0.126954
     11          6           0       -0.975255   -1.263753   -0.174402
     12          7           0       -2.252322   -1.487943   -0.140601
     13          6           0       -3.141874   -0.436475    0.073571
     14          6           0       -4.433918   -0.565211   -0.267789
     15          6           0       -2.600678    0.802879    0.748012
     16          7           0       -0.143138   -2.356134   -0.288092
     17          1           0        3.933019    0.974088    0.316961
     18          1           0        4.379109    0.074074   -1.153689
     19          1           0        4.978428   -0.447439    0.435416
     20          1           0        3.183406   -1.942104   -0.252371
     21          1           0        2.135985   -0.006292    1.885451
     22          1           0        1.549748   -1.661771    1.605066
     23          1           0        3.217394   -1.383290    2.158849
     24          1           0        2.377581    1.955304   -0.933914
     25          1           0        0.843266    3.803154   -0.287808
     26          1           0       -1.462869    3.272190    0.488032
     27          1           0       -4.798301   -1.492802   -0.695924
     28          1           0       -5.139159    0.246857   -0.125158
     29          1           0       -2.521571    0.600914    1.829348
     30          1           0       -3.286751    1.647675    0.637095
     31          1           0        0.728351   -2.186623   -0.774459
     32          1           0       -0.647047   -3.198553   -0.539459
 ---------------------------------------------------------------------

 SCF Done:  E(UB3LYP) =  -689.985874382     A.U. after   33 cycles
 SCF Done:  E(UB3LYP) =  -689.985874381     a.u. after    1 cycles

 The electronic state is 2-A.
 Alpha  occ. eigenvalues --  -19.01964 -14.17793 -14.13486 -10.12451 -10.09609
 Alpha  occ. eigenvalues --  -10.09274 -10.06201 -10.06175 -10.05271 -10.04681
 Alpha  occ. eigenvalues --  -10.04480 -10.03919 -10.03830 -10.03680 -10.03475
 Alpha  occ. eigenvalues --  -10.00580  -0.93225  -0.81601  -0.74419  -0.72145
 Alpha  occ. eigenvalues --   -0.68131  -0.64542  -0.62432  -0.60485  -0.59034
 Alpha  occ. eigenvalues --   -0.54993  -0.51485  -0.49103  -0.46654  -0.44236
 Alpha  occ. eigenvalues --   -0.40843  -0.38756  -0.38129  -0.36620  -0.35918
 Alpha  occ. eigenvalues --   -0.34836  -0.33745  -0.32659  -0.31325  -0.30127
 Alpha  occ. eigenvalues --   -0.29898  -0.29297  -0.28527  -0.27032  -0.26557
 Alpha  occ. eigenvalues --   -0.26022  -0.24899  -0.24281  -0.24147  -0.23277
 Alpha  occ. eigenvalues --   -0.21542  -0.20806  -0.16494  -0.16276  -0.12706
 Alpha  occ. eigenvalues --   -0.11573  -0.10666  -0.07252   0.04643
 Alpha virt. eigenvalues --    0.06456   0.08416   0.08974   0.09230   0.09892
 Alpha virt. eigenvalues --    0.10510   0.10755   0.11488   0.11558   0.12308
 Alpha virt. eigenvalues --    0.12684   0.13006   0.13605   0.13964   0.14114

  Beta  occ. eigenvalues --  -19.01961 -14.17737 -14.13333 -10.12425 -10.09482
  Beta  occ. eigenvalues --  -10.09059 -10.06182 -10.06170 -10.05263 -10.04695
  Beta  occ. eigenvalues --  -10.04309 -10.03958 -10.03884 -10.03523 -10.03171
  Beta  occ. eigenvalues --  -10.00468  -0.93166  -0.81278  -0.74208  -0.71855
  Beta  occ. eigenvalues --   -0.68058  -0.64318  -0.62041  -0.60282  -0.58997
  Beta  occ. eigenvalues --   -0.54853  -0.51300  -0.48612  -0.46377  -0.44110
  Beta  occ. eigenvalues --   -0.40682  -0.38642  -0.38036  -0.36503  -0.35767
  Beta  occ. eigenvalues --   -0.34747  -0.33598  -0.32520  -0.31173  -0.30006
  Beta  occ. eigenvalues --   -0.29708  -0.29151  -0.28411  -0.26889  -0.26428
  Beta  occ. eigenvalues --   -0.25909  -0.24554  -0.24057  -0.23825  -0.22943
  Beta  occ. eigenvalues --   -0.21304  -0.20334  -0.16251  -0.15913  -0.11481
  Beta  occ. eigenvalues --   -0.10976  -0.10344  -0.06333
  Beta virt. eigenvalues --    0.06942   0.08422   0.08994   0.09261   0.09434
  Beta virt. eigenvalues --    0.09945   0.10638   0.10862   0.11531   0.11711
  Beta virt. eigenvalues --    0.12484   0.12615   0.13070   0.13744   0.14069

 Mulliken charges and spin densities:
               1          2
     1  C    0.096659  -0.736806
     2  C    0.037500   0.141106
     3  C   -0.435592  -0.180673
     4  O   -0.109955  -0.010061
     5  C   -1.052036   0.070789
     6  C    0.159807  -0.008554
     7  C   -0.428732   0.221790
     8  C   -0.260327  -0.019657
     9  C    0.565137   0.094959
    10  C    1.746535   0.028353
    11  C   -1.101037   0.100922
    12  N   -0.107585   0.081175
    13  C    0.339689  -0.057959
    14  C   -0.538727   0.122986
    15  C   -0.877182   0.029114
    16  N   -0.310742   0.036168
    17  H    0.079313   0.068444
    18  H    0.094516   0.065651
    19  H   -0.211727   0.335082
    20  H   -0.274362   0.437513
    21  H    0.148786  -0.003275
    22  H    0.161945   0.029148
    23  H   -0.008129   0.142726
    24  H    0.119282   0.005221
    25  H    0.114101  -0.011731
    26  H    0.116332   0.005093
    27  H    0.078722  -0.004334
    28  H    0.097292  -0.004486
    29  H    0.141930   0.036992
    30  H    0.080348   0.003003
    31  H    0.296492  -0.025994
    32  H    0.241747   0.007296
 Sum of Mulliken charges =  -1.00000   1.00000

 Dipole moment (field-independent basis, Debye):
    X=              2.4891    Y=              2.1791    Z=              0.7027  Tot=              3.3820
 Quadrupole moment (field-independent basis, Debye-Ang):
   XX=           -155.3919   YY=           -118.0856   ZZ=           -111.4318
   XY=             -2.0713   XZ=             -2.3884   YZ=              3.7309

 Summary of Natural Population Analysis:

                                       Natural Population
                Natural  -----------------------------------------------
    Atom  No    Charge         Core      Valence    Rydberg      Total
 -----------------------------------------------------------------------
      C    1   -0.29951      0.99964     2.29322    0.00664     3.29951
      C    2    0.06926      0.99955     1.91728    0.01392     2.93074
      C    3   -0.30820      0.99963     2.30252    0.00604     3.30820
      O    4   -0.30875      0.99986     3.29927    0.00961     4.30875
      C    5    0.18483      0.99934     1.80178    0.01404     2.81517
      C    6   -0.14653      0.99951     2.13909    0.00792     3.14653
      C    7   -0.03904      0.99958     2.03101    0.00845     3.03904
      C    8   -0.12910      0.99952     2.12163    0.00795     3.12910
      C    9    0.04165      0.99950     1.94915    0.00970     2.95835
      C   10   -0.05143      0.99939     2.04365    0.00839     3.05143
      C   11    0.26212      0.99956     1.72137    0.01694     2.73788
      N   12   -0.27704      0.99962     2.76408    0.01334     3.77704
      C   13    0.08950      0.99951     1.89869    0.01230     2.91050
      C   14   -0.21552      0.99953     2.20767    0.00833     3.21552
      C   15   -0.21767      0.99956     2.20886    0.00925     3.21767
      N   16   -0.39677      0.99970     2.88797    0.00911     3.89677
      H   17    0.10028      0.00000     0.39869    0.00102     0.39972
      H   18    0.10197      0.00000     0.39711    0.00093     0.39803
      H   19    0.09939      0.00000     0.39959    0.00101     0.40061
      H   20    0.08614      0.00000     0.41228    0.00158     0.41386
      H   21    0.10429      0.00000     0.39490    0.00081     0.39571
      H   22    0.11557      0.00000     0.38319    0.00125     0.38443
      H   23    0.09861      0.00000     0.40066    0.00074     0.40139
      H   24    0.09698      0.00000     0.40152    0.00150     0.40302
      H   25    0.08719      0.00000     0.41142    0.00139     0.41281
      H   26    0.09155      0.00000     0.40717    0.00128     0.40845
      H   27    0.09139      0.00000     0.40739    0.00121     0.40861
      H   28    0.08333      0.00000     0.41583    0.00084     0.41667
      H   29    0.10607      0.00000     0.39223    0.00170     0.39393
      H   30    0.10022      0.00000     0.39859    0.00118     0.39978
      H   31    0.19566      0.00000     0.30217    0.00217     0.30434
      H   32    0.18355      0.00000     0.31424    0.00221     0.31645
 =======================================================================
   * Total *    0.00000     15.99301    41.82425    0.18274    58.00000

 Normal termination of Gaussian 16 at Fri Dec 11 01:52:11 2020.
