 Gaussian 16, Revision A.03,

 -----------------------------------------------------------
 # opt freq B3LYP/6-31G(d) empiricaldispersion=gd3bj scf=xqc
 -----------------------------------------------------------

 -----------------------------
 CID_15324859_JID_961_neutraal
 -----------------------------
 Symbolic Z-matrix:
 Charge =  0 Multiplicity = 1

 SCF Done:  E(RB3LYP) =  -821.381972463     A.U. after   15 cycles
 SCF Done:  E(RB3LYP) =  -821.385782790     A.U. after   12 cycles
 SCF Done:  E(RB3LYP) =  -821.386154810     A.U. after   12 cycles
 SCF Done:  E(RB3LYP) =  -821.386304723     A.U. after   11 cycles
 SCF Done:  E(RB3LYP) =  -821.386380996     A.U. after   11 cycles
 SCF Done:  E(RB3LYP) =  -821.386496039     A.U. after   12 cycles
 SCF Done:  E(RB3LYP) =  -821.386543414     A.U. after   11 cycles
 SCF Done:  E(RB3LYP) =  -821.386581059     A.U. after   11 cycles
 SCF Done:  E(RB3LYP) =  -821.386633197     A.U. after   11 cycles
 SCF Done:  E(RB3LYP) =  -821.386666261     A.U. after   11 cycles
 SCF Done:  E(RB3LYP) =  -821.387215354     A.U. after   10 cycles
 SCF Done:  E(RB3LYP) =  -821.387219054     A.U. after    9 cycles
 SCF Done:  E(RB3LYP) =  -821.387220068     A.U. after    9 cycles
 SCF Done:  E(RB3LYP) =  -821.387220530     A.U. after    8 cycles
 SCF Done:  E(RB3LYP) =  -821.387220732     A.U. after    8 cycles
 SCF Done:  E(RB3LYP) =  -821.387220811     A.U. after    7 cycles
 Optimization completed.
    -- Stationary point found.
 Normal termination of Gaussian 16 at Tue Dec  8 13:38:38 2020.

 --------------------------------------------------------------------
 #N Geom=AllCheck Guess=TCheck SCRF=Check GenChk RB3LYP/6-31G(d) Freq
 --------------------------------------------------------------------

 Structure from the checkpoint file:  "JID_961.chk"
 -----------------------------
 CID_15324859_JID_961_neutraal
 -----------------------------
 Charge =  0 Multiplicity = 1

 SCF Done:  E(RB3LYP) =  -821.387220811     A.U. after    1 cycles

  Exact polarizability: 125.430  -3.275 101.158   1.327  -0.063  57.079
 Approx polarizability: 178.488  -4.831 165.763   8.762   0.451  87.544

                      1                      2                      3
                      A                      A                      A
 Frequencies --     36.6530                75.5727               117.5530
 Red. masses --      2.8513                 2.7322                 3.0151
 Frc consts  --      0.0023                 0.0092                 0.0245
 IR Inten    --      5.6214                 3.9607                 0.6652

                      4                      5                      6
                      A                      A                      A
 Frequencies --    129.1744               161.5359               193.9823
 Red. masses --      1.0645                 1.1180                 1.8559
 Frc consts  --      0.0105                 0.0172                 0.0411
 IR Inten    --      0.0310                 0.3972                 1.0931

                      7                      8                      9
                      A                      A                      A
 Frequencies --    202.6560               211.4714               260.1995
 Red. masses --      3.1684                 1.8551                 3.1121
 Frc consts  --      0.0767                 0.0489                 0.1241
 IR Inten    --      1.4367                 2.1905                 1.2530

                     10                     11                     12
                      A                      A                      A
 Frequencies --    284.8932               346.7259               380.2378
 Red. masses --      4.0478                 5.4449                 5.1549
 Frc consts  --      0.1936                 0.3857                 0.4391
 IR Inten    --      1.3366                 1.4161                 5.4627

                     13                     14                     15
                      A                      A                      A
 Frequencies --    471.5901               510.6132               532.2010
 Red. masses --      6.3992                 3.9216                 7.1802
 Frc consts  --      0.8385                 0.6024                 1.1982
 IR Inten    --      6.8834                 7.7473                 8.7125

                     16                     17                     18
                      A                      A                      A
 Frequencies --    571.4651               654.3171               672.1019
 Red. masses --      5.3235                 5.0305                 1.5577
 Frc consts  --      1.0243                 1.2689                 0.4146
 IR Inten    --      1.7857                 0.4091                15.9038

                     19                     20                     21
                      A                      A                      A
 Frequencies --    735.4135               854.7371               859.0769
 Red. masses --      4.1949                 4.3185                 3.1845
 Frc consts  --      1.3367                 1.8588                 1.3847
 IR Inten    --     10.6135                 8.6135                 4.6585

                     22                     23                     24
                      A                      A                      A
 Frequencies --   1025.4511              1051.6887              1060.4083
 Red. masses --      4.8861                 2.0527                 5.7031
 Frc consts  --      3.0272                 1.3377                 3.7784
 IR Inten    --     57.9499                 9.6126                19.1464

                     25                     26                     27
                      A                      A                      A
 Frequencies --   1075.7370              1171.0086              1183.5661
 Red. masses --      1.4180                 3.0055                 1.2918
 Frc consts  --      0.9668                 2.4282                 1.0661
 IR Inten    --      2.8220               228.6948                 8.0535

                     28                     29                     30
                      A                      A                      A
 Frequencies --   1187.4854              1188.3800              1217.2427
 Red. masses --      1.3436                 1.4176                 1.5639
 Frc consts  --      1.1163                 1.1795                 1.3653
 IR Inten    --      1.9300                16.8043                 5.8539

                     31                     32                     33
                      A                      A                      A
 Frequencies --   1234.7228              1297.8198              1423.8416
 Red. masses --      1.7211                 4.7902                 3.6253
 Frc consts  --      1.5460                 4.7537                 4.3303
 IR Inten    --     84.0686               132.7250               161.9467

                     34                     35                     36
                      A                      A                      A
 Frequencies --   1439.3541              1487.4260              1504.4263
 Red. masses --      1.3283                 1.3368                 1.2733
 Frc consts  --      1.6214                 1.7425                 1.6979
 IR Inten    --      2.9951                 8.2069                 5.1467

                     37                     38                     39
                      A                      A                      A
 Frequencies --   1514.7784              1516.1196              1517.4076
 Red. masses --      1.0743                 1.0518                 1.0542
 Frc consts  --      1.4524                 1.4244                 1.4301
 IR Inten    --      6.5869                 5.8960                 8.7341

                     40                     41                     42
                      A                      A                      A
 Frequencies --   1526.9589              1532.1019              1537.2666
 Red. masses --      1.0778                 1.0488                 1.0610
 Frc consts  --      1.4806                 1.4505                 1.4773
 IR Inten    --      3.1665                30.1963                11.1473

                     43                     44                     45
                      A                      A                      A
 Frequencies --   1566.9357              1650.0063              3029.5820
 Red. masses --      3.9764                 7.9314                 1.0329
 Frc consts  --      5.7523                12.7225                 5.5856
 IR Inten    --     24.1892               132.0567                46.7009

                     46                     47                     48
                      A                      A                      A
 Frequencies --   3030.5839              3038.4287              3089.5218
 Red. masses --      1.0345                 1.0447                 1.1063
 Frc consts  --      5.5982                 5.6824                 6.2214
 IR Inten    --     45.3493                44.2903                43.7499

                     49                     50                     51
                      A                      A                      A
 Frequencies --   3092.1342              3100.1603              3137.4974
 Red. masses --      1.1063                 1.0901                 1.1028
 Frc consts  --      6.2320                 6.1729                 6.3963
 IR Inten    --     32.5390                18.2439                11.6796

                     52                     53                     54
                      A                      A                      A
 Frequencies --   3149.8446              3166.4610              3287.1559
 Red. masses --      1.1018                 1.1005                 1.0944
 Frc consts  --      6.4407                 6.5014                 6.9675
 IR Inten    --     35.0034                21.7674                 1.7147

 - Thermochemistry -
 -------------------
 Temperature   298.150 Kelvin.  Pressure   1.00000 Atm.
 Atom     1 has atomic number  6 and mass  12.00000

 Molecular mass:   158.04015 amu.
 Principal axes and moments of inertia in atomic units:
                           1         2         3
     Eigenvalues --   852.653202210.337092927.36898
           X            0.99991  -0.00338  -0.01279
           Y            0.00334   0.99999  -0.00317
           Z            0.01280   0.00312   0.99991
 This molecule is an asymmetric top.
 Rotational symmetry number  1.
 Warning -- assumption of classical behavior for rotation
           may cause significant error
 Rotational temperatures (Kelvin)      0.10158     0.03919     0.02959
 Rotational constants (GHZ):           2.11662     0.81650     0.61651
 Zero-point vibrational energy     420449.5 (Joules/Mol)
                                  100.48985 (Kcal/Mol)
 Warning -- explicit consideration of  16 degrees of freedom as
           vibrations may cause significant error
 Vibrational temperatures:     52.74   108.73   169.13   185.85   232.41
          (Kelvin)            279.10   291.58   304.26   374.37   409.90
                              498.86   547.08   678.51   734.66   765.72
                              822.21   941.42   967.00  1058.10  1229.78
                             1236.02  1475.40  1513.15  1525.69  1547.75
                             1684.82  1702.89  1708.53  1709.81  1751.34
                             1776.49  1867.27  2048.59  2070.91  2140.07
                             2164.53  2179.43  2181.36  2183.21  2196.95
                             2204.35  2211.78  2254.47  2373.99  4358.89
                             4360.33  4371.62  4445.13  4448.89  4460.44
                             4514.16  4531.92  4555.83  4729.48

 Zero-point correction=                           0.160141 (Hartree/Particle)
 Thermal correction to Energy=                    0.171512
 Thermal correction to Enthalpy=                  0.172457
 Thermal correction to Gibbs Free Energy=         0.122368
 Sum of electronic and zero-point Energies=           -821.227080
 Sum of electronic and thermal Energies=              -821.215708
 Sum of electronic and thermal Enthalpies=            -821.214764
 Sum of electronic and thermal Free Energies=         -821.264853

                     E (Thermal)             CV                S
                      KCal/Mol        Cal/Mol-Kelvin    Cal/Mol-Kelvin
 Total                  107.626             39.750            105.420
 Electronic               0.000              0.000              0.000
 Translational            0.889              2.981             41.082
 Rotational               0.889              2.981             30.090
 Vibrational            105.848             33.788             34.248
 Vibration     1          0.594              1.982              5.432
 Vibration     2          0.599              1.965              4.003
 Vibration     3          0.608              1.935              3.140
 Vibration     4          0.612              1.924              2.958
 Vibration     5          0.622              1.890              2.532
 Vibration     6          0.635              1.848              2.189
 Vibration     7          0.639              1.836              2.109
 Vibration     8          0.643              1.823              2.031
 Vibration     9          0.668              1.745              1.660
 Vibration    10          0.683              1.702              1.504
 Vibration    11          0.725              1.582              1.181
 Vibration    12          0.750              1.512              1.038
 Vibration    13          0.829              1.313              0.733
 Vibration    14          0.866              1.226              0.632
 Vibration    15          0.887              1.179              0.582
 Vibration    16          0.928              1.093              0.501

 Optimization completed.
    -- Stationary point found.
 Normal termination of Gaussian 16 at Tue Dec  8 13:42:15 2020.

 ----------------------------------------------------------------------
 # B3LYP/6-311++G(d,p) empiricaldispersion=gd3bj scf=xqc pop=npa geom=c
 heck
 ----------------------------------------------------------------------

 -------------------------------------
 CID_15324859_JID_961_Energie_neutraal
 -------------------------------------
 Structure from the checkpoint file:  "JID_961.chk"
 Charge =  0 Multiplicity = 1

 SCF Done:  E(RB3LYP) =  -821.534467270     A.U. after   14 cycles
 Normal termination of Gaussian 16 at Tue Dec  8 13:45:21 2020.

 ----------------------------------------------------------------------
 # B3LYP/6-311++G(d,p) empiricaldispersion=gd3bj scf=xqc pop=npa geom=c
 heck
 ----------------------------------------------------------------------

 -----------------------------------
 CID_15324859_JID_961_Energie_kation
 -----------------------------------
 Structure from the checkpoint file:  "JID_961.chk"
 Charge =  1 Multiplicity = 2

 SCF Done:  E(UB3LYP) =  -821.254536116     A.U. after   22 cycles
 Normal termination of Gaussian 16 at Tue Dec  8 13:50:53 2020.
 Gaussian 16:  ES64L-G16RevA.03 25-Dec-2016

 ----------------------------------------------------------------------
 # B3LYP/6-311++G(d,p) empiricaldispersion=gd3bj scf=xqc pop=npa geom=c
 heck
 ----------------------------------------------------------------------

 ----------------------------------
 CID_15324859_JID_961_Energie_anion
 ----------------------------------
 Structure from the checkpoint file:  "JID_961.chk"
 Charge = -1 Multiplicity = 2

                         Standard orientation:
 ---------------------------------------------------------------------
 Center     Atomic      Atomic             Coordinates (Angstroms)
 Number     Number       Type             X           Y           Z
 ---------------------------------------------------------------------
      1          6           0       -0.651856    2.169730   -0.241541
      2          6           0       -0.282517    0.718805   -0.145083
      3          6           0        0.990125    0.248484    0.031766
      4         16           0        1.073994   -1.513314    0.050491
      5          6           0       -0.652289   -1.616131   -0.181502
      6          6           0       -1.211781   -0.374204   -0.265828
      7          8           0       -2.549851   -0.178418   -0.507099
      8          6           0       -3.299604    0.172959    0.654943
      9          8           0        2.072431    1.043418    0.201477
     10          6           0        3.353955    0.436898    0.092505
     11          1           0       -1.522004    2.294320   -0.893898
     12          1           0       -0.904755    2.599344    0.737076
     13          1           0        0.178757    2.754290   -0.647720
     14          1           0       -1.141314   -2.573991   -0.276749
     15          1           0       -3.247567   -0.623594    1.408454
     16          1           0       -2.939186    1.108507    1.101408
     17          1           0       -4.333860    0.303206    0.328497
     18          1           0        3.506785   -0.305157    0.887315
     19          1           0        3.481725   -0.045656   -0.884533
     20          1           0        4.080677    1.242517    0.205700
 ---------------------------------------------------------------------

 SCF Done:  E(UB3LYP) =  -821.516878627     A.U. after   30 cycles

 The electronic state is 2-A.
 Alpha  occ. eigenvalues --  -88.77556 -19.06423 -19.04294 -10.15256 -10.12636
 Alpha  occ. eigenvalues --  -10.12206 -10.11711 -10.08693 -10.07327 -10.06754
 Alpha  occ. eigenvalues --   -7.86165  -5.82472  -5.82121  -5.81704  -0.97990
 Alpha  occ. eigenvalues --   -0.95789  -0.77256  -0.67254  -0.64264  -0.61455
 Alpha  occ. eigenvalues --   -0.57180  -0.56449  -0.47197  -0.45318  -0.41073
 Alpha  occ. eigenvalues --   -0.39025  -0.37645  -0.36423  -0.36205  -0.34728
 Alpha  occ. eigenvalues --   -0.31723  -0.31529  -0.30012  -0.28309  -0.27265
 Alpha  occ. eigenvalues --   -0.26938  -0.25268  -0.23310  -0.21967  -0.18207
 Alpha  occ. eigenvalues --   -0.14020  -0.10772   0.04704
 Alpha virt. eigenvalues --    0.06203   0.07706   0.08712   0.09053   0.09624
 Alpha virt. eigenvalues --    0.09763   0.10342   0.11085   0.11786   0.12008
 Alpha virt. eigenvalues --    0.12462   0.13217   0.14194   0.15126   0.15998

  Beta  occ. eigenvalues --  -88.77550 -19.06415 -19.04290 -10.15256 -10.12637
  Beta  occ. eigenvalues --  -10.12142 -10.11663 -10.08675 -10.07326 -10.06732
  Beta  occ. eigenvalues --   -7.86157  -5.82466  -5.82114  -5.81696  -0.97974
  Beta  occ. eigenvalues --   -0.95778  -0.77241  -0.67228  -0.64221  -0.61384
  Beta  occ. eigenvalues --   -0.57122  -0.56398  -0.47142  -0.45287  -0.41042
  Beta  occ. eigenvalues --   -0.38999  -0.37607  -0.36366  -0.36159  -0.34692
  Beta  occ. eigenvalues --   -0.31692  -0.31489  -0.29975  -0.28278  -0.27229
  Beta  occ. eigenvalues --   -0.26902  -0.25236  -0.23280  -0.21929  -0.18190
  Beta  occ. eigenvalues --   -0.14003  -0.10730
  Beta virt. eigenvalues --    0.06998   0.07769   0.08010   0.09131   0.09370
  Beta virt. eigenvalues --    0.10114   0.10700   0.11213   0.11596   0.11904
  Beta virt. eigenvalues --    0.12237   0.12664   0.13466   0.14377   0.15278

 Mulliken charges and spin densities:
               1          2
     1  C    0.815487  -1.608886
     2  C   -0.213519   0.761371
     3  C   -0.489854   0.665691
     4  S    0.464885  -0.805533
     5  C   -0.463854   0.646477
     6  C   -0.171639  -0.452450
     7  O   -0.221671   0.060554
     8  C    0.971173  -1.273941
     9  O   -0.170869   0.094607
    10  C    1.571934  -1.851392
    11  H   -0.002494   0.190347
    12  H   -0.003357   0.165234
    13  H   -0.052894   0.215316
    14  H   -0.151691   0.397594
    15  H   -0.262402   0.398082
    16  H   -0.317246   0.459075
    17  H   -0.384420   0.536441
    18  H   -0.579744   0.732840
    19  H   -0.463329   0.627452
    20  H   -0.874495   1.041122
 Sum of Mulliken charges =  -1.00000   1.00000

 Dipole moment (field-independent basis, Debye):
    X=             -2.5638    Y=             -2.3082    Z=             -1.1124  Tot=              3.6247
 Quadrupole moment (field-independent basis, Debye-Ang):
   XX=           -157.1445   YY=            -99.1735   ZZ=            -96.2769
   XY=             -3.7019   XZ=              1.3701   YZ=             -0.6916

 Summary of Natural Population Analysis:

                                       Natural Population
                Natural  -----------------------------------------------
    Atom  No    Charge         Core      Valence    Rydberg      Total
 -----------------------------------------------------------------------
      C    1   -0.29135      0.99963     2.28641    0.00531     3.29135
      C    2   -0.09411      0.99938     2.08311    0.01162     3.09411
      C    3    0.09073      0.99933     1.89292    0.01702     2.90927
      S    4    0.17497      4.99944     2.80570    0.01989     7.82503
      C    5   -0.22303      0.99946     2.21267    0.01089     3.22303
      C    6    0.13954      0.99928     1.84664    0.01454     2.86046
      O    7   -0.28929      0.99986     3.27869    0.01074     4.28929
      C    8   -0.09496      0.99959     2.08603    0.00934     3.09496
      O    9   -0.27038      0.99985     3.25802    0.01252     4.27038
      C   10   -0.10253      0.99959     2.09336    0.00958     3.10253
      H   11    0.10574      0.00000     0.39284    0.00141     0.39426
      H   12    0.10316      0.00000     0.39514    0.00170     0.39684
      H   13    0.10881      0.00000     0.38963    0.00157     0.39119
      H   14    0.11133      0.00000     0.38762    0.00105     0.38867
      H   15    0.08235      0.00000     0.41567    0.00198     0.41765
      H   16    0.08345      0.00000     0.41457    0.00198     0.41655
      H   17    0.09094      0.00000     0.40715    0.00191     0.40906
      H   18    0.08740      0.00000     0.40979    0.00281     0.41260
      H   19    0.08779      0.00000     0.40948    0.00273     0.41221
      H   20    0.09947      0.00000     0.39724    0.00330     0.40053
 =======================================================================
   * Total *    0.00000     13.99542    27.86268    0.14190    42.00000

 Normal termination of Gaussian 16 at Tue Dec  8 13:56:16 2020.
