 Gaussian 16, Revision A.03,

 -----------------------------------------------------------
 # opt freq B3LYP/6-31G(d) empiricaldispersion=gd3bj scf=xqc
 -----------------------------------------------------------

 ------------------------------
 CID_83874475_JID_3598_neutraal
 ------------------------------
 Symbolic Z-matrix:
 Charge =  0 Multiplicity = 1

 SCF Done:  E(RB3LYP) =  -553.181450750     A.U. after   15 cycles
 SCF Done:  E(RB3LYP) =  -553.186601315     A.U. after   12 cycles
 SCF Done:  E(RB3LYP) =  -553.186572551     A.U. after   13 cycles
 SCF Done:  E(RB3LYP) =  -553.188617448     A.U. after   12 cycles
 SCF Done:  E(RB3LYP) =  -553.188953093     A.U. after   11 cycles
 SCF Done:  E(RB3LYP) =  -553.189109967     A.U. after   11 cycles
 SCF Done:  E(RB3LYP) =  -553.189159207     A.U. after   10 cycles
 SCF Done:  E(RB3LYP) =  -553.189199448     A.U. after   10 cycles
 SCF Done:  E(RB3LYP) =  -553.189218816     A.U. after   10 cycles
 SCF Done:  E(RB3LYP) =  -553.189231830     A.U. after    9 cycles
 SCF Done:  E(RB3LYP) =  -553.189440110     A.U. after   10 cycles
 SCF Done:  E(RB3LYP) =  -553.189442594     A.U. after   10 cycles
 SCF Done:  E(RB3LYP) =  -553.189442990     A.U. after    9 cycles
 SCF Done:  E(RB3LYP) =  -553.189443014     A.U. after    6 cycles
 SCF Done:  E(RB3LYP) =  -553.189443024     A.U. after    6 cycles
 Optimization completed.
    -- Stationary point found.
 Normal termination of Gaussian 16 at Wed Dec  9 23:43:56 2020.

 --------------------------------------------------------------------
 #N Geom=AllCheck Guess=TCheck SCRF=Check GenChk RB3LYP/6-31G(d) Freq
 --------------------------------------------------------------------

 Structure from the checkpoint file:  "JID_3598.chk"
 ------------------------------
 CID_83874475_JID_3598_neutraal
 ------------------------------
 Charge =  0 Multiplicity = 1

 SCF Done:  E(RB3LYP) =  -553.189443024     A.U. after    1 cycles

  Exact polarizability: 158.338   4.197 152.033  -5.438  -1.084  65.150
 Approx polarizability: 240.251  18.560 264.946 -15.505  -3.201  99.375

                      1                      2                      3
                      A                      A                      A
 Frequencies --     38.0757                61.1570               116.0881
 Red. masses --      1.0249                 3.1104                 2.1759
 Frc consts  --      0.0009                 0.0069                 0.0173
 IR Inten    --      0.0925                 0.3240                 1.7102

                      4                      5                      6
                      A                      A                      A
 Frequencies --    146.6494               166.0480               171.3098
 Red. masses --      1.7108                 1.7466                 2.3833
 Frc consts  --      0.0217                 0.0284                 0.0412
 IR Inten    --      1.7868                 0.1756                 0.6728

                      7                      8                      9
                      A                      A                      A
 Frequencies --    204.3995               233.4907               240.4895
 Red. masses --      1.8175                 2.5211                 2.3834
 Frc consts  --      0.0447                 0.0810                 0.0812
 IR Inten    --      0.6551                 4.5653                 1.3084

                     10                     11                     12
                      A                      A                      A
 Frequencies --    293.2512               327.4524               346.8872
 Red. masses --      2.7026                 4.1645                 3.6520
 Frc consts  --      0.1369                 0.2631                 0.2589
 IR Inten    --      3.2690                 1.3710                 1.1088

                     13                     14                     15
                      A                      A                      A
 Frequencies --    385.5609               494.4890               546.7334
 Red. masses --      3.1006                 5.2517                 4.1743
 Frc consts  --      0.2716                 0.7566                 0.7352
 IR Inten    --      3.0540                 1.9398                 0.3316

                     16                     17                     18
                      A                      A                      A
 Frequencies --    552.5001               588.8651               621.1410
 Red. masses --      4.1527                 3.3307                 4.5030
 Frc consts  --      0.7469                 0.6805                 1.0236
 IR Inten    --      3.0141                 4.1925                 1.0071

                     19                     20                     21
                      A                      A                      A
 Frequencies --    654.0513               676.9452               691.7953
 Red. masses --      4.6747                 5.7173                 5.1538
 Frc consts  --      1.1782                 1.5437                 1.4532
 IR Inten    --      0.5017                 2.2349                 8.1873

                     22                     23                     24
                      A                      A                      A
 Frequencies --    724.4760               772.7534               779.6504
 Red. masses --      2.4127                 2.5458                 1.7823
 Frc consts  --      0.7461                 0.8957                 0.6383
 IR Inten    --      4.5694                49.3213                35.9929

                     25                     26                     27
                      A                      A                      A
 Frequencies --    795.0453               853.6215               933.5233
 Red. masses --      2.0183                 1.4135                 3.3915
 Frc consts  --      0.7516                 0.6068                 1.7414
 IR Inten    --     37.9070                 2.0901                 6.9526

                     28                     29                     30
                      A                      A                      A
 Frequencies --    950.3615              1001.7800              1037.9347
 Red. masses --      1.2510                 1.6458                 2.3181
 Frc consts  --      0.6657                 0.9732                 1.4713
 IR Inten    --      0.3601                 5.0966                 3.8043

                     31                     32                     33
                      A                      A                      A
 Frequencies --   1062.8600              1073.0847              1075.7800
 Red. masses --      2.5445                 1.5228                 1.9114
 Frc consts  --      1.6936                 1.0332                 1.3033
 IR Inten    --     36.0028                 4.5430                 1.4227

                     34                     35                     36
                      A                      A                      A
 Frequencies --   1077.1379              1116.9971              1155.0353
 Red. masses --      1.4780                 2.7650                 2.2025
 Frc consts  --      1.0103                 2.0326                 1.7312
 IR Inten    --      1.0475                14.0321                24.6089

                     37                     38                     39
                      A                      A                      A
 Frequencies --   1161.3442              1186.8464              1218.6366
 Red. masses --      1.3434                 1.3532                 2.2723
 Frc consts  --      1.0675                 1.1231                 1.9882
 IR Inten    --     22.2988                 6.5988                14.9409

                     40                     41                     42
                      A                      A                      A
 Frequencies --   1294.1537              1331.0824              1340.5338
 Red. masses --      1.8440                 3.4180                 4.8964
 Frc consts  --      1.8197                 3.5681                 5.1843
 IR Inten    --     20.9966                13.1544                10.9714

                     43                     44                     45
                      A                      A                      A
 Frequencies --   1394.4495              1419.5255              1439.2099
 Red. masses --      3.8775                 2.5330                 1.2734
 Frc consts  --      4.4423                 3.0073                 1.5541
 IR Inten    --     25.6370                42.9795                 2.0585

                     46                     47                     48
                      A                      A                      A
 Frequencies --   1441.8345              1469.1104              1481.0544
 Red. masses --      1.2963                 1.7108                 1.6449
 Frc consts  --      1.5878                 2.1754                 2.1259
 IR Inten    --      2.8044                12.1632                 5.1231

                     49                     50                     51
                      A                      A                      A
 Frequencies --   1504.3045              1506.0300              1510.4426
 Red. masses --      1.2372                 1.0457                 1.2167
 Frc consts  --      1.6495                 1.3974                 1.6354
 IR Inten    --      6.9477                 3.3999                15.1433

                     52                     53                     54
                      A                      A                      A
 Frequencies --   1512.5661              1523.0722              1525.1604
 Red. masses --      1.4335                 1.0854                 1.1604
 Frc consts  --      1.9322                 1.4835                 1.5903
 IR Inten    --      0.7461                 7.9963                 2.6615

                     55                     56                     57
                      A                      A                      A
 Frequencies --   1546.7095              1549.4884              1587.2939
 Red. masses --      1.1011                 2.8142                 5.9344
 Frc consts  --      1.5520                 3.9810                 8.8093
 IR Inten    --      3.2186                 4.4630                33.5689

                     58                     59                     60
                      A                      A                      A
 Frequencies --   1609.0931              1695.3539              3011.5407
 Red. masses --      4.9315                 6.2702                 1.0524
 Frc consts  --      7.5231                10.6182                 5.6238
 IR Inten    --      1.0828                65.1629                74.1728

                     61                     62                     63
                      A                      A                      A
 Frequencies --   3042.6158              3065.9260              3096.1678
 Red. masses --      1.0383                 1.0386                 1.0987
 Frc consts  --      5.6632                 5.7521                 6.2056
 IR Inten    --     52.6200                32.2367                21.2336

                     64                     65                     66
                      A                      A                      A
 Frequencies --   3109.2917              3122.4303              3123.7802
 Red. masses --      1.0838                 1.0974                 1.1015
 Frc consts  --      6.1732                 6.3038                 6.3329
 IR Inten    --     29.2239                16.9822                19.3345

                     67                     68                     69
                      A                      A                      A
 Frequencies --   3157.0621              3158.4484              3197.3371
 Red. masses --      1.1028                 1.1026                 1.0875
 Frc consts  --      6.4759                 6.4807                 6.5504
 IR Inten    --     22.6216                 2.6608                11.4571

                     70                     71                     72
                      A                      A                      A
 Frequencies --   3208.7111              3223.6686              3535.4558
 Red. masses --      1.0892                 1.0970                 1.0742
 Frc consts  --      6.6074                 6.7166                 7.9106
 IR Inten    --      8.4282                15.9784                 5.1598

 - Thermochemistry -
 -------------------
 Temperature   298.150 Kelvin.  Pressure   1.00000 Atm.
 Atom     1 has atomic number  6 and mass  12.00000

 Molecular mass:   175.11095 amu.
 Principal axes and moments of inertia in atomic units:
                           1         2         3
     Eigenvalues --  1528.167732291.096113593.78797
           X            0.99913  -0.04141   0.00443
           Y            0.04140   0.99914   0.00135
           Z           -0.00448  -0.00117   0.99999
 This molecule is an asymmetric top.
 Rotational symmetry number  1.
 Warning -- assumption of classical behavior for rotation
           may cause significant error
 Rotational temperatures (Kelvin)      0.05668     0.03780     0.02410
 Rotational constants (GHZ):           1.18098     0.78772     0.50218
 Zero-point vibrational energy     575805.4 (Joules/Mol)
                                  137.62080 (Kcal/Mol)
 Warning -- explicit consideration of  17 degrees of freedom as
           vibrations may cause significant error
 Vibrational temperatures:     54.78    87.99   167.02   211.00   238.91
          (Kelvin)            246.48   294.09   335.94   346.01   421.92
                              471.13   499.09   554.74   711.46   786.63
                              794.92   847.25   893.68   941.03   973.97
                              995.34  1042.36  1111.82  1121.74  1143.89
                             1228.17  1343.13  1367.36  1441.34  1493.36
                             1529.22  1543.93  1547.81  1549.76  1607.11
                             1661.84  1670.92  1707.61  1753.35  1862.00
                             1915.13  1928.73  2006.30  2042.38  2070.70
                             2074.48  2113.72  2130.91  2164.36  2166.84
                             2173.19  2176.25  2191.36  2194.37  2225.37
                             2229.37  2283.76  2315.13  2439.24  4332.94
                             4377.65  4411.18  4454.69  4473.58  4492.48
                             4494.42  4542.31  4544.30  4600.25  4616.62
                             4638.14  5086.73

 Zero-point correction=                           0.219313 (Hartree/Particle)
 Thermal correction to Energy=                    0.231655
 Thermal correction to Enthalpy=                  0.232599
 Thermal correction to Gibbs Free Energy=         0.180573
 Sum of electronic and zero-point Energies=           -552.970130
 Sum of electronic and thermal Energies=              -552.957788
 Sum of electronic and thermal Enthalpies=            -552.956844
 Sum of electronic and thermal Free Energies=         -553.008870

                     E (Thermal)             CV                S
                      KCal/Mol        Cal/Mol-Kelvin    Cal/Mol-Kelvin
 Total                  145.366             46.557            109.499
 Electronic               0.000              0.000              0.000
 Translational            0.889              2.981             41.388
 Rotational               0.889              2.981             30.910
 Vibrational            143.588             40.595             37.201
 Vibration     1          0.594              1.982              5.357
 Vibration     2          0.597              1.973              4.420
 Vibration     3          0.608              1.936              3.164
 Vibration     4          0.617              1.906              2.715
 Vibration     5          0.624              1.884              2.480
 Vibration     6          0.626              1.878              2.421
 Vibration     7          0.640              1.834              2.093
 Vibration     8          0.654              1.790              1.852
 Vibration     9          0.658              1.778              1.799
 Vibration    10          0.688              1.686              1.455
 Vibration    11          0.711              1.621              1.273
 Vibration    12          0.725              1.582              1.180
 Vibration    13          0.754              1.501              1.017
 Vibration    14          0.850              1.262              0.672
 Vibration    15          0.902              1.147              0.551
 Vibration    16          0.908              1.134              0.539
 Vibration    17          0.946              1.056              0.469

 Optimization completed.
    -- Stationary point found.
 Normal termination of Gaussian 16 at Wed Dec  9 23:51:10 2020.

 ----------------------------------------------------------------------
 # B3LYP/6-311++G(d,p) empiricaldispersion=gd3bj scf=xqc pop=npa geom=c
 heck
 ----------------------------------------------------------------------

 --------------------------------------
 CID_83874475_JID_3598_Energie_neutraal
 --------------------------------------
 Structure from the checkpoint file:  "JID_3598.chk"
 Charge =  0 Multiplicity = 1

 SCF Done:  E(RB3LYP) =  -553.336163471     A.U. after   15 cycles
 Normal termination of Gaussian 16 at Wed Dec  9 23:54:26 2020.

 ----------------------------------------------------------------------
 # B3LYP/6-311++G(d,p) empiricaldispersion=gd3bj scf=xqc pop=npa geom=c
 heck
 ----------------------------------------------------------------------

 ------------------------------------
 CID_83874475_JID_3598_Energie_kation
 ------------------------------------
 Structure from the checkpoint file:  "JID_3598.chk"
 Charge =  1 Multiplicity = 2

 SCF Done:  E(UB3LYP) =  -553.087557035     A.U. after   20 cycles
 Normal termination of Gaussian 16 at Thu Dec 10 00:00:33 2020.
 Gaussian 16:  ES64L-G16RevA.03 25-Dec-2016

 ----------------------------------------------------------------------
 # B3LYP/6-311++G(d,p) empiricaldispersion=gd3bj scf=xqc pop=npa geom=c
 heck
 ----------------------------------------------------------------------

 -----------------------------------
 CID_83874475_JID_3598_Energie_anion
 -----------------------------------
 Structure from the checkpoint file:  "JID_3598.chk"
 Charge = -1 Multiplicity = 2

                         Standard orientation:
 ---------------------------------------------------------------------
 Center     Atomic      Atomic             Coordinates (Angstroms)
 Number     Number       Type             X           Y           Z
 ---------------------------------------------------------------------
      1          6           0       -3.564620   -0.324167    0.335347
      2          6           0       -2.089452   -0.450790    0.129356
      3          6           0       -1.145825    0.563503    0.045474
      4          6           0       -1.182700    1.979888    0.025772
      5          6           0       -0.028635    2.687941   -0.158026
      6          6           0        1.216177    1.993691   -0.268813
      7          6           0        1.282788    0.629498   -0.249619
      8          7           0        0.098871   -0.099395   -0.141817
      9          6           0       -0.179373   -1.454908   -0.191776
     10          7           0       -1.478920   -1.662321   -0.022251
     11          6           0        0.785715   -2.555350   -0.491366
     12          7           0        2.478314   -0.114989   -0.313935
     13          6           0        3.002515   -0.521961    1.000670
     14          1           0       -3.887115    0.720046    0.269661
     15          1           0       -3.867703   -0.706959    1.318202
     16          1           0       -4.113398   -0.899306   -0.418796
     17          1           0       -2.141940    2.473636    0.139979
     18          1           0       -0.039518    3.772421   -0.189500
     19          1           0        2.146818    2.548996   -0.332757
     20          1           0        1.523495   -2.717019    0.301761
     21          1           0        0.196176   -3.468482   -0.599769
     22          1           0        1.341488   -2.371221   -1.414612
     23          1           0        3.179579    0.426535   -0.810474
     24          1           0        3.857318   -1.188815    0.855062
     25          1           0        3.308795    0.332893    1.623011
     26          1           0        2.228606   -1.069864    1.542143
 ---------------------------------------------------------------------

 SCF Done:  E(UB3LYP) =  -553.327614493     A.U. after   33 cycles
 SCF Done:  E(UB3LYP) =  -553.327614493     a.u. after    1 cycles

 The electronic state is 2-A.
 Alpha  occ. eigenvalues --  -14.26088 -14.20200 -14.17628 -10.12040 -10.11088
 Alpha  occ. eigenvalues --  -10.08730 -10.07985 -10.06913 -10.06572 -10.05910
 Alpha  occ. eigenvalues --  -10.05773 -10.05510 -10.05128  -0.90825  -0.82189
 Alpha  occ. eigenvalues --   -0.76781  -0.70327  -0.66113  -0.63397  -0.61726
 Alpha  occ. eigenvalues --   -0.56804  -0.54662  -0.52599  -0.47866  -0.45873
 Alpha  occ. eigenvalues --   -0.40202  -0.38903  -0.37136  -0.35919  -0.35114
 Alpha  occ. eigenvalues --   -0.33624  -0.32806  -0.31291  -0.30950  -0.29364
 Alpha  occ. eigenvalues --   -0.28741  -0.28543  -0.27479  -0.27091  -0.26096
 Alpha  occ. eigenvalues --   -0.25083  -0.22009  -0.19001  -0.15945  -0.14911
 Alpha  occ. eigenvalues --   -0.13075  -0.06905   0.04674
 Alpha virt. eigenvalues --    0.07409   0.07822   0.08101   0.09162   0.09429
 Alpha virt. eigenvalues --    0.10033   0.11111   0.11400   0.11598   0.12163
 Alpha virt. eigenvalues --    0.12630   0.12994   0.14142   0.14824   0.15132

  Beta  occ. eigenvalues --  -14.26036 -14.20195 -14.17583 -10.11851 -10.11103
  Beta  occ. eigenvalues --  -10.08750 -10.07908 -10.06881 -10.06572 -10.05898
  Beta  occ. eigenvalues --  -10.05729 -10.05363 -10.05111  -0.90713  -0.82026
  Beta  occ. eigenvalues --   -0.76685  -0.70176  -0.66029  -0.63210  -0.61707
  Beta  occ. eigenvalues --   -0.56666  -0.54587  -0.52410  -0.47785  -0.45770
  Beta  occ. eigenvalues --   -0.40065  -0.38810  -0.37011  -0.35802  -0.34936
  Beta  occ. eigenvalues --   -0.33548  -0.32697  -0.31250  -0.30900  -0.29318
  Beta  occ. eigenvalues --   -0.28712  -0.28424  -0.27400  -0.27047  -0.26034
  Beta  occ. eigenvalues --   -0.25004  -0.21646  -0.18460  -0.15883  -0.14677
  Beta  occ. eigenvalues --   -0.12874  -0.06519
  Beta virt. eigenvalues --    0.07196   0.07965   0.08459   0.08996   0.09738
  Beta virt. eigenvalues --    0.10014   0.10448   0.11301   0.11494   0.12004
  Beta virt. eigenvalues --    0.12280   0.12841   0.13198   0.14574   0.14920

 Mulliken charges and spin densities:
               1          2
     1  C   -0.498045   0.128794
     2  C   -0.145926  -0.375888
     3  C    1.387926  -0.249696
     4  C   -1.017990   0.576826
     5  C   -0.151807  -0.308005
     6  C    1.038004  -1.178322
     7  C   -0.563129   0.295162
     8  N    0.111855   0.005132
     9  C   -0.180524   0.152893
    10  N   -0.019222   0.019765
    11  C   -0.275840  -0.296460
    12  N   -0.493260   0.375757
    13  C    1.162931  -1.513289
    14  H    0.105686   0.018857
    15  H    0.091941   0.053462
    16  H    0.136253   0.001359
    17  H    0.027327   0.063056
    18  H   -0.133069   0.289935
    19  H   -0.530578   0.681338
    20  H    0.062380   0.068527
    21  H    0.074751   0.083329
    22  H    0.124225   0.062380
    23  H   -0.395110   0.681664
    24  H   -0.640275   0.807455
    25  H   -0.280626   0.417551
    26  H    0.002121   0.138418
 Sum of Mulliken charges =  -1.00000   1.00000

 Dipole moment (field-independent basis, Debye):
    X=             -7.4629    Y=             -0.6472    Z=              0.2095  Tot=              7.4939
 Quadrupole moment (field-independent basis, Debye-Ang):
   XX=           -142.7067   YY=           -114.8648   ZZ=           -100.6985
   XY=             -6.5703   XZ=              0.6701   YZ=              2.9809

 Summary of Natural Population Analysis:

                                       Natural Population
                Natural  -----------------------------------------------
    Atom  No    Charge         Core      Valence    Rydberg      Total
 -----------------------------------------------------------------------
      C    1   -0.29224      0.99964     2.28759    0.00500     3.29224
      C    2    0.04788      0.99950     1.94002    0.01260     2.95212
      C    3    0.05174      0.99948     1.93865    0.01013     2.94826
      C    4   -0.09018      0.99953     2.08248    0.00817     3.09018
      C    5   -0.10004      0.99957     2.08835    0.01211     3.10004
      C    6   -0.14546      0.99951     2.13599    0.00996     3.14546
      C    7    0.22549      0.99948     1.76147    0.01356     2.77451
      N    8   -0.19082      0.99957     2.68302    0.00823     3.69082
      C    9    0.17846      0.99963     1.80694    0.01497     2.82154
      N   10   -0.25175      0.99968     2.74208    0.00999     3.75175
      C   11   -0.30404      0.99963     2.29850    0.00591     3.30404
      N   12   -0.34030      0.99972     2.82632    0.01426     3.84030
      C   13   -0.17440      0.99963     2.16605    0.00872     3.17440
      H   14    0.09850      0.00000     0.40066    0.00085     0.40150
      H   15    0.09851      0.00000     0.39974    0.00176     0.40149
      H   16    0.10037      0.00000     0.39831    0.00132     0.39963
      H   17    0.09894      0.00000     0.40018    0.00088     0.40106
      H   18    0.09745      0.00000     0.40173    0.00083     0.40255
      H   19    0.10649      0.00000     0.39175    0.00176     0.39351
      H   20    0.10333      0.00000     0.39531    0.00136     0.39667
      H   21    0.10665      0.00000     0.39222    0.00113     0.39335
      H   22    0.11047      0.00000     0.38829    0.00124     0.38953
      H   23    0.18815      0.00000     0.30241    0.00944     0.31185
      H   24    0.09867      0.00000     0.39780    0.00353     0.40133
      H   25    0.08686      0.00000     0.41122    0.00192     0.41314
      H   26    0.09127      0.00000     0.40723    0.00150     0.40873
 =======================================================================
   * Total *    0.00000     12.99457    33.84431    0.16113    47.00000

 Normal termination of Gaussian 16 at Thu Dec 10 00:10:35 2020.
