 Gaussian 16, Revision A.03,

 -----------------------------------------------------------
 # opt freq B3LYP/6-31G(d) empiricaldispersion=gd3bj scf=xqc
 -----------------------------------------------------------

 ----------------------------
 CID_357864_JID_2176_neutraal
 ----------------------------
 Symbolic Z-matrix:
 Charge =  0 Multiplicity = 1

 SCF Done:  E(RB3LYP) =  -648.941465635     A.U. after   14 cycles
 SCF Done:  E(RB3LYP) =  -648.946351176     A.U. after   12 cycles
 SCF Done:  E(RB3LYP) =  -648.946635829     A.U. after   12 cycles
 SCF Done:  E(RB3LYP) =  -648.946903027     A.U. after   12 cycles
 SCF Done:  E(RB3LYP) =  -648.947077003     A.U. after   11 cycles
 SCF Done:  E(RB3LYP) =  -648.947097169     A.U. after   11 cycles
 SCF Done:  E(RB3LYP) =  -648.947137347     A.U. after   10 cycles
 SCF Done:  E(RB3LYP) =  -648.947163074     A.U. after   11 cycles
 SCF Done:  E(RB3LYP) =  -648.947170303     A.U. after   10 cycles
 SCF Done:  E(RB3LYP) =  -648.947170966     A.U. after    8 cycles
 SCF Done:  E(RB3LYP) =  -648.947171119     A.U. after    7 cycles
 SCF Done:  E(RB3LYP) =  -648.947171149     A.U. after    7 cycles
 Optimization completed.
    -- Stationary point found.

 1\1\GINC-NODE204\FOpt\RB3LYP\6-31G(d)\C7H10O5\VSC10255\09-Dec-2020\0\\
 # opt freq B3LYP/6-31G(d) empiricaldispersion=gd3bj scf=xqc\\CID_35786
 4_JID_2176_neutraal\\0,1\C,1.0733932397,0.0327295422,0.0711429832\C,0.
 0760897663,1.1677536375,0.1810877277\O,0.3241024791,1.8781457122,1.393
 8083488\C,0.1485172791,3.2622732005,1.1301040722\C,0.3650439773,3.3729
 926126,-0.3755172817\O,0.5581364641,4.365912328,-1.0253381463\O,0.3364
 864202,2.1177412239,-0.8855011718\C,1.1572492168,4.0917912421,1.916632
 6617\C,0.7972467001,5.56163024,1.853847395\O,-0.3323762494,5.997306549

 Normal termination of Gaussian 16 at Wed Dec  9 16:50:36 2020.

 --------------------------------------------------------------------
 #N Geom=AllCheck Guess=TCheck SCRF=Check GenChk RB3LYP/6-31G(d) Freq
 --------------------------------------------------------------------

 Structure from the checkpoint file:  "JID_2176.chk"
 ----------------------------
 CID_357864_JID_2176_neutraal
 ----------------------------
 Charge =  0 Multiplicity = 1

 SCF Done:  E(RB3LYP) =  -648.947171149     A.U. after    1 cycles

  Exact polarizability: 106.294   7.371  70.133  -1.025   0.870  73.085
 Approx polarizability: 131.975  13.405 108.840  -0.664   0.737 113.518

                      1                      2                      3
                      A                      A                      A
 Frequencies --     39.2937                53.2423                72.0969
 Red. masses --      5.3617                 5.6681                 6.0596
 Frc consts  --      0.0049                 0.0095                 0.0186
 IR Inten    --      3.0621                 1.6664                 0.4837

                      4                      5                      6
                      A                      A                      A
 Frequencies --    103.6640               155.7786               210.8531
 Red. masses --      5.8254                 4.5494                 1.0495
 Frc consts  --      0.0369                 0.0650                 0.0275
 IR Inten    --      0.3290                 1.8755                 0.1156

                      7                      8                      9
                      A                      A                      A
 Frequencies --    235.9420               256.2315               285.8897
 Red. masses --      2.4452                 1.3252                 3.3003
 Frc consts  --      0.0802                 0.0513                 0.1589
 IR Inten    --      2.9460                 1.6528                 2.0625

                     10                     11                     12
                      A                      A                      A
 Frequencies --    324.8293               347.2424               401.5173
 Red. masses --      2.9275                 3.1173                 3.5686
 Frc consts  --      0.1820                 0.2215                 0.3390
 IR Inten    --      1.5618                 0.0924                 2.3276

                     13                     14                     15
                      A                      A                      A
 Frequencies --    432.1791               509.8713               515.4120
 Red. masses --      4.8935                 2.6455                 3.7448
 Frc consts  --      0.5385                 0.4052                 0.5861
 IR Inten    --     13.2276                 0.8901                15.7272

                     16                     17                     18
                      A                      A                      A
 Frequencies --    557.3863               613.1474               626.2888
 Red. masses --      2.4847                 4.3239                 4.4962
 Frc consts  --      0.4548                 0.9578                 1.0391
 IR Inten    --     32.6821                57.2703                 0.6171

                     19                     20                     21
                      A                      A                      A
 Frequencies --    675.1334               712.5322               719.5379
 Red. masses --      2.5354                 2.1702                 5.4866
 Frc consts  --      0.6809                 0.6492                 1.6736
 IR Inten    --     49.7696                66.1229                 1.4981

                     22                     23                     24
                      A                      A                      A
 Frequencies --    809.4495               852.3918               908.2127
 Red. masses --      4.4473                 3.7290                 3.5230
 Frc consts  --      1.7168                 1.5963                 1.7121
 IR Inten    --      4.2751                 9.6452                 6.6903

                     25                     26                     27
                      A                      A                      A
 Frequencies --    937.9692               946.8949               994.4010
 Red. masses --      3.8548                 1.5449                 2.1275
 Frc consts  --      1.9982                 0.8161                 1.2395
 IR Inten    --     62.3008                 4.2127                 6.6903

                     28                     29                     30
                      A                      A                      A
 Frequencies --   1019.6492              1026.7196              1061.2172
 Red. masses --      1.6230                 1.8893                 4.3684
 Frc consts  --      0.9942                 1.1734                 2.8986
 IR Inten    --     16.0776                31.8868                12.7927

                     31                     32                     33
                      A                      A                      A
 Frequencies --   1140.5067              1157.4362              1180.2167
 Red. masses --      2.3949                 2.6585                 2.0035
 Frc consts  --      1.8354                 2.0983                 1.6443
 IR Inten    --     33.3179               351.6272                92.6099

                     34                     35                     36
                      A                      A                      A
 Frequencies --   1222.6416              1253.8767              1274.5370
 Red. masses --      1.5361                 2.8983                 3.5349
 Frc consts  --      1.3529                 2.6848                 3.3832
 IR Inten    --     49.6218                69.6980                77.3684

                     37                     38                     39
                      A                      A                      A
 Frequencies --   1297.9626              1308.8054              1360.5193
 Red. masses --      1.6369                 2.1115                 1.5136
 Frc consts  --      1.6248                 2.1310                 1.6507
 IR Inten    --     50.6772               216.6392                17.6776

                     40                     41                     42
                      A                      A                      A
 Frequencies --   1384.3072              1434.2125              1440.2903
 Red. masses --      1.8177                 1.4870                 1.9053
 Frc consts  --      2.0523                 1.8021                 2.3287
 IR Inten    --     71.9027                35.1932                59.1529

                     43                     44                     45
                      A                      A                      A
 Frequencies --   1446.9578              1498.4661              1503.7563
 Red. masses --      1.2730                 1.0971                 1.0454
 Frc consts  --      1.5704                 1.4515                 1.3927
 IR Inten    --     18.9501                 7.6675                 0.0974

                     46                     47                     48
                      A                      A                      A
 Frequencies --   1508.0453              1525.6196              1527.2482
 Red. masses --      1.0523                 1.0688                 1.0523
 Frc consts  --      1.4099                 1.4657                 1.4462
 IR Inten    --      1.5073                 0.9949                 3.9839

                     49                     50                     51
                      A                      A                      A
 Frequencies --   1846.8420              1893.2539              3047.7688
 Red. masses --      9.8140                12.8512                 1.0821
 Frc consts  --     19.7222                27.1400                 5.9221
 IR Inten    --    250.9072               311.7117                 5.9510

                     52                     53                     54
                      A                      A                      A
 Frequencies --   3068.9038              3075.8531              3076.4296
 Red. masses --      1.0350                 1.0648                 1.0354
 Frc consts  --      5.7435                 5.9355                 5.7738
 IR Inten    --      8.6391                 3.4395                 5.3495

                     55                     56                     57
                      A                      A                      A
 Frequencies --   3143.9070              3144.2872              3148.1306
 Red. masses --      1.1003                 1.1019                 1.1039
 Frc consts  --      6.4076                 6.4184                 6.4457
 IR Inten    --      4.5896                19.6159                 0.6326

                     58                     59                     60
                      A                      A                      A
 Frequencies --   3155.3406              3160.2674              3680.9983
 Red. masses --      1.1033                 1.1043                 1.0638
 Frc consts  --      6.4718                 6.4981                 8.4927
 IR Inten    --     22.2915                15.9463                54.4608

 - Thermochemistry -
 -------------------
 Temperature   298.150 Kelvin.  Pressure   1.00000 Atm.
 Atom     1 has atomic number  6 and mass  12.00000

 Molecular mass:   174.05282 amu.
 Principal axes and moments of inertia in atomic units:
                           1         2         3
     Eigenvalues --   873.396633358.550643502.81511
           X            0.99996   0.00610  -0.00588
           Y           -0.00561   0.99677   0.08013
           Z            0.00635  -0.08010   0.99677
 This molecule is an asymmetric top.
 Rotational symmetry number  1.
 Warning -- assumption of classical behavior for rotation
           may cause significant error
 Rotational temperatures (Kelvin)      0.09917     0.02579     0.02473
 Rotational constants (GHZ):           2.06635     0.53736     0.51523
 Zero-point vibrational energy     456449.3 (Joules/Mol)
                                  109.09400 (Kcal/Mol)
 Warning -- explicit consideration of  17 degrees of freedom as
           vibrations may cause significant error
 Vibrational temperatures:     56.53    76.60   103.73   149.15   224.13
          (Kelvin)            303.37   339.47   368.66   411.33   467.36
                              499.60   577.69   621.81   733.59   741.56
                              801.95   882.18   901.09   971.37  1025.17
                             1035.25  1164.62  1226.40  1306.72  1349.53
                             1362.37  1430.72  1467.05  1477.22  1526.85
                             1640.93  1665.29  1698.07  1759.11  1804.05
                             1833.77  1867.48  1883.08  1957.48  1991.71
                             2063.51  2072.26  2081.85  2155.96  2163.57
                             2169.74  2195.03  2197.37  2657.19  2723.97
                             4385.06  4415.47  4425.47  4426.30  4523.38
                             4523.93  4529.46  4539.83  4546.92  5296.14

 Zero-point correction=                           0.173852 (Hartree/Particle)
 Thermal correction to Energy=                    0.185681
 Thermal correction to Enthalpy=                  0.186625
 Thermal correction to Gibbs Free Energy=         0.135058
 Sum of electronic and zero-point Energies=           -648.773319
 Sum of electronic and thermal Energies=              -648.761491
 Sum of electronic and thermal Enthalpies=            -648.760546
 Sum of electronic and thermal Free Energies=         -648.812113

                     E (Thermal)             CV                S
                      KCal/Mol        Cal/Mol-Kelvin    Cal/Mol-Kelvin
 Total                  116.516             43.297            108.531
 Electronic               0.000              0.000              0.000
 Translational            0.889              2.981             41.370
 Rotational               0.889              2.981             30.708
 Vibrational            114.739             37.336             36.453
 Vibration     1          0.594              1.981              5.294
 Vibration     2          0.596              1.976              4.693
 Vibration     3          0.598              1.967              4.095
 Vibration     4          0.605              1.946              3.384
 Vibration     5          0.620              1.896              2.600
 Vibration     6          0.643              1.824              2.036
 Vibration     7          0.655              1.786              1.833
 Vibration     8          0.666              1.752              1.687
 Vibration     9          0.684              1.700              1.498
 Vibration    10          0.709              1.626              1.286
 Vibration    11          0.725              1.581              1.179
 Vibration    12          0.767              1.467              0.957
 Vibration    13          0.793              1.400              0.852
 Vibration    14          0.865              1.228              0.634
 Vibration    15          0.870              1.216              0.621
 Vibration    16          0.913              1.124              0.529
 Vibration    17          0.972              1.004              0.428

 Optimization completed.
    -- Stationary point found.

 1\1\GINC-NODE204\Freq\RB3LYP\6-31G(d)\C7H10O5\VSC10255\09-Dec-2020\0\\
 #N Geom=AllCheck Guess=TCheck SCRF=Check GenChk RB3LYP/6-31G(d) Freq\\
 CID_357864_JID_2176_neutraal\\0,1\C,1.0733932397,0.0327295422,0.071142
 9832\C,0.0760897663,1.1677536375,0.1810877277\O,0.3241024791,1.8781457
 122,1.3938083488\C,0.1485172791,3.2622732005,1.1301040722\C,0.36504397
 73,3.3729926126,-0.3755172817\O,0.5581364641,4.365912328,-1.0253381463
 \O,0.3364864202,2.1177412239,-0.8855011718\C,1.1572492168,4.0917912421
 ,1.9166326617\C,0.7972467001,5.56163024,1.853847395\O,-0.3323762494,5.

 Normal termination of Gaussian 16 at Wed Dec  9 16:55:09 2020.

 ----------------------------------------------------------------------
 # B3LYP/6-311++G(d,p) empiricaldispersion=gd3bj scf=xqc pop=npa geom=c
 heck
 ----------------------------------------------------------------------

 ------------------------------------
 CID_357864_JID_2176_Energie_neutraal
 ------------------------------------
 Structure from the checkpoint file:  "JID_2176.chk"
 Charge =  0 Multiplicity = 1

 SCF Done:  E(RB3LYP) =  -649.148915261     A.U. after   14 cycles
 Normal termination of Gaussian 16 at Wed Dec  9 16:56:54 2020.

 ----------------------------------------------------------------------
 # B3LYP/6-311++G(d,p) empiricaldispersion=gd3bj scf=xqc pop=npa geom=c
 heck
 ----------------------------------------------------------------------

 ----------------------------------
 CID_357864_JID_2176_Energie_kation
 ----------------------------------
 Structure from the checkpoint file:  "JID_2176.chk"
 Charge =  1 Multiplicity = 2

 SCF Done:  E(UB3LYP) =  -648.791445037     A.U. after   24 cycles
 Normal termination of Gaussian 16 at Wed Dec  9 17:01:27 2020.
 Gaussian 16:  ES64L-G16RevA.03 25-Dec-2016

 ---------------------------------
 CID_357864_JID_2176_Energie_anion
 ---------------------------------
 Structure from the checkpoint file:  "JID_2176.chk"
 Charge = -1 Multiplicity = 2

                         Standard orientation:
 ---------------------------------------------------------------------
 Center     Atomic      Atomic             Coordinates (Angstroms)
 Number     Number       Type             X           Y           Z
 ---------------------------------------------------------------------
      1          6           0       -3.036445   -0.570544   -1.143241
      2          6           0       -2.116118   -0.173986   -0.007142
      3          8           0       -1.030572   -1.099002    0.045728
      4          6           0        0.148888   -0.367843    0.346495
      5          6           0       -0.180440    1.050582   -0.106993
      6          8           0        0.577348    1.967535   -0.281333
      7          8           0       -1.516913    1.110067   -0.323459
      8          6           0        1.345141   -0.945419   -0.401606
      9          6           0        2.635263   -0.351314    0.124316
     10          8           0        2.849590   -0.083880    1.285612
     11          8           0        3.550078   -0.188766   -0.854461
     12          6           0       -2.807042   -0.062768    1.345885
     13          1           0       -3.865724    0.136896   -1.228264
     14          1           0       -3.439099   -1.569994   -0.955271
     15          1           0       -2.475669   -0.583766   -2.080963
     16          1           0        0.364536   -0.364727    1.423741
     17          1           0        1.375521   -2.027137   -0.224056
     18          1           0        1.256184   -0.785029   -1.478149
     19          1           0        4.343391    0.184721   -0.425280
     20          1           0       -3.591998    0.698015    1.311884
     21          1           0       -3.252662   -1.025198    1.612950
     22          1           0       -2.086218    0.216344    2.120431
 ---------------------------------------------------------------------

 SCF Done:  E(UB3LYP) =  -649.136877913     A.U. after   30 cycles

 The electronic state is 2-A.
 Alpha  occ. eigenvalues --  -19.07926 -19.07734 -19.05215 -19.02244 -19.02223
 Alpha  occ. eigenvalues --  -10.21737 -10.20985 -10.20244 -10.15322 -10.10152
 Alpha  occ. eigenvalues --  -10.07426 -10.07387  -1.04176  -1.01854  -0.96530
 Alpha  occ. eigenvalues --   -0.93017  -0.92544  -0.73001  -0.68456  -0.61799
 Alpha  occ. eigenvalues --   -0.59598  -0.53522  -0.52128  -0.49416  -0.44141
 Alpha  occ. eigenvalues --   -0.40549  -0.39881  -0.39363  -0.37447  -0.37245
 Alpha  occ. eigenvalues --   -0.36434  -0.33543  -0.32921  -0.32048  -0.31299
 Alpha  occ. eigenvalues --   -0.30857  -0.29860  -0.29666  -0.28258  -0.28098
 Alpha  occ. eigenvalues --   -0.27060  -0.23385  -0.22038  -0.20045  -0.19166
 Alpha  occ. eigenvalues --   -0.17763   0.04362
 Alpha virt. eigenvalues --    0.06046   0.07644   0.08015   0.08036   0.09197
 Alpha virt. eigenvalues --    0.09720   0.10464   0.10956   0.12088   0.12450
 Alpha virt. eigenvalues --    0.13375   0.14128   0.14650   0.16081   0.16292

  Beta  occ. eigenvalues --  -19.07911 -19.07683 -19.05202 -19.02235 -19.02189
  Beta  occ. eigenvalues --  -10.21732 -10.20951 -10.20242 -10.15314 -10.10115
  Beta  occ. eigenvalues --  -10.07384 -10.07334  -1.04142  -1.01788  -0.96487
  Beta  occ. eigenvalues --   -0.92970  -0.92509  -0.72961  -0.68408  -0.61723
  Beta  occ. eigenvalues --   -0.59515  -0.53454  -0.52055  -0.49350  -0.44077
  Beta  occ. eigenvalues --   -0.40488  -0.39838  -0.39325  -0.37397  -0.37198
  Beta  occ. eigenvalues --   -0.36379  -0.33462  -0.32868  -0.31986  -0.31242
  Beta  occ. eigenvalues --   -0.30811  -0.29807  -0.29609  -0.28209  -0.28044
  Beta  occ. eigenvalues --   -0.27031  -0.23352  -0.21934  -0.20013  -0.19130
  Beta  occ. eigenvalues --   -0.17734
  Beta virt. eigenvalues --    0.06777   0.07478   0.08021   0.08510   0.08881
  Beta virt. eigenvalues --    0.10117   0.10205   0.10868   0.11382   0.12514
  Beta virt. eigenvalues --    0.12758   0.13685   0.14386   0.14623   0.16156

 Mulliken charges and spin densities:
               1          2
     1  C    0.601242  -0.847127
     2  C   -1.540239   0.703511
     3  O    0.009968   0.010932
     4  C   -0.544613   0.590337
     5  C    0.544410  -0.337794
     6  O   -0.299903   0.017167
     7  O    0.037696   0.023324
     8  C    1.181308  -1.439495
     9  C    0.051065  -0.225780
    10  O   -0.260049   0.004146
    11  O   -0.187831   0.076985
    12  C    1.444933  -1.608277
    13  H   -0.127417   0.291111
    14  H   -0.257935   0.432469
    15  H   -0.300611   0.469201
    16  H    0.195363   0.061699
    17  H   -0.372457   0.586452
    18  H    0.126009   0.107569
    19  H   -0.395941   0.684562
    20  H   -0.152346   0.326141
    21  H   -0.325694   0.507543
    22  H   -0.426958   0.565323
 Sum of Mulliken charges =  -1.00000   1.00000

 Dipole moment (field-independent basis, Debye):
    X=             -0.2642    Y=              0.3443    Z=             -0.6287  Tot=              0.7640
 Quadrupole moment (field-independent basis, Debye-Ang):
   XX=           -146.9520   YY=           -105.5144   ZZ=           -101.1624
   XY=             -6.3854   XZ=              2.9609   YZ=              1.4632

 Summary of Natural Population Analysis:

                                       Natural Population
                Natural  -----------------------------------------------
    Atom  No    Charge         Core      Valence    Rydberg      Total
 -----------------------------------------------------------------------
      C    1   -0.29749      0.99958     2.29081    0.00710     3.29749
      C    2    0.29278      0.99957     1.68712    0.02053     2.70722
      O    3   -0.30468      0.99987     3.29394    0.01087     4.30468
      C    4    0.01522      0.99951     1.97086    0.01442     2.98478
      C    5    0.40315      0.99965     1.57179    0.02541     2.59685
      O    6   -0.28493      0.99986     3.27902    0.00604     4.28493
      O    7   -0.28061      0.99985     3.27247    0.00829     4.28061
      C    8   -0.24151      0.99956     2.23127    0.01068     3.24151
      C    9    0.40976      0.99972     1.56453    0.02599     2.59024
      O   10   -0.30647      0.99987     3.30036    0.00624     4.30647
      O   11   -0.33935      0.99988     3.33286    0.00662     4.33935
      C   12   -0.30494      0.99958     2.29682    0.00853     3.30494
      H   13    0.10696      0.00000     0.39176    0.00128     0.39304
      H   14    0.11024      0.00000     0.38818    0.00158     0.38976
      H   15    0.10805      0.00000     0.39055    0.00140     0.39195
      H   16    0.10841      0.00000     0.38970    0.00189     0.39159
      H   17    0.12333      0.00000     0.37508    0.00159     0.37667
      H   18    0.11517      0.00000     0.38303    0.00180     0.38483
      H   19    0.24420      0.00000     0.24217    0.01363     0.25580
      H   20    0.10781      0.00000     0.39084    0.00135     0.39219
      H   21    0.11074      0.00000     0.38726    0.00199     0.38926
      H   22    0.10417      0.00000     0.39445    0.00139     0.39583
 =======================================================================
   * Total *   -0.00000     11.99650    33.82485    0.17864    46.00000

 Normal termination of Gaussian 16 at Wed Dec  9 17:09:56 2020.
