 Gaussian 16, Revision A.03,

 -----------------------------------------------------------
 # opt freq B3LYP/6-31G(d) empiricaldispersion=gd3bj scf=xqc
 -----------------------------------------------------------

 ------------------------------
 CID_12364386_JID_1589_neutraal
 ------------------------------
 Symbolic Z-matrix:
 Charge =  0 Multiplicity = 1

 SCF Done:  E(RB3LYP) =  -483.210289027     A.U. after   14 cycles
 SCF Done:  E(RB3LYP) =  -483.213172170     A.U. after   12 cycles
 SCF Done:  E(RB3LYP) =  -483.213494253     A.U. after   10 cycles
 SCF Done:  E(RB3LYP) =  -483.213575802     A.U. after   10 cycles
 SCF Done:  E(RB3LYP) =  -483.213589116     A.U. after   10 cycles
 SCF Done:  E(RB3LYP) =  -483.213594474     A.U. after    8 cycles
 SCF Done:  E(RB3LYP) =  -483.213595920     A.U. after    8 cycles
 SCF Done:  E(RB3LYP) =  -483.213596259     A.U. after    7 cycles
 SCF Done:  E(RB3LYP) =  -483.213596385     A.U. after    7 cycles
 SCF Done:  E(RB3LYP) =  -483.213596420     A.U. after    7 cycles
 Optimization completed.
    -- Stationary point found.
 Normal termination of Gaussian 16 at Tue Dec  8 20:26:17 2020.

 --------------------------------------------------------------------
 #N Geom=AllCheck Guess=TCheck SCRF=Check GenChk RB3LYP/6-31G(d) Freq
 --------------------------------------------------------------------

 Structure from the checkpoint file:  "JID_1589.chk"
 ------------------------------
 CID_12364386_JID_1589_neutraal
 ------------------------------
 Charge =  0 Multiplicity = 1

 SCF Done:  E(RB3LYP) =  -483.213596420     A.U. after    1 cycles

  Exact polarizability: 123.854   3.296 100.854   1.749   0.438  82.408
 Approx polarizability: 143.831   7.727 156.106   4.440   4.662 123.210

                      1                      2                      3
                      A                      A                      A
 Frequencies --     46.1238                85.3425               112.5871
 Red. masses --      3.2391                 2.6442                 3.0666
 Frc consts  --      0.0041                 0.0113                 0.0229
 IR Inten    --      0.2319                 0.6467                 2.0119

                      4                      5                      6
                      A                      A                      A
 Frequencies --    171.8071               202.7229               215.6811
 Red. masses --      2.3825                 1.5858                 2.2234
 Frc consts  --      0.0414                 0.0384                 0.0609
 IR Inten    --      0.5107                 1.6123                 3.9399

                      7                      8                      9
                      A                      A                      A
 Frequencies --    245.7101               259.8638               278.9033
 Red. masses --      1.1156                 1.8336                 2.1307
 Frc consts  --      0.0397                 0.0730                 0.0976
 IR Inten    --      0.6618                 1.2903                 0.9081

                     10                     11                     12
                      A                      A                      A
 Frequencies --    330.4943               346.7152               370.7955
 Red. masses --      2.6517                 2.6572                 2.7690
 Frc consts  --      0.1706                 0.1882                 0.2243
 IR Inten    --      1.1139                 0.2003                 2.2649

                     13                     14                     15
                      A                      A                      A
 Frequencies --    400.7436               462.1754               521.2507
 Red. masses --      2.6641                 2.5853                 2.0139
 Frc consts  --      0.2521                 0.3254                 0.3224
 IR Inten    --      3.0063                 0.2408                 1.5954

                     16                     17                     18
                      A                      A                      A
 Frequencies --    544.4698               611.0130               668.7186
 Red. masses --      2.8346                 2.8488                 3.2017
 Frc consts  --      0.4951                 0.6266                 0.8436
 IR Inten    --      0.3734                 5.6350                21.9324

                     19                     20                     21
                      A                      A                      A
 Frequencies --    750.6189               772.1310               818.1993
 Red. masses --      2.9842                 2.4400                 1.2704
 Frc consts  --      0.9907                 0.8571                 0.5011
 IR Inten    --      1.3013                 6.1623                 0.3458

                     22                     23                     24
                      A                      A                      A
 Frequencies --    871.3685               893.2632               911.5374
 Red. masses --      2.2824                 1.8151                 2.4333
 Frc consts  --      1.0210                 0.8533                 1.1912
 IR Inten    --      2.9520                 7.3968                 3.3797

                     25                     26                     27
                      A                      A                      A
 Frequencies --    956.3122               975.4919               992.1363
 Red. masses --      2.0449                 1.6318                 1.6836
 Frc consts  --      1.1018                 0.9149                 0.9764
 IR Inten    --      1.0491                 0.4556                 2.9682

                     28                     29                     30
                      A                      A                      A
 Frequencies --   1015.6398              1043.0177              1067.2500
 Red. masses --      1.7799                 2.2091                 3.3696
 Frc consts  --      1.0817                 1.4160                 2.2613
 IR Inten    --      1.1294                 7.7223                21.0191

                     31                     32                     33
                      A                      A                      A
 Frequencies --   1085.5107              1113.4600              1132.2389
 Red. masses --      1.8713                 2.8115                 1.9303
 Frc consts  --      1.2992                 2.0537                 1.4580
 IR Inten    --      7.3293                 2.1687                20.3273

                     34                     35                     36
                      A                      A                      A
 Frequencies --   1141.4018              1188.8313              1208.2308
 Red. masses --      2.0567                 1.5861                 1.8556
 Frc consts  --      1.5787                 1.3208                 1.5960
 IR Inten    --      1.8916                 2.3985               178.5933

                     37                     38                     39
                      A                      A                      A
 Frequencies --   1212.5574              1242.2465              1251.2830
 Red. masses --      1.8966                 1.3493                 1.8309
 Frc consts  --      1.6430                 1.2268                 1.6890
 IR Inten    --     11.6768                25.9612               148.2634

                     40                     41                     42
                      A                      A                      A
 Frequencies --   1296.4288              1311.1377              1347.9568
 Red. masses --      1.3761                 1.1506                 1.1439
 Frc consts  --      1.3627                 1.1654                 1.2246
 IR Inten    --     52.8983                 0.8341                11.9977

                     43                     44                     45
                      A                      A                      A
 Frequencies --   1353.9962              1381.7574              1392.8649
 Red. masses --      1.3037                 1.4577                 1.3885
 Frc consts  --      1.4082                 1.6397                 1.5871
 IR Inten    --      1.1707                10.1567                30.4110

                     46                     47                     48
                      A                      A                      A
 Frequencies --   1401.6759              1406.8987              1421.2022
 Red. masses --      1.4194                 1.3811                 1.3910
 Frc consts  --      1.6431                 1.6106                 1.6554
 IR Inten    --      8.0931                22.0071                13.1629

                     49                     50                     51
                      A                      A                      A
 Frequencies --   1422.6005              1442.4750              1443.7971
 Red. masses --      1.4215                 1.2512                 1.3875
 Frc consts  --      1.6950                 1.5339                 1.7041
 IR Inten    --     24.5111                 3.1171                11.0987

                     52                     53                     54
                      A                      A                      A
 Frequencies --   1502.2938              1511.9876              1514.7434
 Red. masses --      1.0919                 1.1015                 1.0445
 Frc consts  --      1.4520                 1.4837                 1.4120
 IR Inten    --      6.4799                 9.2623                 4.1878

                     55                     56                     57
                      A                      A                      A
 Frequencies --   1516.8266              1520.7214              1529.2729
 Red. masses --      1.0788                 1.0860                 1.0649
 Frc consts  --      1.4624                 1.4798                 1.4673
 IR Inten    --      1.8378                 4.5564                 6.8865

                     58                     59                     60
                      A                      A                      A
 Frequencies --   1530.6726              1537.5908              1540.7692
 Red. masses --      1.0593                 1.0678                 1.0533
 Frc consts  --      1.4623                 1.4873                 1.4732
 IR Inten    --      0.9103                10.4770                 2.7602

                     61                     62                     63
                      A                      A                      A
 Frequencies --   1765.0651              3009.7267              3015.4157
 Red. masses --      8.4761                 1.0711                 1.0830
 Frc consts  --     15.5585                 5.7166                 5.8019
 IR Inten    --    201.6022                38.7775                10.6384

                     64                     65                     66
                      A                      A                      A
 Frequencies --   3030.6242              3039.3472              3049.2800
 Red. masses --      1.0601                 1.0393                 1.0675
 Frc consts  --      5.7367                 5.6564                 5.8480
 IR Inten    --     15.2570                28.2898                14.8348

                     67                     68                     69
                      A                      A                      A
 Frequencies --   3050.4746              3057.3506              3060.7527
 Red. masses --      1.0623                 1.0377                 1.0944
 Frc consts  --      5.8241                 5.7149                 6.0404
 IR Inten    --     26.6629                25.5977                50.6314

                     70                     71                     72
                      A                      A                      A
 Frequencies --   3071.5750              3079.7496              3084.2792
 Red. masses --      1.0991                 1.0583                 1.1025
 Frc consts  --      6.1097                 5.9139                 6.1791
 IR Inten    --     62.3615                41.6553                39.0803

                     73                     74                     75
                      A                      A                      A
 Frequencies --   3102.8484              3105.3123              3111.4916
 Red. masses --      1.0988                 1.0964                 1.1026
 Frc consts  --      6.2331                 6.2289                 6.2892
 IR Inten    --     56.6726                12.5309                39.0651

                     76                     77                     78
                      A                      A                      A
 Frequencies --   3118.5538              3132.1616              3158.4404
 Red. masses --      1.1031                 1.1047                 1.1029
 Frc consts  --      6.3208                 6.3852                 6.4825
 IR Inten    --     23.5230                20.7590                27.4359

 - Thermochemistry -
 -------------------
 Temperature   298.150 Kelvin.  Pressure   1.00000 Atm.
 Atom     1 has atomic number  6 and mass  12.00000

 Molecular mass:   155.13101 amu.
 Principal axes and moments of inertia in atomic units:
                           1         2         3
     Eigenvalues --   732.645152995.809083350.62825
           X            0.99993  -0.00884  -0.00747
           Y            0.00881   0.99995  -0.00399
           Z            0.00750   0.00392   0.99996
 This molecule is an asymmetric top.
 Rotational symmetry number  1.
 Warning -- assumption of classical behavior for rotation
           may cause significant error
 Rotational temperatures (Kelvin)      0.11822     0.02891     0.02585
 Rotational constants (GHZ):           2.46332     0.60242     0.53863
 Zero-point vibrational energy     669238.6 (Joules/Mol)
                                  159.95187 (Kcal/Mol)
 Warning -- explicit consideration of  17 degrees of freedom as
           vibrations may cause significant error
 Vibrational temperatures:     66.36   122.79   161.99   247.19   291.67
          (Kelvin)            310.32   353.52   373.89   401.28   475.51
                              498.85   533.49   576.58   664.97   749.96
                              783.37   879.11   962.14  1079.97  1110.92
                             1177.21  1253.70  1285.21  1311.50  1375.92
                             1403.52  1427.46  1461.28  1500.67  1535.53
                             1561.81  1602.02  1629.04  1642.22  1710.46
                             1738.37  1744.60  1787.32  1800.32  1865.27
                             1886.43  1939.41  1948.10  1988.04  2004.02
                             2016.70  2024.21  2044.79  2046.80  2075.40
                             2077.30  2161.47  2175.41  2179.38  2182.38
                             2187.98  2200.28  2202.30  2212.25  2216.82
                             2539.54  4330.33  4338.51  4360.39  4372.94
                             4387.23  4388.95  4398.85  4403.74  4419.31
                             4431.07  4437.59  4464.31  4467.85  4476.74
                             4486.90  4506.48  4544.29

 Zero-point correction=                           0.254900 (Hartree/Particle)
 Thermal correction to Energy=                    0.266439
 Thermal correction to Enthalpy=                  0.267383
 Thermal correction to Gibbs Free Energy=         0.217760
 Sum of electronic and zero-point Energies=           -482.958697
 Sum of electronic and thermal Energies=              -482.947158
 Sum of electronic and thermal Enthalpies=            -482.946213
 Sum of electronic and thermal Free Energies=         -482.995836

                     E (Thermal)             CV                S
                      KCal/Mol        Cal/Mol-Kelvin    Cal/Mol-Kelvin
 Total                  167.193             44.219            104.440
 Electronic               0.000              0.000              0.000
 Translational            0.889              2.981             41.027
 Rotational               0.889              2.981             30.376
 Vibrational            165.415             38.258             33.037
 Vibration     1          0.595              1.979              4.977
 Vibration     2          0.601              1.959              3.764
 Vibration     3          0.607              1.939              3.224
 Vibration     4          0.626              1.877              2.416
 Vibration     5          0.639              1.836              2.108
 Vibration     6          0.645              1.817              1.995
 Vibration     7          0.660              1.770              1.761
 Vibration     8          0.668              1.746              1.663
 Vibration     9          0.679              1.713              1.540
 Vibration    10          0.713              1.615              1.258
 Vibration    11          0.725              1.582              1.181
 Vibration    12          0.743              1.532              1.076
 Vibration    13          0.767              1.469              0.960
 Vibration    14          0.820              1.334              0.760
 Vibration    15          0.876              1.203              0.607
 Vibration    16          0.900              1.152              0.556
 Vibration    17          0.970              1.009              0.431

 Optimization completed.
    -- Stationary point found.
 Normal termination of Gaussian 16 at Tue Dec  8 20:33:07 2020.

 ----------------------------------------------------------------------
 # B3LYP/6-311++G(d,p) empiricaldispersion=gd3bj scf=xqc pop=npa geom=c
 heck
 ----------------------------------------------------------------------

 --------------------------------------
 CID_12364386_JID_1589_Energie_neutraal
 --------------------------------------
 Structure from the checkpoint file:  "JID_1589.chk"
 Charge =  0 Multiplicity = 1

 SCF Done:  E(RB3LYP) =  -483.348179248     A.U. after   13 cycles
 Normal termination of Gaussian 16 at Tue Dec  8 20:36:23 2020.

 ----------------------------------------------------------------------
 # B3LYP/6-311++G(d,p) empiricaldispersion=gd3bj scf=xqc pop=npa geom=c
 heck
 ----------------------------------------------------------------------

 ------------------------------------
 CID_12364386_JID_1589_Energie_kation
 ------------------------------------
 Structure from the checkpoint file:  "JID_1589.chk"
 Charge =  1 Multiplicity = 2

 SCF Done:  E(UB3LYP) =  -483.024561874     A.U. after   33 cycles
 SCF Done:  E(UB3LYP) =  -483.024561946     a.u. after    2 cycles
 Normal termination of Gaussian 16 at Tue Dec  8 20:51:17 2020.
 Gaussian 16:  ES64L-G16RevA.03 25-Dec-2016

 ----------------------------------------------------------------------
 # B3LYP/6-311++G(d,p) empiricaldispersion=gd3bj scf=xqc pop=npa geom=c
 heck
 ----------------------------------------------------------------------

 -----------------------------------
 CID_12364386_JID_1589_Energie_anion
 -----------------------------------
 Structure from the checkpoint file:  "JID_1589.chk"
 Charge = -1 Multiplicity = 2

                         Standard orientation:
 ---------------------------------------------------------------------
 Center     Atomic      Atomic             Coordinates (Angstroms)
 Number     Number       Type             X           Y           Z
 ---------------------------------------------------------------------
      1          6           0       -3.742794    0.212796    0.657104
      2          6           0       -3.078315   -0.161808   -0.659387
      3          8           0       -1.896884   -0.956105   -0.451918
      4          6           0       -0.738636   -0.299733   -0.160326
      5          7           0       -0.731349    0.964077   -0.044185
      6          6           0        0.475275    1.748179    0.182448
      7          6           0        1.778403    1.216307   -0.431773
      8          6           0        2.477918    0.115988    0.384981
      9          6           0        1.474150   -0.900341    0.963558
     10          6           0        0.373615   -1.323984   -0.016317
     11          6           0        3.558989   -0.571781   -0.457057
     12          1           0       -3.962382   -0.683456    1.246977
     13          1           0       -4.685345    0.739121    0.465694
     14          1           0       -3.088801    0.869257    1.235706
     15          1           0       -3.729351   -0.800633   -1.263222
     16          1           0       -2.811655    0.732364   -1.229143
     17          1           0        0.605713    1.905728    1.264344
     18          1           0        0.272698    2.741761   -0.234966
     19          1           0        1.550795    0.845662   -1.440988
     20          1           0        2.477667    2.051399   -0.568294
     21          1           0        2.974442    0.599315    1.238745
     22          1           0        0.997297   -0.482313    1.858217
     23          1           0        2.019641   -1.791343    1.297774
     24          1           0       -0.098323   -2.252960    0.317536
     25          1           0        0.790676   -1.540835   -1.008980
     26          1           0        4.253213    0.161113   -0.884514
     27          1           0        4.142094   -1.279949    0.142802
     28          1           0        3.114505   -1.127665   -1.292431
 ---------------------------------------------------------------------

 SCF Done:  E(UB3LYP) =  -483.330122353     A.U. after   29 cycles

 The electronic state is 2-A.
 Alpha  occ. eigenvalues --  -19.04774 -14.18266 -10.15664 -10.11873 -10.08902
 Alpha  occ. eigenvalues --  -10.07412 -10.06663 -10.06296 -10.06130 -10.05846
 Alpha  occ. eigenvalues --  -10.05068  -0.96913  -0.80378  -0.71044  -0.68046
 Alpha  occ. eigenvalues --   -0.64634  -0.61230  -0.56719  -0.54116  -0.52155
 Alpha  occ. eigenvalues --   -0.44864  -0.43640  -0.39662  -0.38607  -0.37246
 Alpha  occ. eigenvalues --   -0.35852  -0.34302  -0.33469  -0.31454  -0.30306
 Alpha  occ. eigenvalues --   -0.29156  -0.29059  -0.28227  -0.27657  -0.26855
 Alpha  occ. eigenvalues --   -0.26142  -0.23832  -0.23283  -0.21973  -0.21196
 Alpha  occ. eigenvalues --   -0.20928  -0.15051  -0.14371   0.04762
 Alpha virt. eigenvalues --    0.06373   0.07615   0.07862   0.08838   0.09125
 Alpha virt. eigenvalues --    0.09429   0.10111   0.11007   0.11061   0.11694
 Alpha virt. eigenvalues --    0.11867   0.12482   0.13196   0.13871   0.14125

  Beta  occ. eigenvalues --  -19.04765 -14.18265 -10.15663 -10.11859 -10.08885
  Beta  occ. eigenvalues --  -10.07397 -10.06649 -10.06272 -10.06107 -10.05826
  Beta  occ. eigenvalues --  -10.05028  -0.96897  -0.80364  -0.71006  -0.68018
  Beta  occ. eigenvalues --   -0.64600  -0.61185  -0.56670  -0.54048  -0.52098
  Beta  occ. eigenvalues --   -0.44802  -0.43603  -0.39629  -0.38573  -0.37201
  Beta  occ. eigenvalues --   -0.35822  -0.34262  -0.33436  -0.31413  -0.30267
  Beta  occ. eigenvalues --   -0.29122  -0.29019  -0.28191  -0.27616  -0.26819
  Beta  occ. eigenvalues --   -0.26107  -0.23794  -0.23258  -0.21935  -0.21144
  Beta  occ. eigenvalues --   -0.20884  -0.15029  -0.14361
  Beta virt. eigenvalues --    0.06848   0.07474   0.08244   0.08406   0.09352
  Beta virt. eigenvalues --    0.09651   0.09977   0.10582   0.11327   0.11513
  Beta virt. eigenvalues --    0.12085   0.12389   0.12682   0.13406   0.14188

 Mulliken charges and spin densities:
               1          2
     1  C    0.508281  -0.856136
     2  C   -0.132557  -0.076289
     3  O   -0.049711   0.032194
     4  C   -0.777366   0.438939
     5  N   -0.215531   0.161306
     6  C    0.361716  -0.904841
     7  C    0.006662  -0.243942
     8  C   -1.001758   1.274877
     9  C    0.091650  -0.327723
    10  C    0.956829  -1.272825
    11  C    1.768189  -2.468836
    12  H   -0.003521   0.136312
    13  H   -0.261020   0.390598
    14  H   -0.087974   0.248689
    15  H   -0.352565   0.505018
    16  H    0.136153   0.024150
    17  H   -0.154124   0.328132
    18  H   -0.029008   0.206550
    19  H    0.004339   0.152087
    20  H   -0.176190   0.330803
    21  H   -0.475058   0.671356
    22  H    0.055160   0.096148
    23  H   -0.493429   0.688541
    24  H    0.209073  -0.022134
    25  H   -0.006699   0.202779
    26  H   -0.467279   0.610396
    27  H   -0.333659   0.467101
    28  H   -0.080605   0.206750
 Sum of Mulliken charges =  -1.00000   1.00000

 Dipole moment (field-independent basis, Debye):
    X=             -3.6289    Y=             -0.2588    Z=             -1.2311  Tot=              3.8407
 Quadrupole moment (field-independent basis, Debye-Ang):
   XX=           -156.7579   YY=           -108.1878   ZZ=            -99.1567
   XY=              0.3135   XZ=             -2.4753   YZ=              0.3868

 Summary of Natural Population Analysis:

                                       Natural Population
                Natural  -----------------------------------------------
    Atom  No    Charge         Core      Valence    Rydberg      Total
 -----------------------------------------------------------------------
      C    1   -0.29772      0.99966     2.29399    0.00407     3.29772
      C    2   -0.01353      0.99958     2.00333    0.01062     3.01353
      O    3   -0.28538      0.99986     3.27556    0.00996     4.28538
      C    4    0.30823      0.99950     1.67454    0.01773     2.69177
      N    5   -0.28707      0.99961     2.77631    0.01115     3.78707
      C    6   -0.09497      0.99960     2.08343    0.01195     3.09497
      C    7   -0.19865      0.99961     2.19023    0.00881     3.19865
      C    8   -0.11086      0.99960     2.10043    0.01083     3.11086
      C    9   -0.18952      0.99961     2.18059    0.00933     3.18952
      C   10   -0.23008      0.99958     2.22115    0.00936     3.23008
      C   11   -0.28352      0.99965     2.27710    0.00676     3.28352
      H   12    0.09686      0.00000     0.40171    0.00142     0.40314
      H   13    0.09796      0.00000     0.40053    0.00151     0.40204
      H   14    0.10754      0.00000     0.39081    0.00165     0.39246
      H   15    0.08559      0.00000     0.41286    0.00154     0.41441
      H   16    0.09398      0.00000     0.40421    0.00181     0.40602
      H   17    0.09302      0.00000     0.40562    0.00135     0.40698
      H   18    0.09361      0.00000     0.40508    0.00131     0.40639
      H   19    0.09424      0.00000     0.40432    0.00144     0.40576
      H   20    0.10445      0.00000     0.39404    0.00151     0.39555
      H   21    0.09680      0.00000     0.40073    0.00247     0.40320
      H   22    0.09958      0.00000     0.39881    0.00161     0.40042
      H   23    0.10333      0.00000     0.39518    0.00149     0.39667
      H   24    0.11299      0.00000     0.38558    0.00143     0.38701
      H   25    0.10799      0.00000     0.39068    0.00132     0.39201
      H   26    0.10108      0.00000     0.39740    0.00152     0.39892
      H   27    0.10047      0.00000     0.39803    0.00149     0.39953
      H   28    0.09358      0.00000     0.40521    0.00121     0.40642
 =======================================================================
   * Total *   -0.00000     10.99586    31.86747    0.13668    43.00000

 Normal termination of Gaussian 16 at Tue Dec  8 21:01:10 2020.
