 Gaussian 16, Revision A.03,

 -----------------------------------------------------------
 # opt freq B3LYP/6-31G(d) empiricaldispersion=gd3bj scf=xqc
 -----------------------------------------------------------

 ------------------------------
 CID_65839869_JID_7254_neutraal
 ------------------------------
 Symbolic Z-matrix:
 Charge =  0 Multiplicity = 1

 SCF Done:  E(RB3LYP) =  -727.695510081     A.U. after   14 cycles
 SCF Done:  E(RB3LYP) =  -727.699634742     A.U. after   13 cycles
 SCF Done:  E(RB3LYP) =  -727.699287467     A.U. after   12 cycles
 SCF Done:  E(RB3LYP) =  -727.701148515     A.U. after   12 cycles
 SCF Done:  E(RB3LYP) =  -727.701970219     A.U. after   12 cycles
 SCF Done:  E(RB3LYP) =  -727.701042438     A.U. after   13 cycles
 SCF Done:  E(RB3LYP) =  -727.702264447     A.U. after   11 cycles
 SCF Done:  E(RB3LYP) =  -727.702324024     A.U. after   11 cycles
 SCF Done:  E(RB3LYP) =  -727.702344658     A.U. after   10 cycles
 SCF Done:  E(RB3LYP) =  -727.702355541     A.U. after   10 cycles
 SCF Done:  E(RB3LYP) =  -727.702358433     A.U. after    8 cycles
 SCF Done:  E(RB3LYP) =  -727.702359688     A.U. after    8 cycles
 SCF Done:  E(RB3LYP) =  -727.702360212     A.U. after    7 cycles
 Optimization completed.
    -- Stationary point found.
 Normal termination of Gaussian 16 at Sun Dec 13 20:14:06 2020.

 --------------------------------------------------------------------
 #N Geom=AllCheck Guess=TCheck SCRF=Check GenChk RB3LYP/6-31G(d) Freq
 --------------------------------------------------------------------

 Structure from the checkpoint file:  "JID_7254.chk"
 ------------------------------
 CID_65839869_JID_7254_neutraal
 ------------------------------
 Charge =  0 Multiplicity = 1

 SCF Done:  E(RB3LYP) =  -727.702360212     A.U. after    1 cycles

  Exact polarizability: 171.300 -11.849 151.107  -4.131 -11.096 141.330
 Approx polarizability: 254.500 -31.340 211.960  -6.469 -29.277 226.865

                      1                      2                      3
                      A                      A                      A
 Frequencies --     44.4293                47.0775                79.8614
 Red. masses --      4.3678                 3.8997                 4.8828
 Frc consts  --      0.0051                 0.0051                 0.0183
 IR Inten    --      3.4693                 0.0796                 0.4831

                      4                      5                      6
                      A                      A                      A
 Frequencies --     88.7397                95.6057               138.5076
 Red. masses --      3.6051                 2.2804                 2.7041
 Frc consts  --      0.0167                 0.0123                 0.0306
 IR Inten    --      1.1700                 0.4465                 1.8080

                      7                      8                      9
                      A                      A                      A
 Frequencies --    159.6465               169.8848               196.2757
 Red. masses --      2.3163                 3.1201                 2.8119
 Frc consts  --      0.0348                 0.0531                 0.0638
 IR Inten    --      1.1430                 0.8284                 2.3138

                     10                     11                     12
                      A                      A                      A
 Frequencies --    215.7882               250.3915               261.3597
 Red. masses --      1.6710                 4.1567                 3.2094
 Frc consts  --      0.0458                 0.1535                 0.1292
 IR Inten    --      0.9615                 8.2106                 0.4974

                     13                     14                     15
                      A                      A                      A
 Frequencies --    278.0220               297.7065               328.2604
 Red. masses --      1.8118                 2.3299                 1.1231
 Frc consts  --      0.0825                 0.1217                 0.0713
 IR Inten    --      0.8546                 8.2319                71.5978

                     16                     17                     18
                      A                      A                      A
 Frequencies --    352.2300               383.6116               395.9029
 Red. masses --      2.0924                 2.9693                 3.2825
 Frc consts  --      0.1530                 0.2574                 0.3031
 IR Inten    --      0.9510                 1.7809                 4.1837

                     19                     20                     21
                      A                      A                      A
 Frequencies --    454.0738               461.8171               474.6535
 Red. masses --      2.3798                 3.1658                 3.4666
 Frc consts  --      0.2891                 0.3978                 0.4602
 IR Inten    --      0.6054                 2.8313                 0.0518

                     22                     23                     24
                      A                      A                      A
 Frequencies --    478.5752               533.6026               570.3231
 Red. masses --      3.3692                 2.8536                 2.4135
 Frc consts  --      0.4547                 0.4787                 0.4625
 IR Inten    --     15.9598                10.4355                 2.9299

                     25                     26                     27
                      A                      A                      A
 Frequencies --    596.7537               673.8522               693.5756
 Red. masses --      3.5767                 3.3626                 4.5776
 Frc consts  --      0.7505                 0.8996                 1.2974
 IR Inten    --      6.7555                 9.1724                 8.1656

                     28                     29                     30
                      A                      A                      A
 Frequencies --    758.6614               787.3984               809.7050
 Red. masses --      3.5530                 2.1834                 1.7308
 Frc consts  --      1.2049                 0.7976                 0.6686
 IR Inten    --      6.6552                 5.3687                 8.3781

                     31                     32                     33
                      A                      A                      A
 Frequencies --    818.4370               840.0036               859.1970
 Red. masses --      2.5553                 1.6650                 2.3831
 Frc consts  --      1.0085                 0.6922                 1.0365
 IR Inten    --      2.0155                 5.5403                 4.0555

                     34                     35                     36
                      A                      A                      A
 Frequencies --    868.4447               889.3150               910.6143
 Red. masses --      1.4510                 1.5128                 1.8453
 Frc consts  --      0.6448                 0.7049                 0.9016
 IR Inten    --     18.7297                58.9679                 1.1803

                     37                     38                     39
                      A                      A                      A
 Frequencies --    929.4498               943.3719               970.0888
 Red. masses --      1.5551                 2.4049                 2.0242
 Frc consts  --      0.7915                 1.2610                 1.1223
 IR Inten    --     57.4874                 6.8273                10.5188

                     40                     41                     42
                      A                      A                      A
 Frequencies --    980.2712               990.6187              1009.8800
 Red. masses --      1.3943                 1.5519                 2.4055
 Frc consts  --      0.7894                 0.8973                 1.4454
 IR Inten    --      3.1281                20.3148                 5.2372

                     43                     44                     45
                      A                      A                      A
 Frequencies --   1012.5733              1019.0361              1056.4461
 Red. masses --      2.2871                 3.7762                 2.1554
 Frc consts  --      1.3816                 2.3104                 1.4173
 IR Inten    --      3.6104                35.2742                 6.8938

                     46                     47                     48
                      A                      A                      A
 Frequencies --   1067.1540              1079.8913              1100.6961
 Red. masses --      2.4709                 1.6805                 1.8290
 Frc consts  --      1.6579                 1.1547                 1.3055
 IR Inten    --      3.7277                 5.2679                 5.6549

                     49                     50                     51
                      A                      A                      A
 Frequencies --   1106.9256              1112.4781              1135.6581
 Red. masses --      2.5737                 2.2046                 1.7779
 Frc consts  --      1.8580                 1.6076                 1.3510
 IR Inten    --     34.8629                 5.9762                 7.3116

                     52                     53                     54
                      A                      A                      A
 Frequencies --   1141.6288              1156.3521              1163.5360
 Red. masses --      2.2162                 1.5932                 1.5846
 Frc consts  --      1.7018                 1.2551                 1.2640
 IR Inten    --     11.2202                11.1139                 3.8171

                     55                     56                     57
                      A                      A                      A
 Frequencies --   1183.7336              1203.4202              1213.8819
 Red. masses --      1.9615                 1.6163                 1.8228
 Frc consts  --      1.6194                 1.3792                 1.5825
 IR Inten    --     10.2573                 2.3840                 7.1953

                     58                     59                     60
                      A                      A                      A
 Frequencies --   1252.3323              1264.2895              1295.2771
 Red. masses --      1.6801                 5.0506                 1.4059
 Frc consts  --      1.5525                 4.7565                 1.3898
 IR Inten    --      9.6119                 2.4900                38.4335

                     61                     62                     63
                      A                      A                      A
 Frequencies --   1301.5403              1319.7218              1328.8709
 Red. masses --      1.2842                 2.2692                 1.3383
 Frc consts  --      1.2818                 2.3286                 1.3924
 IR Inten    --      5.6488                57.8143                 4.3980

                     64                     65                     66
                      A                      A                      A
 Frequencies --   1337.7176              1344.4669              1357.1971
 Red. masses --      1.3151                 1.3197                 1.5709
 Frc consts  --      1.3866                 1.4055                 1.7048
 IR Inten    --     23.1296                 1.9086                 0.8301

                     67                     68                     69
                      A                      A                      A
 Frequencies --   1364.0357              1386.7599              1399.6116
 Red. masses --      1.2125                 1.3648                 1.5247
 Frc consts  --      1.3292                 1.5463                 1.7598
 IR Inten    --      2.1935                 0.2548                 1.0188

                     70                     71                     72
                      A                      A                      A
 Frequencies --   1402.1337              1404.9434              1415.3238
 Red. masses --      1.3571                 1.3353                 1.4586
 Frc consts  --      1.5720                 1.5529                 1.7214
 IR Inten    --      9.0383                 8.5385                 0.6565

                     73                     74                     75
                      A                      A                      A
 Frequencies --   1416.5116              1430.7983              1437.2379
 Red. masses --      1.3479                 1.7601                 1.2701
 Frc consts  --      1.5935                 2.1230                 1.5457
 IR Inten    --      7.2590                57.6823                19.3661

                     76                     77                     78
                      A                      A                      A
 Frequencies --   1446.7081              1485.6862              1505.6228
 Red. masses --      1.4473                 1.3310                 1.3534
 Frc consts  --      1.7847                 1.7309                 1.8077
 IR Inten    --     11.7063                12.4954                45.2262

                     79                     80                     81
                      A                      A                      A
 Frequencies --   1509.0933              1518.5743              1520.6782
 Red. masses --      1.1403                 1.0920                 1.0871
 Frc consts  --      1.5301                 1.4837                 1.4811
 IR Inten    --      8.9236                 4.5087                 3.8503

                     82                     83                     84
                      A                      A                      A
 Frequencies --   1521.7132              1529.1204              1533.8674
 Red. masses --      1.0907                 1.0920                 1.1864
 Frc consts  --      1.4881                 1.5044                 1.6446
 IR Inten    --      1.5216                 7.1409                20.0970

                     85                     86                     87
                      A                      A                      A
 Frequencies --   1536.8015              1545.0095              1597.6065
 Red. masses --      1.0965                 1.1465                 5.7297
 Frc consts  --      1.5258                 1.6125                 8.6163
 IR Inten    --      2.6818                 8.1726                57.9172

                     88                     89                     90
                      A                      A                      A
 Frequencies --   1634.0419              1693.9640              2980.1821
 Red. masses --      5.4053                 1.0928                 1.0706
 Frc consts  --      8.5035                 1.8475                 5.6025
 IR Inten    --    254.2274                26.3804                61.5644

                     91                     92                     93
                      A                      A                      A
 Frequencies --   3011.0208              3022.4424              3030.5733
 Red. masses --      1.0820                 1.0668                 1.0690
 Frc consts  --      5.7796                 5.7417                 5.7844
 IR Inten    --     22.9623                25.9204                32.3612

                     94                     95                     96
                      A                      A                      A
 Frequencies --   3044.5633              3047.1890              3052.4861
 Red. masses --      1.0702                 1.0630                 1.0645
 Frc consts  --      5.8450                 5.8156                 5.8441
 IR Inten    --     37.1424                30.7298                24.2258

                     97                     98                     99
                      A                      A                      A
 Frequencies --   3057.0373              3070.0665              3074.0772
 Red. masses --      1.0379                 1.0904                 1.0945
 Frc consts  --      5.7148                 6.0550                 6.0937
 IR Inten    --     25.0257                56.4938                59.4323

                    100                    101                    102
                      A                      A                      A
 Frequencies --   3088.4410              3093.6544              3096.6749
 Red. masses --      1.0955                 1.0977                 1.0994
 Frc consts  --      6.1564                 6.1899                 6.2114
 IR Inten    --     20.8337                 7.3773                26.1081

                    103                    104                    105
                      A                      A                      A
 Frequencies --   3107.9606              3109.9018              3121.6221
 Red. masses --      1.0882                 1.0914                 1.1026
 Frc consts  --      6.1931                 6.2189                 6.3304
 IR Inten    --      6.8354                96.4965                36.3655

                    106                    107                    108
                      A                      A                      A
 Frequencies --   3148.2255              3176.1490              3181.7692
 Red. masses --      1.1003                 1.0898                 1.0919
 Frc consts  --      6.4256                 6.4777                 6.5129
 IR Inten    --     28.8962                30.2676                30.3465

                    109                    110                    111
                      A                      A                      A
 Frequencies --   3259.3873              3470.4653              3553.7814
 Red. masses --      1.0924                 1.0498                 1.0921
 Frc consts  --      6.8377                 7.4498                 8.1263
 IR Inten    --      2.9353                 5.7904                 0.5223

 - Thermochemistry -
 -------------------
 Temperature   298.150 Kelvin.  Pressure   1.00000 Atm.
 Atom     1 has atomic number  6 and mass  12.00000

 Molecular mass:   234.18445 amu.
 Principal axes and moments of inertia in atomic units:
                           1         2         3
     Eigenvalues --  3089.634964124.372835213.35647
           X            0.99853   0.05206  -0.01537
           Y           -0.05198   0.99863   0.00521
           Z            0.01562  -0.00440   0.99987
 This molecule is an asymmetric top.
 Rotational symmetry number  1.
 Warning -- assumption of classical behavior for rotation
           may cause significant error
 Rotational temperatures (Kelvin)      0.02803     0.02100     0.01661
 Rotational constants (GHZ):           0.58413     0.43758     0.34618
 Zero-point vibrational energy     919176.6 (Joules/Mol)
                                  219.68847 (Kcal/Mol)
 Warning -- explicit consideration of  25 degrees of freedom as
           vibrations may cause significant error
 Vibrational temperatures:     63.92    67.73   114.90   127.68   137.56
          (Kelvin)            199.28   229.70   244.43   282.40   310.47
                              360.26   376.04   400.01   428.33   472.29
                              506.78   551.93   569.62   653.31   664.45
                              682.92   688.56   767.74   820.57   858.60
                              969.52   997.90  1091.54  1132.89  1164.98
                             1177.55  1208.58  1236.19  1249.50  1279.53
                             1310.17  1337.27  1357.30  1395.74  1410.39
                             1425.28  1452.99  1456.87  1466.17  1519.99
                             1535.40  1553.72  1583.66  1592.62  1600.61
                             1633.96  1642.55  1663.73  1674.07  1703.13
                             1731.45  1746.51  1801.83  1819.03  1863.61
                             1872.63  1898.79  1911.95  1924.68  1934.39
                             1952.70  1962.54  1995.24  2013.73  2017.36
                             2021.40  2036.34  2038.04  2058.60  2067.86
                             2081.49  2137.57  2166.26  2171.25  2184.89
                             2187.92  2189.41  2200.06  2206.89  2211.11
                             2222.92  2298.60  2351.02  2437.24  4287.82
                             4332.19  4348.62  4360.32  4380.45  4384.23
                             4391.85  4398.39  4417.14  4422.91  4443.58
                             4451.08  4455.42  4471.66  4474.46  4491.32
                             4529.59  4569.77  4577.86  4689.53  4993.23
                             5113.10

 Zero-point correction=                           0.350096 (Hartree/Particle)
 Thermal correction to Energy=                    0.366333
 Thermal correction to Enthalpy=                  0.367277
 Thermal correction to Gibbs Free Energy=         0.306665
 Sum of electronic and zero-point Energies=           -727.352264
 Sum of electronic and thermal Energies=              -727.336028
 Sum of electronic and thermal Enthalpies=            -727.335083
 Sum of electronic and thermal Free Energies=         -727.395695

                     E (Thermal)             CV                S
                      KCal/Mol        Cal/Mol-Kelvin    Cal/Mol-Kelvin
 Total                  229.877             63.541            127.568
 Electronic               0.000              0.000              0.000
 Translational            0.889              2.981             42.254
 Rotational               0.889              2.981             32.563
 Vibrational            228.100             57.580             52.750
 Vibration     1          0.595              1.980              5.051
 Vibration     2          0.595              1.979              4.937
 Vibration     3          0.600              1.963              3.894
 Vibration     4          0.602              1.957              3.688
 Vibration     5          0.603              1.952              3.542
 Vibration     6          0.614              1.915              2.824
 Vibration     7          0.622              1.892              2.554
 Vibration     8          0.625              1.880              2.437
 Vibration     9          0.636              1.845              2.168
 Vibration    10          0.645              1.817              1.994
 Vibration    11          0.663              1.762              1.728
 Vibration    12          0.669              1.743              1.653
 Vibration    13          0.679              1.714              1.546
 Vibration    14          0.691              1.678              1.430
 Vibration    15          0.711              1.619              1.269
 Vibration    16          0.729              1.571              1.156
 Vibration    17          0.753              1.505              1.025
 Vibration    18          0.763              1.479              0.978
 Vibration    19          0.813              1.352              0.784
 Vibration    20          0.820              1.335              0.761
 Vibration    21          0.831              1.306              0.725
 Vibration    22          0.835              1.298              0.714
 Vibration    23          0.889              1.176              0.579
 Vibration    24          0.926              1.095              0.504
 Vibration    25          0.955              1.039              0.455

 Optimization completed.
    -- Stationary point found.
 Normal termination of Gaussian 16 at Sun Dec 13 20:32:25 2020.

 ----------------------------------------------------------------------
 # B3LYP/6-311++G(d,p) empiricaldispersion=gd3bj scf=xqc pop=npa geom=c
 heck
 ----------------------------------------------------------------------

 --------------------------------------
 CID_65839869_JID_7254_Energie_neutraal
 --------------------------------------
 Structure from the checkpoint file:  "JID_7254.chk"
 Charge =  0 Multiplicity = 1

 SCF Done:  E(RB3LYP) =  -727.902257276     A.U. after   14 cycles
 Normal termination of Gaussian 16 at Sun Dec 13 20:41:03 2020.

 ----------------------------------------------------------------------
 # B3LYP/6-311++G(d,p) empiricaldispersion=gd3bj scf=xqc pop=npa geom=c
 heck
 ----------------------------------------------------------------------

 ------------------------------------
 CID_65839869_JID_7254_Energie_kation
 ------------------------------------
 Structure from the checkpoint file:  "JID_7254.chk"
 Charge =  1 Multiplicity = 2

 SCF Done:  E(UB3LYP) =  -727.607647639     A.U. after   28 cycles
 Normal termination of Gaussian 16 at Sun Dec 13 21:06:09 2020.
 Gaussian 16:  ES64L-G16RevA.03 25-Dec-2016

 ----------------------------------------------------------------------
 # B3LYP/6-311++G(d,p) empiricaldispersion=gd3bj scf=xqc pop=npa geom=c
 heck
 ----------------------------------------------------------------------

 -----------------------------------
 CID_65839869_JID_7254_Energie_anion
 -----------------------------------
 Structure from the checkpoint file:  "JID_7254.chk"
 Charge = -1 Multiplicity = 2

                         Standard orientation:
 ---------------------------------------------------------------------
 Center     Atomic      Atomic             Coordinates (Angstroms)
 Number     Number       Type             X           Y           Z
 ---------------------------------------------------------------------
      1          6           0        1.352268    3.157324   -0.400741
      2          6           0        0.442512    2.175102   -1.133276
      3          7           0        0.034483    1.045502   -0.268230
      4          6           0       -1.186243    0.352453   -0.799401
      5          6           0       -0.883139   -0.657503   -1.928654
      6          6           0       -0.560923   -2.076089   -1.441320
      7          6           0       -1.679650   -2.610089   -0.540382
      8          6           0       -1.897179   -1.690580    0.666928
      9          6           0       -2.169969   -0.237012    0.243971
     10          6           0       -2.387913    0.686542    1.449316
     11          7           0       -2.627579    2.070162    1.024400
     12          6           0        1.116474    0.248358    0.153864
     13          7           0        2.198062    0.165637   -0.642105
     14          6           0        3.210146   -0.596768   -0.220593
     15          7           0        3.280985   -1.303882    0.909144
     16          6           0        2.214161   -1.180046    1.716100
     17          6           0        1.110452   -0.404111    1.396806
     18          1           0        0.880313    3.503984    0.525565
     19          1           0        1.547553    4.028018   -1.036114
     20          1           0        2.314097    2.702945   -0.150535
     21          1           0       -0.480196    2.689933   -1.417095
     22          1           0        0.927610    1.828809   -2.054638
     23          1           0       -1.743021    1.178824   -1.244440
     24          1           0       -1.772824   -0.709917   -2.572003
     25          1           0       -0.068806   -0.271003   -2.551443
     26          1           0        0.387984   -2.085698   -0.892547
     27          1           0       -0.422579   -2.734020   -2.308074
     28          1           0       -1.447714   -3.627048   -0.201497
     29          1           0       -2.610775   -2.675937   -1.122271
     30          1           0       -1.019615   -1.751008    1.317766
     31          1           0       -2.747211   -2.046008    1.264475
     32          1           0       -3.124716   -0.252215   -0.302926
     33          1           0       -3.274867    0.335573    1.990615
     34          1           0       -1.540525    0.591565    2.148750
     35          1           0       -2.988796    2.609190    1.809179
     36          1           0       -1.726816    2.483958    0.788303
     37          1           0        4.073948   -0.651516   -0.880948
     38          1           0        2.260443   -1.714365    2.663438
     39          1           0        0.288876   -0.281484    2.088273
 ---------------------------------------------------------------------

 SCF Done:  E(UB3LYP) =  -727.894361097     A.U. after   33 cycles
 SCF Done:  E(UB3LYP) =  -727.894361097     a.u. after    1 cycles

 The electronic state is 2-A.
 Alpha  occ. eigenvalues --  -14.20099 -14.17947 -14.17775 -14.17510 -10.11096
 Alpha  occ. eigenvalues --  -10.10507 -10.09349 -10.08367 -10.08249 -10.08091
 Alpha  occ. eigenvalues --  -10.06681 -10.06499 -10.06130 -10.06085 -10.06074
 Alpha  occ. eigenvalues --  -10.05597 -10.05046  -0.86318  -0.81738  -0.77306
 Alpha  occ. eigenvalues --   -0.74748  -0.71990  -0.66403  -0.65082  -0.64712
 Alpha  occ. eigenvalues --   -0.61396  -0.55535  -0.53401  -0.53002  -0.51238
 Alpha  occ. eigenvalues --   -0.48199  -0.47912  -0.44544  -0.39911  -0.39360
 Alpha  occ. eigenvalues --   -0.38614  -0.37133  -0.36312  -0.35494  -0.34575
 Alpha  occ. eigenvalues --   -0.33576  -0.33264  -0.32450  -0.30933  -0.30505
 Alpha  occ. eigenvalues --   -0.29651  -0.28560  -0.28455  -0.27462  -0.26317
 Alpha  occ. eigenvalues --   -0.25953  -0.25520  -0.24916  -0.24073  -0.23064
 Alpha  occ. eigenvalues --   -0.22173  -0.20871  -0.19696  -0.18966  -0.17399
 Alpha  occ. eigenvalues --   -0.16324  -0.13468  -0.13049  -0.10950   0.04708
 Alpha virt. eigenvalues --    0.06548   0.07144   0.07716   0.08272   0.08870
 Alpha virt. eigenvalues --    0.09121   0.09435   0.09737   0.10330   0.10527
 Alpha virt. eigenvalues --    0.11411   0.11923   0.12434   0.12605   0.13011

  Beta  occ. eigenvalues --  -14.20118 -14.17906 -14.17649 -14.17262 -10.11129
  Beta  occ. eigenvalues --  -10.10158 -10.09317 -10.08350 -10.08072 -10.08059
  Beta  occ. eigenvalues --  -10.06677 -10.06493 -10.06129 -10.06080 -10.06072
  Beta  occ. eigenvalues --  -10.05680 -10.05030  -0.85990  -0.81538  -0.77220
  Beta  occ. eigenvalues --   -0.74399  -0.71948  -0.66172  -0.65042  -0.64683
  Beta  occ. eigenvalues --   -0.61327  -0.55403  -0.53151  -0.52937  -0.51208
  Beta  occ. eigenvalues --   -0.48072  -0.47802  -0.44439  -0.39828  -0.39207
  Beta  occ. eigenvalues --   -0.38555  -0.37056  -0.36162  -0.35437  -0.34481
  Beta  occ. eigenvalues --   -0.33519  -0.33204  -0.32403  -0.30861  -0.30435
  Beta  occ. eigenvalues --   -0.29062  -0.28532  -0.28230  -0.27413  -0.26276
  Beta  occ. eigenvalues --   -0.25907  -0.25469  -0.24883  -0.24018  -0.23041
  Beta  occ. eigenvalues --   -0.21996  -0.20768  -0.19632  -0.17865  -0.17061
  Beta  occ. eigenvalues --   -0.15785  -0.13419  -0.12820  -0.10723
  Beta virt. eigenvalues --    0.06726   0.07602   0.07917   0.08324   0.09079
  Beta virt. eigenvalues --    0.09309   0.09454   0.09515   0.09807   0.10432
  Beta virt. eigenvalues --    0.10622   0.11585   0.11994   0.12513   0.12689

 Mulliken charges and spin densities:
               1          2
     1  C    0.256490  -0.716698
     2  C   -0.424510   0.455691
     3  N    0.434473   0.099606
     4  C    0.275735  -0.441597
     5  C   -0.049906  -0.498593
     6  C   -0.323805   0.189180
     7  C   -0.122466  -0.521027
     8  C   -0.075080   0.042741
     9  C   -0.405246   0.390467
    10  C    0.160691  -0.767985
    11  N   -0.379841   0.014703
    12  C   -0.765682   0.086020
    13  N    0.048653   0.096920
    14  C   -0.066968  -0.024795
    15  N   -0.137539   0.100245
    16  C   -0.347658  -0.028838
    17  C    0.147267  -0.145842
    18  H   -0.116238   0.240511
    19  H   -0.044122   0.174023
    20  H    0.081841   0.082792
    21  H   -0.065046   0.192109
    22  H    0.090807   0.056677
    23  H    0.151235   0.079046
    24  H    0.011765   0.144404
    25  H    0.141934  -0.004071
    26  H    0.145108   0.012362
    27  H    0.118002   0.051577
    28  H    0.132173   0.030383
    29  H    0.065686   0.044213
    30  H    0.156769  -0.041673
    31  H    0.023985   0.141070
    32  H    0.009815   0.170976
    33  H   -0.338839   0.513616
    34  H   -0.103088   0.220718
    35  H   -0.352054   0.609994
    36  H    0.411656  -0.162657
    37  H    0.116195   0.024107
    38  H    0.111051   0.021901
    39  H    0.026756   0.067723
 Sum of Mulliken charges =  -1.00000   1.00000

 Dipole moment (field-independent basis, Debye):
    X=              0.3323    Y=             -3.3020    Z=             -3.1422  Tot=              4.5703
 Quadrupole moment (field-independent basis, Debye-Ang):
   XX=           -168.2706   YY=           -145.6461   ZZ=           -133.5195
   XY=             13.4393   XZ=              3.8390   YZ=             -5.6664

 Summary of Natural Population Analysis:

                                       Natural Population
                Natural  -----------------------------------------------
    Atom  No    Charge         Core      Valence    Rydberg      Total
 -----------------------------------------------------------------------
      C    1   -0.29027      0.99966     2.28556    0.00505     3.29027
      C    2   -0.08245      0.99962     2.07229    0.01055     3.08245
      N    3   -0.29067      0.99966     2.77635    0.01465     3.79067
      C    4    0.00718      0.99953     1.98006    0.01323     2.99282
      C    5   -0.19851      0.99960     2.19060    0.00831     3.19851
      C    6   -0.19373      0.99963     2.18652    0.00758     3.19373
      C    7   -0.18668      0.99963     2.17884    0.00820     3.18668
      C    8   -0.19190      0.99960     2.18437    0.00793     3.19190
      C    9   -0.11534      0.99956     2.10392    0.01187     3.11534
      C   10   -0.08122      0.99959     2.06990    0.01173     3.08122
      N   11   -0.42627      0.99977     2.91614    0.01036     3.92627
      C   12    0.26363      0.99950     1.72043    0.01644     2.73637
      N   13   -0.25950      0.99967     2.74984    0.00999     3.75950
      C   14    0.13290      0.99967     1.84875    0.01868     2.86710
      N   15   -0.23111      0.99972     2.72168    0.00972     3.73111
      C   16    0.06506      0.99959     1.91796    0.01739     2.93494
      C   17   -0.16733      0.99949     2.15918    0.00866     3.16733
      H   18    0.09779      0.00000     0.40083    0.00139     0.40221
      H   19    0.09497      0.00000     0.40435    0.00068     0.40503
      H   20    0.10580      0.00000     0.39302    0.00119     0.39420
      H   21    0.09045      0.00000     0.40838    0.00117     0.40955
      H   22    0.09223      0.00000     0.40619    0.00158     0.40777
      H   23    0.10412      0.00000     0.39383    0.00205     0.39588
      H   24    0.09353      0.00000     0.40547    0.00100     0.40647
      H   25    0.10573      0.00000     0.39324    0.00104     0.39427
      H   26    0.10317      0.00000     0.39528    0.00155     0.39683
      H   27    0.09437      0.00000     0.40484    0.00079     0.40563
      H   28    0.09527      0.00000     0.40396    0.00077     0.40473
      H   29    0.08922      0.00000     0.40968    0.00109     0.41078
      H   30    0.10027      0.00000     0.39830    0.00142     0.39973
      H   31    0.09568      0.00000     0.40340    0.00092     0.40432
      H   32    0.09730      0.00000     0.40091    0.00179     0.40270
      H   33    0.08935      0.00000     0.40933    0.00133     0.41065
      H   34    0.07868      0.00000     0.41925    0.00208     0.42132
      H   35    0.17665      0.00000     0.32007    0.00329     0.32335
      H   36    0.17847      0.00000     0.31902    0.00251     0.32153
      H   37    0.07589      0.00000     0.42287    0.00124     0.42411
      H   38    0.08279      0.00000     0.41593    0.00128     0.41721
      H   39    0.10449      0.00000     0.39341    0.00210     0.39551
 =======================================================================
   * Total *   -0.00000     16.99348    46.78393    0.22258    64.00000

 Normal termination of Gaussian 16 at Sun Dec 13 21:35:33 2020.
