 Gaussian 16, Revision A.03,

 -----------------------------------------------------------
 # opt freq B3LYP/6-31G(d) empiricaldispersion=gd3bj scf=xqc
 -----------------------------------------------------------

 ------------------------------
 CID_148891517_JID_460_neutraal
 ------------------------------
 Symbolic Z-matrix:
 Charge =  0 Multiplicity = 1

 SCF Done:  E(RB3LYP) =  -462.310311922     A.U. after   13 cycles
 SCF Done:  E(RB3LYP) =  -462.312980408     A.U. after   11 cycles
 SCF Done:  E(RB3LYP) =  -462.313002752     A.U. after   11 cycles
 SCF Done:  E(RB3LYP) =  -462.315594457     A.U. after   11 cycles
 SCF Done:  E(RB3LYP) =  -462.317440134     A.U. after   11 cycles
 SCF Done:  E(RB3LYP) =  -462.319510560     A.U. after   12 cycles
 SCF Done:  E(RB3LYP) =  -462.321077284     A.U. after   11 cycles
 SCF Done:  E(RB3LYP) =  -462.325594204     A.U. after   12 cycles
 SCF Done:  E(RB3LYP) =  -462.328140455     A.U. after   11 cycles
 SCF Done:  E(RB3LYP) =  -462.330475489     A.U. after   11 cycles
 SCF Done:  E(RB3LYP) =  -462.331591787     A.U. after   10 cycles
 SCF Done:  E(RB3LYP) =  -462.331610459     A.U. after    9 cycles
 SCF Done:  E(RB3LYP) =  -462.331612360     A.U. after    8 cycles
 SCF Done:  E(RB3LYP) =  -462.331613184     A.U. after    7 cycles
 SCF Done:  E(RB3LYP) =  -462.331613694     A.U. after    7 cycles
 SCF Done:  E(RB3LYP) =  -462.331613816     A.U. after    7 cycles
 Optimization completed.
    -- Stationary point found.
 Normal termination of Gaussian 16 at Tue Dec  8 10:45:04 2020.

 --------------------------------------------------------------------
 #N Geom=AllCheck Guess=TCheck SCRF=Check GenChk RB3LYP/6-31G(d) Freq
 --------------------------------------------------------------------

 Structure from the checkpoint file:  "JID_460.chk"
 ------------------------------
 CID_148891517_JID_460_neutraal
 ------------------------------
 Charge =  0 Multiplicity = 1

 SCF Done:  E(RB3LYP) =  -462.331613816     A.U. after    1 cycles

  Exact polarizability: 104.493  -1.354  89.198   1.029   0.765  82.300
 Approx polarizability: 125.268  -1.018 123.553   3.015   2.032 122.778

                      1                      2                      3
                      A                      A                      A
 Frequencies --     46.7774                65.4253                83.7822
 Red. masses --      3.1622                 2.8551                 2.8536
 Frc consts  --      0.0041                 0.0072                 0.0118
 IR Inten    --      2.0264                 0.3958                 1.4960

                      4                      5                      6
                      A                      A                      A
 Frequencies --    155.7527               201.1331               208.9264
 Red. masses --      3.1805                 2.7475                 1.1666
 Frc consts  --      0.0455                 0.0655                 0.0300
 IR Inten    --      1.7037                 1.3515                 0.3747

                      7                      8                      9
                      A                      A                      A
 Frequencies --    209.6470               226.0111               251.2867
 Red. masses --      1.1034                 1.2181                 2.4964
 Frc consts  --      0.0286                 0.0367                 0.0929
 IR Inten    --      0.8536                 1.3213                 2.4688

                     10                     11                     12
                      A                      A                      A
 Frequencies --    279.6165               296.0271               307.9840
 Red. masses --      2.0366                 3.2387                 1.1105
 Frc consts  --      0.0938                 0.1672                 0.0621
 IR Inten    --      3.9891                 3.6330                51.3747

                     13                     14                     15
                      A                      A                      A
 Frequencies --    331.6380               405.1373               407.4731
 Red. masses --      2.5034                 1.1501                 2.4632
 Frc consts  --      0.1622                 0.1112                 0.2410
 IR Inten    --      0.4959               126.3299                 6.3847

                     16                     17                     18
                      A                      A                      A
 Frequencies --    435.6741               463.9811               498.9124
 Red. masses --      2.4157                 2.3034                 2.5778
 Frc consts  --      0.2702                 0.2922                 0.3780
 IR Inten    --     10.3421                12.4820                21.1781

                     19                     20                     21
                      A                      A                      A
 Frequencies --    560.8581               598.1254               809.1353
 Red. masses --      2.5504                 4.0225                 2.5607
 Frc consts  --      0.4727                 0.8479                 0.9878
 IR Inten    --      3.0734                19.8724                 1.3134

                     22                     23                     24
                      A                      A                      A
 Frequencies --    849.6677               881.6525               911.4741
 Red. masses --      1.9921                 2.5217                 2.2677
 Frc consts  --      0.8474                 1.1549                 1.1100
 IR Inten    --      7.7940                13.7927                 9.0276

                     25                     26                     27
                      A                      A                      A
 Frequencies --    939.9578               942.6473               954.2976
 Red. masses --      1.2934                 1.5535                 1.6862
 Frc consts  --      0.6733                 0.8133                 0.9047
 IR Inten    --     94.4607                27.8615                49.2005

                     28                     29                     30
                      A                      A                      A
 Frequencies --    985.2135               994.6278              1063.6448
 Red. masses --      1.5432                 2.4133                 1.9341
 Frc consts  --      0.8826                 1.4066                 1.2892
 IR Inten    --      4.3231                66.3481                43.2385

                     31                     32                     33
                      A                      A                      A
 Frequencies --   1084.6830              1129.8090              1133.9164
 Red. masses --      2.3069                 1.9804                 1.6107
 Frc consts  --      1.5991                 1.4894                 1.2202
 IR Inten    --    103.8452                 7.3783                17.3467

                     34                     35                     36
                      A                      A                      A
 Frequencies --   1145.3881              1158.2398              1191.5696
 Red. masses --      2.1214                 1.4158                 1.6938
 Frc consts  --      1.6398                 1.1190                 1.4170
 IR Inten    --      9.7428                 4.8159                 6.8695

                     37                     38                     39
                      A                      A                      A
 Frequencies --   1209.5534              1220.7369              1246.4886
 Red. masses --      1.6079                 1.5637                 1.4782
 Frc consts  --      1.3860                 1.3730                 1.3532
 IR Inten    --      0.9510                11.4023                31.2252

                     40                     41                     42
                      A                      A                      A
 Frequencies --   1279.1025              1347.3048              1364.9022
 Red. masses --      1.7225                 1.5492                 1.3995
 Frc consts  --      1.6604                 1.6568                 1.5361
 IR Inten    --      5.3278                14.6179                 1.9082

                     43                     44                     45
                      A                      A                      A
 Frequencies --   1379.2692              1401.0370              1407.6196
 Red. masses --      1.4463                 1.3067                 1.3275
 Frc consts  --      1.6211                 1.5112                 1.5497
 IR Inten    --      7.8505                33.1501                 6.0226

                     46                     47                     48
                      A                      A                      A
 Frequencies --   1414.9417              1427.2498              1443.3063
 Red. masses --      1.3528                 1.2545                 1.2439
 Frc consts  --      1.5958                 1.5056                 1.5267
 IR Inten    --     36.1618                 4.6733                18.9926

                     49                     50                     51
                      A                      A                      A
 Frequencies --   1449.9141              1450.7343              1480.6908
 Red. masses --      1.3146                 1.2996                 1.1424
 Frc consts  --      1.6283                 1.6116                 1.4757
 IR Inten    --     10.4451                 4.9651                 3.7185

                     52                     53                     54
                      A                      A                      A
 Frequencies --   1505.4756              1515.9262              1518.0010
 Red. masses --      1.1226                 1.0459                 1.0572
 Frc consts  --      1.4991                 1.4160                 1.4353
 IR Inten    --      9.8690                 0.5010                 5.4419

                     55                     56                     57
                      A                      A                      A
 Frequencies --   1523.1642              1529.8911              1532.5378
 Red. masses --      1.0535                 1.0454                 1.0815
 Frc consts  --      1.4401                 1.4417                 1.4966
 IR Inten    --      1.2810                 7.1876                 6.1511

                     58                     59                     60
                      A                      A                      A
 Frequencies --   1543.7182              1555.2596              1716.2955
 Red. masses --      1.0598                 1.0570                 1.0821
 Frc consts  --      1.4881                 1.5064                 1.8780
 IR Inten    --     11.7897                 5.0830                39.7093

                     61                     62                     63
                      A                      A                      A
 Frequencies --   2940.0328              2971.0098              2997.9745
 Red. masses --      1.0726                 1.0605                 1.0821
 Frc consts  --      5.4623                 5.5152                 5.7302
 IR Inten    --     52.5964                98.3024                33.7147

                     64                     65                     66
                      A                      A                      A
 Frequencies --   3032.2864              3044.8574              3049.8642
 Red. masses --      1.0664                 1.0389                 1.0394
 Frc consts  --      5.7774                 5.6748                 5.6962
 IR Inten    --     24.4249                16.2108                39.3301

                     67                     68                     69
                      A                      A                      A
 Frequencies --   3057.7593              3080.1471              3093.0866
 Red. masses --      1.0855                 1.0724                 1.0995
 Frc consts  --      5.9801                 5.9944                 6.1978
 IR Inten    --     77.3035                33.4928                17.8322

                     70                     71                     72
                      A                      A                      A
 Frequencies --   3103.9366              3106.4291              3112.2848
 Red. masses --      1.1011                 1.0909                 1.0968
 Frc consts  --      6.2501                 6.2021                 6.2593
 IR Inten    --      3.1959                20.3138                74.2238

                     73                     74                     75
                      A                      A                      A
 Frequencies --   3121.7417              3143.2521              3146.9905
 Red. masses --      1.1026                 1.0999                 1.0992
 Frc consts  --      6.3308                 6.4027                 6.4141
 IR Inten    --     37.0575                21.9393                25.7703

                     76                     77                     78
                      A                      A                      A
 Frequencies --   3459.4059              3546.6327              3735.2436
 Red. masses --      1.0502                 1.0925                 1.0657
 Frc consts  --      7.4049                 8.0964                 8.7606
 IR Inten    --     55.7104                21.3367                10.5199

 - Thermochemistry -
 -------------------
 Temperature   298.150 Kelvin.  Pressure   1.00000 Atm.
 Atom     1 has atomic number  6 and mass  12.00000

 Molecular mass:   146.14191 amu.
 Principal axes and moments of inertia in atomic units:
                           1         2         3
     Eigenvalues --   906.640122176.084132534.58473
           X            0.99993  -0.00739  -0.00872
           Y            0.00751   0.99987   0.01459
           Z            0.00862  -0.01465   0.99986
 This molecule is an asymmetric top.
 Rotational symmetry number  1.
 Warning -- assumption of classical behavior for rotation
           may cause significant error
 Rotational temperatures (Kelvin)      0.09553     0.03980     0.03417
 Rotational constants (GHZ):           1.99058     0.82935     0.71205
 Zero-point vibrational energy     678379.2 (Joules/Mol)
                                  162.13652 (Kcal/Mol)
 Warning -- explicit consideration of  20 degrees of freedom as
           vibrations may cause significant error
 Vibrational temperatures:     67.30    94.13   120.54   224.09   289.39
          (Kelvin)            300.60   301.64   325.18   361.55   402.31
                              425.92   443.12   477.15   582.90   586.26
                              626.84   667.57   717.82   806.95   860.57
                             1164.17  1222.48  1268.50  1311.41  1352.39
                             1356.26  1373.02  1417.50  1431.05  1530.35
                             1560.62  1625.54  1631.45  1647.96  1666.45
                             1714.40  1740.28  1756.37  1793.42  1840.34
                             1938.47  1963.79  1984.46  2015.78  2025.25
                             2035.79  2053.49  2076.60  2086.10  2087.28
                             2130.38  2166.04  2181.08  2184.06  2191.49
                             2201.17  2204.98  2221.07  2237.67  2469.37
                             4230.05  4274.62  4313.42  4362.78  4380.87
                             4388.07  4399.43  4431.64  4450.26  4465.87
                             4469.46  4477.88  4491.49  4522.44  4527.82
                             4977.31  5102.81  5374.18

 Zero-point correction=                           0.258381 (Hartree/Particle)
 Thermal correction to Energy=                    0.271076
 Thermal correction to Enthalpy=                  0.272020
 Thermal correction to Gibbs Free Energy=         0.220206
 Sum of electronic and zero-point Energies=           -462.073233
 Sum of electronic and thermal Energies=              -462.060538
 Sum of electronic and thermal Enthalpies=            -462.059594
 Sum of electronic and thermal Free Energies=         -462.111408

                     E (Thermal)             CV                S
                      KCal/Mol        Cal/Mol-Kelvin    Cal/Mol-Kelvin
 Total                  170.102             47.063            109.052
 Electronic               0.000              0.000              0.000
 Translational            0.889              2.981             40.849
 Rotational               0.889              2.981             29.993
 Vibrational            168.325             41.101             38.210
 Vibration     1          0.595              1.979              4.949
 Vibration     2          0.597              1.971              4.286
 Vibration     3          0.601              1.960              3.800
 Vibration     4          0.620              1.896              2.601
 Vibration     5          0.638              1.838              2.123
 Vibration     6          0.642              1.827              2.053
 Vibration     7          0.642              1.826              2.047
 Vibration     8          0.650              1.801              1.910
 Vibration     9          0.663              1.761              1.722
 Vibration    10          0.680              1.711              1.536
 Vibration    11          0.690              1.681              1.439
 Vibration    12          0.698              1.659              1.373
 Vibration    13          0.714              1.612              1.252
 Vibration    14          0.770              1.459              0.944
 Vibration    15          0.772              1.454              0.936
 Vibration    16          0.796              1.392              0.840
 Vibration    17          0.822              1.330              0.755
 Vibration    18          0.854              1.252              0.661
 Vibration    19          0.917              1.116              0.522
 Vibration    20          0.956              1.036              0.453

                           ! Non-Optimized Parameters !
 Normal termination of Gaussian 16 at Tue Dec  8 10:51:04 2020.

 ----------------------------------------------------------------------
 # B3LYP/6-311++G(d,p) empiricaldispersion=gd3bj scf=xqc pop=npa geom=c
 heck
 ----------------------------------------------------------------------

 --------------------------------------
 CID_148891517_JID_460_Energie_neutraal
 --------------------------------------
 Structure from the checkpoint file:  "JID_460.chk"
 Charge =  0 Multiplicity = 1

 SCF Done:  E(RB3LYP) =  -462.482332054     A.U. after   13 cycles
 Normal termination of Gaussian 16 at Tue Dec  8 10:54:51 2020.

 ----------------------------------------------------------------------
 # B3LYP/6-311++G(d,p) empiricaldispersion=gd3bj scf=xqc pop=npa geom=c
 heck
 ----------------------------------------------------------------------

 ------------------------------------
 CID_148891517_JID_460_Energie_kation
 ------------------------------------
 Structure from the checkpoint file:  "JID_460.chk"
 Charge =  1 Multiplicity = 2

 SCF Done:  E(UB3LYP) =  -462.193892931     A.U. after   19 cycles
 Normal termination of Gaussian 16 at Tue Dec  8 11:00:29 2020.
 Gaussian 16:  ES64L-G16RevA.03 25-Dec-2016

 ----------------------------------------------------------------------
 # B3LYP/6-311++G(d,p) empiricaldispersion=gd3bj scf=xqc pop=npa geom=c
 heck
 ----------------------------------------------------------------------

 -----------------------------------
 CID_148891517_JID_460_Energie_anion
 -----------------------------------
 Structure from the checkpoint file:  "JID_460.chk"
 Charge = -1 Multiplicity = 2

                         Standard orientation:
 ---------------------------------------------------------------------
 Center     Atomic      Atomic             Coordinates (Angstroms)
 Number     Number       Type             X           Y           Z
 ---------------------------------------------------------------------
      1          6           0       -2.432225   -1.114254    0.835583
      2          6           0       -1.971935    0.001333   -0.107992
      3          6           0       -2.794470    1.278653    0.105019
      4          6           0       -0.467872    0.296230    0.070026
      5          7           0        0.353631   -0.886784    0.005270
      6          6           0        0.454490   -1.515103   -1.300299
      7          6           0        1.602400   -0.878982    0.769695
      8          6           0        2.775579   -0.037743    0.243247
      9          7           0        2.557154    1.390148    0.474058
     10          8           0       -0.065652    1.350247   -0.840996
     11          1           0       -2.267573   -0.823547    1.880932
     12          1           0       -1.879746   -2.040088    0.660001
     13          1           0       -3.503224   -1.309334    0.709183
     14          1           0       -2.134406   -0.333910   -1.144738
     15          1           0       -2.685440    1.637252    1.136510
     16          1           0       -2.468074    2.080847   -0.561464
     17          1           0       -3.858980    1.087581   -0.070150
     18          1           0       -0.311544    0.739249    1.057380
     19          1           0        1.009680   -0.922176   -2.048371
     20          1           0        0.969217   -2.475993   -1.197355
     21          1           0       -0.543499   -1.719336   -1.701790
     22          1           0        1.372361   -0.536017    1.784719
     23          1           0        1.930857   -1.924677    0.842806
     24          1           0        3.667347   -0.340105    0.807824
     25          1           0        2.971315   -0.308553   -0.811725
     26          1           0        3.388343    1.911591    0.201829
     27          1           0        1.796262    1.708032   -0.126468
     28          1           0       -0.298979    1.062854   -1.738118
 ---------------------------------------------------------------------

 SCF Done:  E(UB3LYP) =  -462.467412648     A.U. after   26 cycles

 The electronic state is 2-A.
 Alpha  occ. eigenvalues --  -19.01377 -14.19481 -14.17373 -10.13609 -10.08360
 Alpha  occ. eigenvalues --  -10.07786 -10.07384 -10.06911 -10.05285 -10.05202
 Alpha  occ. eigenvalues --   -0.92010  -0.80922  -0.76338  -0.69262  -0.61842
 Alpha  occ. eigenvalues --   -0.59415  -0.57864  -0.53134  -0.47763  -0.46910
 Alpha  occ. eigenvalues --   -0.40153  -0.39077  -0.37524  -0.35650  -0.34507
 Alpha  occ. eigenvalues --   -0.33467  -0.33330  -0.29465  -0.29220  -0.28813
 Alpha  occ. eigenvalues --   -0.28118  -0.26878  -0.26398  -0.25091  -0.24895
 Alpha  occ. eigenvalues --   -0.23551  -0.22741  -0.22416  -0.18236  -0.13342
 Alpha  occ. eigenvalues --   -0.10650   0.04786
 Alpha virt. eigenvalues --    0.07028   0.07788   0.08184   0.09561   0.09640
 Alpha virt. eigenvalues --    0.10159   0.10877   0.10987   0.12129   0.13051
 Alpha virt. eigenvalues --    0.13062   0.13548   0.13865   0.14737   0.15660

  Beta  occ. eigenvalues --  -19.01343 -14.19479 -14.17358 -10.13605 -10.08349
  Beta  occ. eigenvalues --  -10.07763 -10.07320 -10.06890 -10.05264 -10.05185
  Beta  occ. eigenvalues --   -0.91950  -0.80897  -0.76308  -0.69224  -0.61797
  Beta  occ. eigenvalues --   -0.59346  -0.57821  -0.53072  -0.47704  -0.46835
  Beta  occ. eigenvalues --   -0.40098  -0.39037  -0.37473  -0.35619  -0.34456
  Beta  occ. eigenvalues --   -0.33425  -0.33287  -0.29431  -0.29182  -0.28767
  Beta  occ. eigenvalues --   -0.28095  -0.26837  -0.26356  -0.25062  -0.24863
  Beta  occ. eigenvalues --   -0.23518  -0.22689  -0.22380  -0.18205  -0.13318
  Beta  occ. eigenvalues --   -0.10625
  Beta virt. eigenvalues --    0.07177   0.07743   0.08603   0.08889   0.09922
  Beta virt. eigenvalues --    0.09985   0.10813   0.11347   0.11630   0.12470
  Beta virt. eigenvalues --    0.13250   0.13564   0.13731   0.14200   0.15084

 Mulliken charges and spin densities:
               1          2
     1  C    0.166756  -0.661404
     2  C   -0.580839   1.232260
     3  C    0.356900  -0.989246
     4  C    0.017506  -1.424835
     5  N   -0.007422   0.284342
     6  C    1.416641  -1.734615
     7  C   -0.708022   0.626961
     8  C    0.976080  -1.369622
     9  N   -0.514872   0.113510
    10  O   -0.188979  -0.016932
    11  H    0.095618   0.031912
    12  H   -0.011409   0.154227
    13  H   -0.221738   0.369634
    14  H   -0.335837   0.500816
    15  H    0.031075   0.077775
    16  H   -0.040790   0.180509
    17  H   -0.240867   0.395873
    18  H    0.240047  -0.045235
    19  H   -0.475623   0.644225
    20  H   -0.496007   0.661332
    21  H   -0.366794   0.506557
    22  H    0.094538   0.042434
    23  H   -0.039315   0.187298
    24  H   -0.241896   0.394730
    25  H   -0.184523   0.304405
    26  H    0.044225   0.181978
    27  H    0.266085   0.022106
    28  H   -0.050536   0.329006
 Sum of Mulliken charges =  -1.00000   1.00000

 Dipole moment (field-independent basis, Debye):
    X=             -0.1618    Y=              1.6065    Z=              4.6199  Tot=              4.8939
 Quadrupole moment (field-independent basis, Debye-Ang):
   XX=           -121.6038   YY=           -104.4895   ZZ=           -102.1320
   XY=              0.1225   XZ=             -2.9713   YZ=             -5.1761

 Summary of Natural Population Analysis:

                                       Natural Population
                Natural  -----------------------------------------------
    Atom  No    Charge         Core      Valence    Rydberg      Total
 -----------------------------------------------------------------------
      C    1   -0.28394      0.99964     2.27729    0.00701     3.28394
      C    2   -0.12768      0.99959     2.11690    0.01119     3.12768
      C    3   -0.28365      0.99965     2.27738    0.00663     3.28365
      C    4    0.15716      0.99953     1.82591    0.01740     2.84284
      N    5   -0.28785      0.99971     2.77437    0.01378     3.78785
      C    6   -0.18635      0.99963     2.17656    0.01017     3.18635
      C    7   -0.08149      0.99960     2.06978    0.01210     3.08149
      C    8   -0.09914      0.99963     2.08875    0.01076     3.09914
      N    9   -0.43670      0.99977     2.92615    0.01078     3.93670
      O   10   -0.38902      0.99990     3.38221    0.00691     4.38902
      H   11    0.09300      0.00000     0.40612    0.00088     0.40700
      H   12    0.10799      0.00000     0.39087    0.00114     0.39201
      H   13    0.09699      0.00000     0.40215    0.00086     0.40301
      H   14    0.09757      0.00000     0.39956    0.00287     0.40243
      H   15    0.09253      0.00000     0.40661    0.00086     0.40747
      H   16    0.10714      0.00000     0.39182    0.00103     0.39286
      H   17    0.09789      0.00000     0.40121    0.00090     0.40211
      H   18    0.08972      0.00000     0.40862    0.00166     0.41028
      H   19    0.08722      0.00000     0.40986    0.00292     0.41278
      H   20    0.09900      0.00000     0.39934    0.00166     0.40100
      H   21    0.09852      0.00000     0.39946    0.00202     0.40148
      H   22    0.09398      0.00000     0.40465    0.00137     0.40602
      H   23    0.09364      0.00000     0.40526    0.00110     0.40636
      H   24    0.08649      0.00000     0.41213    0.00138     0.41351
      H   25    0.08149      0.00000     0.41651    0.00200     0.41851
      H   26    0.17080      0.00000     0.32763    0.00157     0.32920
      H   27    0.19009      0.00000     0.30748    0.00243     0.30991
      H   28    0.23460      0.00000     0.26045    0.00495     0.26540
 =======================================================================
   * Total *   -0.00000      9.99664    30.86503    0.13833    41.00000

 Normal termination of Gaussian 16 at Tue Dec  8 11:07:17 2020.
