 Gaussian 16, Revision A.03,

 -----------------------------------------------------------
 # opt freq B3LYP/6-31G(d) empiricaldispersion=gd3bj scf=xqc
 -----------------------------------------------------------

 -------------------------------
 CID_113515279_JID_7251_neutraal
 -------------------------------
 Symbolic Z-matrix:
 Charge =  0 Multiplicity = 1

 SCF Done:  E(RB3LYP) =  -1087.74161507     A.U. after   14 cycles
 SCF Done:  E(RB3LYP) =  -1087.74759714     A.U. after   13 cycles
 SCF Done:  E(RB3LYP) =  -1087.74754167     A.U. after   13 cycles
 SCF Done:  E(RB3LYP) =  -1087.74919473     A.U. after   13 cycles
 SCF Done:  E(RB3LYP) =  -1087.74993079     A.U. after   13 cycles
 SCF Done:  E(RB3LYP) =  -1087.75135570     A.U. after   12 cycles
 SCF Done:  E(RB3LYP) =  -1087.75156860     A.U. after   12 cycles
 SCF Done:  E(RB3LYP) =  -1087.75161968     A.U. after   10 cycles
 SCF Done:  E(RB3LYP) =  -1087.75164245     A.U. after   10 cycles
 SCF Done:  E(RB3LYP) =  -1087.75165093     A.U. after   10 cycles
 SCF Done:  E(RB3LYP) =  -1087.75168105     A.U. after   10 cycles
 SCF Done:  E(RB3LYP) =  -1087.75170662     A.U. after   10 cycles
 SCF Done:  E(RB3LYP) =  -1087.75170699     A.U. after    9 cycles
 SCF Done:  E(RB3LYP) =  -1087.75170731     A.U. after    8 cycles
 SCF Done:  E(RB3LYP) =  -1087.75170733     A.U. after    6 cycles
 Optimization completed.
    -- Stationary point found.
 Normal termination of Gaussian 16 at Fri Dec 11 12:48:13 2020.

 --------------------------------------------------------------------
 #N Geom=AllCheck Guess=TCheck SCRF=Check GenChk RB3LYP/6-31G(d) Freq
 --------------------------------------------------------------------

 Structure from the checkpoint file:  "JID_7251.chk"
 -------------------------------
 CID_113515279_JID_7251_neutraal
 -------------------------------
 Charge =  0 Multiplicity = 1

 SCF Done:  E(RB3LYP) =  -1087.75170733     A.U. after    1 cycles

  Exact polarizability: 185.939  12.408 160.971  -7.879   4.704 139.211
 Approx polarizability: 249.729  23.868 246.968 -18.402  14.820 225.450

                      1                      2                      3
                      A                      A                      A
 Frequencies --     31.4366                43.5407                50.2078
 Red. masses --      4.5149                 3.7601                 3.8063
 Frc consts  --      0.0026                 0.0042                 0.0057
 IR Inten    --      0.1943                 0.6640                 2.7978

                      4                      5                      6
                      A                      A                      A
 Frequencies --     64.8413                74.7273                90.3044
 Red. masses --      1.1028                 4.3913                 3.7632
 Frc consts  --      0.0027                 0.0144                 0.0181
 IR Inten    --      0.0542                 1.0153                 1.4153

                      7                      8                      9
                      A                      A                      A
 Frequencies --    132.0228               158.8351               172.3010
 Red. masses --      2.7680                 3.0096                 2.9809
 Frc consts  --      0.0284                 0.0447                 0.0521
 IR Inten    --      0.5830                 2.0843                 0.8418

                     10                     11                     12
                      A                      A                      A
 Frequencies --    179.7241               220.8058               234.7740
 Red. masses --      2.7479                 2.0236                 1.8766
 Frc consts  --      0.0523                 0.0581                 0.0609
 IR Inten    --      1.8217                10.7136                 3.8582

                     13                     14                     15
                      A                      A                      A
 Frequencies --    254.5344               264.5454               278.9728
 Red. masses --      1.0789                 2.2432                 1.7260
 Frc consts  --      0.0412                 0.0925                 0.0791
 IR Inten    --      0.0502                13.0778                10.2247

                     16                     17                     18
                      A                      A                      A
 Frequencies --    284.9931               305.6026               340.5198
 Red. masses --      1.7065                 2.6689                 2.5480
 Frc consts  --      0.0817                 0.1469                 0.1741
 IR Inten    --      1.2563                 8.5748                 0.7744

                     19                     20                     21
                      A                      A                      A
 Frequencies --    346.7786               361.2887               381.8858
 Red. masses --      3.6381                 3.2949                 2.6396
 Frc consts  --      0.2578                 0.2534                 0.2268
 IR Inten    --     13.4864                 1.8065                 0.8675

                     22                     23                     24
                      A                      A                      A
 Frequencies --    411.8402               422.5573               470.3327
 Red. masses --      3.2035                 2.2098                 3.6927
 Frc consts  --      0.3201                 0.2325                 0.4813
 IR Inten    --      0.6994                 1.1335                 0.0495

                     25                     26                     27
                      A                      A                      A
 Frequencies --    486.7202               500.2159               571.5904
 Red. masses --      3.4540                 2.4153                 3.7569
 Frc consts  --      0.4821                 0.3561                 0.7232
 IR Inten    --      4.0267                 0.3709                 9.9822

                     28                     29                     30
                      A                      A                      A
 Frequencies --    594.3261               639.7938               658.3739
 Red. masses --      3.5986                 5.2768                 3.4091
 Frc consts  --      0.7489                 1.2726                 0.8706
 IR Inten    --      5.7549                 0.5875                 4.3375

                     31                     32                     33
                      A                      A                      A
 Frequencies --    702.2106               705.8530               741.5464
 Red. masses --      3.9356                 2.7907                 3.8843
 Frc consts  --      1.1434                 0.8192                 1.2585
 IR Inten    --      5.5769                32.6417                14.8816

                     34                     35                     36
                      A                      A                      A
 Frequencies --    798.6792               804.0409               843.1154
 Red. masses --      1.5427                 1.4566                 2.8367
 Frc consts  --      0.5798                 0.5548                 1.1880
 IR Inten    --      8.1735                 6.9256                 5.3659

                     37                     38                     39
                      A                      A                      A
 Frequencies --    857.7853               885.8936               916.4028
 Red. masses --      1.4020                 2.8549                 1.9691
 Frc consts  --      0.6078                 1.3201                 0.9743
 IR Inten    --     11.6875                 9.1236                77.5311

                     40                     41                     42
                      A                      A                      A
 Frequencies --    941.5757               951.6663               958.1990
 Red. masses --      1.9965                 1.9315                 2.4135
 Frc consts  --      1.0429                 1.0306                 1.3056
 IR Inten    --     54.0650                 1.5693                 7.5293

                     43                     44                     45
                      A                      A                      A
 Frequencies --    969.6199               980.3821              1010.2066
 Red. masses --      2.2960                 1.7424                 3.4577
 Frc consts  --      1.2718                 0.9867                 2.0790
 IR Inten    --     34.9349                15.1290                39.3709

                     46                     47                     48
                      A                      A                      A
 Frequencies --   1019.0721              1037.1310              1048.2772
 Red. masses --      2.4523                 1.6974                 1.3893
 Frc consts  --      1.5005                 1.0757                 0.8995
 IR Inten    --     31.0667                11.5655                 0.3454

                     49                     50                     51
                      A                      A                      A
 Frequencies --   1059.1362              1082.2483              1108.1405
 Red. masses --      2.8589                 1.5524                 2.3441
 Frc consts  --      1.8895                 1.0713                 1.6959
 IR Inten    --     13.1715                 3.8886                12.2310

                     52                     53                     54
                      A                      A                      A
 Frequencies --   1157.2458              1157.5125              1166.4419
 Red. masses --      1.9550                 1.3479                 1.6590
 Frc consts  --      1.5426                 1.0641                 1.3299
 IR Inten    --     35.8102                16.7431                54.1908

                     55                     56                     57
                      A                      A                      A
 Frequencies --   1179.0158              1190.0676              1213.1265
 Red. masses --      1.8418                 1.8004                 1.5005
 Frc consts  --      1.5084                 1.5023                 1.3010
 IR Inten    --     16.2430                 4.7547                 7.8515

                     58                     59                     60
                      A                      A                      A
 Frequencies --   1216.9226              1235.8173              1237.0284
 Red. masses --      1.5395                 1.9842                 1.6696
 Frc consts  --      1.3432                 1.7855                 1.5053
 IR Inten    --     13.2430                 2.4431                11.2436

                     61                     62                     63
                      A                      A                      A
 Frequencies --   1249.4365              1289.2478              1326.9607
 Red. masses --      1.5061                 1.5143                 1.3741
 Frc consts  --      1.3853                 1.4829                 1.4255
 IR Inten    --      4.4890                 7.5536                 6.1605

                     64                     65                     66
                      A                      A                      A
 Frequencies --   1335.0044              1358.3921              1370.2203
 Red. masses --      2.2379                 2.0589                 1.4442
 Frc consts  --      2.3499                 2.2384                 1.5976
 IR Inten    --     14.9478                 3.3765                10.5129

                     67                     68                     69
                      A                      A                      A
 Frequencies --   1389.1934              1401.8573              1406.6482
 Red. masses --      1.4947                 1.6781                 2.2797
 Frc consts  --      1.6995                 1.9430                 2.6576
 IR Inten    --      3.3657                16.5595                 9.5133

                     70                     71                     72
                      A                      A                      A
 Frequencies --   1421.7625              1427.9050              1431.6900
 Red. masses --      1.4105                 1.2543                 1.2897
 Frc consts  --      1.6798                 1.5067                 1.5575
 IR Inten    --     26.5606                 0.6022                 8.5433

                     73                     74                     75
                      A                      A                      A
 Frequencies --   1446.6305              1450.9659              1453.8674
 Red. masses --      2.0330                 1.7006                 1.3160
 Frc consts  --      2.5067                 2.1094                 1.6389
 IR Inten    --     22.1739                29.0323                14.0959

                     76                     77                     78
                      A                      A                      A
 Frequencies --   1470.7642              1490.8299              1496.6018
 Red. masses --      1.6355                 1.8863                 1.1077
 Frc consts  --      2.0844                 2.4701                 1.4617
 IR Inten    --      9.6582                 9.1324                 0.9252

                     79                     80                     81
                      A                      A                      A
 Frequencies --   1502.3673              1509.0307              1510.5909
 Red. masses --      1.0791                 1.0765                 1.0623
 Frc consts  --      1.4351                 1.4443                 1.4282
 IR Inten    --      4.9715                 4.6986                 6.5028

                     82                     83                     84
                      A                      A                      A
 Frequencies --   1513.7786              1519.4444              1527.8883
 Red. masses --      1.0580                 1.0591                 1.0876
 Frc consts  --      1.4285                 1.4407                 1.4960
 IR Inten    --      4.4555                 4.4739                 4.0985

                     85                     86                     87
                      A                      A                      A
 Frequencies --   1531.6035              1534.8314              1545.2577
 Red. masses --      1.0617                 1.0511                 1.1628
 Frc consts  --      1.4674                 1.4589                 1.6359
 IR Inten    --      4.6551                 1.8526                 5.0949

                     88                     89                     90
                      A                      A                      A
 Frequencies --   1608.1043              1698.6910              2951.4520
 Red. masses --      4.9060                 1.0874                 1.0753
 Frc consts  --      7.4749                 1.8487                 5.5187
 IR Inten    --     13.8977                21.7059                95.7545

                     91                     92                     93
                      A                      A                      A
 Frequencies --   2982.6686              3000.9060              3033.0491
 Red. masses --      1.0710                 1.0668                 1.0414
 Frc consts  --      5.6136                 5.6605                 5.6446
 IR Inten    --     72.9404                51.3827                36.3410

                     94                     95                     96
                      A                      A                      A
 Frequencies --   3047.2156              3063.6767              3065.6363
 Red. masses --      1.0401                 1.0378                 1.0633
 Frc consts  --      5.6902                 5.7392                 5.8877
 IR Inten    --     32.3617                58.0614                28.1198

                     97                     98                     99
                      A                      A                      A
 Frequencies --   3069.3232              3093.9590              3100.2564
 Red. masses --      1.0960                 1.0905                 1.0957
 Frc consts  --      6.0834                 6.1502                 6.2048
 IR Inten    --     26.6199                23.1402                13.1298

                    100                    101                    102
                      A                      A                      A
 Frequencies --   3107.1307              3117.1538              3122.6673
 Red. masses --      1.0998                 1.1026                 1.0860
 Frc consts  --      6.2561                 6.3124                 6.2393
 IR Inten    --     35.8592                 7.6397                27.1257

                    103                    104                    105
                      A                      A                      A
 Frequencies --   3130.3581              3135.7337              3149.8408
 Red. masses --      1.1025                 1.0989                 1.0975
 Frc consts  --      6.3652                 6.3663                 6.4158
 IR Inten    --     26.2179                15.6157                11.7796

                    106                    107                    108
                      A                      A                      A
 Frequencies --   3156.3773              3169.4045              3242.0573
 Red. masses --      1.0890                 1.1055                 1.0950
 Frc consts  --      6.3924                 6.5430                 6.7813
 IR Inten    --      8.2157                 8.0496                 6.3779

                    109                    110                    111
                      A                      A                      A
 Frequencies --   3282.8323              3440.5394              3524.7105
 Red. masses --      1.0976                 1.0507                 1.0903
 Frc consts  --      6.9694                 7.3279                 7.9807
 IR Inten    --      0.0162                 3.3221                 0.4146

 - Thermochemistry -
 -------------------
 Temperature   298.150 Kelvin.  Pressure   1.00000 Atm.
 Atom     1 has atomic number  6 and mass  12.00000

 Molecular mass:   254.15652 amu.
 Principal axes and moments of inertia in atomic units:
                           1         2         3
     Eigenvalues --  2563.053546157.746407067.78956
           X            0.99993   0.01149   0.00258
           Y           -0.01145   0.99981  -0.01572
           Z           -0.00276   0.01569   0.99987
 This molecule is an asymmetric top.
 Rotational symmetry number  1.
 Warning -- assumption of classical behavior for rotation
           may cause significant error
 Rotational temperatures (Kelvin)      0.03379     0.01407     0.01225
 Rotational constants (GHZ):           0.70414     0.29308     0.25535
 Zero-point vibrational energy     899647.2 (Joules/Mol)
                                  215.02084 (Kcal/Mol)
 Warning -- explicit consideration of  28 degrees of freedom as
           vibrations may cause significant error
 Vibrational temperatures:     45.23    62.65    72.24    93.29   107.52
          (Kelvin)            129.93   189.95   228.53   247.90   258.58
                              317.69   337.79   366.22   380.62   401.38
                              410.04   439.69   489.93   498.94   519.81
                              549.45   592.55   607.97   676.70   700.28
                              719.70   822.39   855.10   920.52   947.25
                             1010.32  1015.56  1066.92  1149.12  1156.84
                             1213.05  1234.16  1274.60  1318.50  1354.72
                             1369.24  1378.63  1395.07  1410.55  1453.46
                             1466.22  1492.20  1508.24  1523.86  1557.11
                             1594.37  1665.02  1665.40  1678.25  1696.34
                             1712.24  1745.42  1750.88  1778.07  1779.81
                             1797.66  1854.94  1909.20  1920.77  1954.42
                             1971.44  1998.74  2016.96  2023.85  2045.60
                             2054.44  2059.88  2081.38  2087.62  2091.79
                             2116.10  2144.97  2153.28  2161.57  2171.16
                             2173.40  2177.99  2186.14  2198.29  2203.64
                             2208.28  2223.28  2313.70  2444.04  4246.48
                             4291.39  4317.63  4363.88  4384.26  4407.95
                             4410.77  4416.07  4451.52  4460.58  4470.47
                             4484.89  4492.82  4503.89  4511.62  4531.92
                             4541.32  4560.07  4664.60  4723.26  4950.17
                             5071.27

 Zero-point correction=                           0.342658 (Hartree/Particle)
 Thermal correction to Energy=                    0.360967
 Thermal correction to Enthalpy=                  0.361911
 Thermal correction to Gibbs Free Energy=         0.295909
 Sum of electronic and zero-point Energies=          -1087.409050
 Sum of electronic and thermal Energies=             -1087.390740
 Sum of electronic and thermal Enthalpies=           -1087.389796
 Sum of electronic and thermal Free Energies=        -1087.455798

                     E (Thermal)             CV                S
                      KCal/Mol        Cal/Mol-Kelvin    Cal/Mol-Kelvin
 Total                  226.510             69.229            138.913
 Electronic               0.000              0.000              0.000
 Translational            0.889              2.981             42.498
 Rotational               0.889              2.981             33.078
 Vibrational            224.733             63.267             63.336
 Vibration     1          0.594              1.983              5.737
 Vibration     2          0.595              1.980              5.091
 Vibration     3          0.595              1.978              4.809
 Vibration     4          0.597              1.971              4.304
 Vibration     5          0.599              1.966              4.025
 Vibration     6          0.602              1.956              3.653
 Vibration     7          0.612              1.921              2.916
 Vibration     8          0.621              1.893              2.564
 Vibration     9          0.626              1.877              2.410
 Vibration    10          0.629              1.867              2.331
 Vibration    11          0.648              1.809              1.952
 Vibration    12          0.655              1.788              1.842
 Vibration    13          0.665              1.755              1.699
 Vibration    14          0.671              1.738              1.632
 Vibration    15          0.679              1.712              1.540
 Vibration    16          0.683              1.702              1.504
 Vibration    17          0.696              1.663              1.386
 Vibration    18          0.720              1.595              1.210
 Vibration    19          0.725              1.582              1.181
 Vibration    20          0.735              1.552              1.117
 Vibration    21          0.751              1.509              1.032
 Vibration    22          0.776              1.445              0.920
 Vibration    23          0.785              1.421              0.883
 Vibration    24          0.827              1.316              0.737
 Vibration    25          0.843              1.279              0.692
 Vibration    26          0.856              1.250              0.658
 Vibration    27          0.928              1.093              0.501
 Vibration    28          0.952              1.044              0.460

 Optimization completed.
    -- Stationary point found.
 Normal termination of Gaussian 16 at Fri Dec 11 13:07:59 2020.

 ----------------------------------------------------------------------
 # B3LYP/6-311++G(d,p) empiricaldispersion=gd3bj scf=xqc pop=npa geom=c
 heck
 ----------------------------------------------------------------------

 ---------------------------------------
 CID_113515279_JID_7251_Energie_neutraal
 ---------------------------------------
 Structure from the checkpoint file:  "JID_7251.chk"
 Charge =  0 Multiplicity = 1

 SCF Done:  E(RB3LYP) =  -1087.97216826     A.U. after   15 cycles
 Normal termination of Gaussian 16 at Fri Dec 11 13:17:20 2020.

 ----------------------------------------------------------------------
 # B3LYP/6-311++G(d,p) empiricaldispersion=gd3bj scf=xqc pop=npa geom=c
 heck
 ----------------------------------------------------------------------

 -------------------------------------
 CID_113515279_JID_7251_Energie_kation
 -------------------------------------
 Structure from the checkpoint file:  "JID_7251.chk"
 Charge =  1 Multiplicity = 2

 SCF Done:  E(UB3LYP) =  -1087.70935300     A.U. after   32 cycles
 Normal termination of Gaussian 16 at Fri Dec 11 13:46:02 2020.
 Gaussian 16:  ES64L-G16RevA.03 25-Dec-2016

 ----------------------------------------------------------------------
 # B3LYP/6-311++G(d,p) empiricaldispersion=gd3bj scf=xqc pop=npa geom=c
 heck
 ----------------------------------------------------------------------

 ------------------------------------
 CID_113515279_JID_7251_Energie_anion
 ------------------------------------
 Structure from the checkpoint file:  "JID_7251.chk"
 Charge = -1 Multiplicity = 2

                         Standard orientation:
 ---------------------------------------------------------------------
 Center     Atomic      Atomic             Coordinates (Angstroms)
 Number     Number       Type             X           Y           Z
 ---------------------------------------------------------------------
      1          6           0        4.100744   -0.990461   -0.197124
      2          6           0        2.786452   -0.222068   -0.370677
      3          6           0        2.477082    0.585924    0.936050
      4          7           0        1.099085    0.732208    1.322145
      5          6           0        0.474844   -0.483090    1.807994
      6          6           0        0.920044   -1.755591    1.041678
      7         16           0        1.390017   -1.413684   -0.693239
      8          6           0        0.294640    1.821256    0.815324
      9          6           0       -0.575627    1.601520   -0.450554
     10          6           0       -1.780266    0.729641   -0.204544
     11          6           0       -2.095109   -0.475001   -0.812593
     12          7           0       -3.274475   -0.899822   -0.282375
     13          7           0       -3.766930   -0.034870    0.633358
     14          6           0       -2.865742    0.947909    0.683974
     15          6           0       -4.049372   -2.065346   -0.654083
     16          7           0       -0.910433    2.945540   -0.971316
     17          6           0        2.880336    0.700672   -1.591136
     18          1           0        4.025358   -1.731045    0.606395
     19          1           0        4.377861   -1.513950   -1.117154
     20          1           0        4.912587   -0.296033    0.060822
     21          1           0        3.003335    0.090388    1.766145
     22          1           0        2.929541    1.579995    0.832627
     23          1           0        0.718658   -0.641193    2.874142
     24          1           0       -0.606573   -0.371820    1.734305
     25          1           0        1.768136   -2.235251    1.541349
     26          1           0        0.110918   -2.490908    1.003653
     27          1           0       -0.372919    2.176134    1.618092
     28          1           0        0.972131    2.650112    0.585083
     29          1           0        0.041638    1.110024   -1.204641
     30          1           0       -1.555445   -1.052666   -1.548426
     31          1           0       -3.023639    1.775050    1.364929
     32          1           0       -4.499335   -2.490243    0.245149
     33          1           0       -4.844315   -1.801918   -1.360497
     34          1           0       -3.387060   -2.801721   -1.114977
     35          1           0       -1.541122    2.835353   -1.765336
     36          1           0       -1.461510    3.440485   -0.267703
     37          1           0        2.974497    0.125297   -2.519196
     38          1           0        2.008007    1.352616   -1.679714
     39          1           0        3.770083    1.336649   -1.501750
 ---------------------------------------------------------------------

 SCF Done:  E(UB3LYP) =  -1087.95933946     A.U. after   33 cycles
 SCF Done:  E(UB3LYP) =  -1087.95933946     a.u. after    1 cycles

 The electronic state is 2-A.
 Alpha  occ. eigenvalues --  -88.73752 -14.29744 -14.23682 -14.20999 -14.20910
 Alpha  occ. eigenvalues --  -10.11896 -10.11486 -10.11095 -10.10918 -10.10817
 Alpha  occ. eigenvalues --  -10.10665 -10.10346 -10.10173 -10.09684 -10.07658
 Alpha  occ. eigenvalues --  -10.07646 -10.07245  -7.82417  -5.78792  -5.78465
 Alpha  occ. eigenvalues --   -5.77772  -0.95745  -0.84145  -0.80249  -0.74890
 Alpha  occ. eigenvalues --   -0.73336  -0.69782  -0.68642  -0.64258  -0.60873
 Alpha  occ. eigenvalues --   -0.60594  -0.60286  -0.56220  -0.53693  -0.50160
 Alpha  occ. eigenvalues --   -0.48728  -0.47705  -0.43524  -0.42949  -0.41301
 Alpha  occ. eigenvalues --   -0.39643  -0.38838  -0.38220  -0.37403  -0.36080
 Alpha  occ. eigenvalues --   -0.34864  -0.34600  -0.34281  -0.33596  -0.32446
 Alpha  occ. eigenvalues --   -0.31560  -0.31438  -0.30686  -0.30636  -0.29860
 Alpha  occ. eigenvalues --   -0.28180  -0.27656  -0.26984  -0.26087  -0.25881
 Alpha  occ. eigenvalues --   -0.25374  -0.23750  -0.21031  -0.20367  -0.17877
 Alpha  occ. eigenvalues --   -0.16457  -0.14497  -0.12660  -0.10831   0.04080
 Alpha virt. eigenvalues --    0.05613   0.06454   0.06904   0.07978   0.08004
 Alpha virt. eigenvalues --    0.08516   0.08691   0.09208   0.09895   0.10004
 Alpha virt. eigenvalues --    0.10469   0.10917   0.11138   0.11726   0.12046

  Beta  occ. eigenvalues --  -88.73748 -14.29744 -14.23674 -14.20990 -14.20909
  Beta  occ. eigenvalues --  -10.11888 -10.11429 -10.11093 -10.10905 -10.10798
  Beta  occ. eigenvalues --  -10.10658 -10.10335 -10.10151 -10.09679 -10.07647
  Beta  occ. eigenvalues --  -10.07645 -10.07218  -7.82412  -5.78784  -5.78461
  Beta  occ. eigenvalues --   -5.77768  -0.95738  -0.84136  -0.80236  -0.74872
  Beta  occ. eigenvalues --   -0.73317  -0.69768  -0.68615  -0.64233  -0.60820
  Beta  occ. eigenvalues --   -0.60566  -0.60244  -0.56191  -0.53657  -0.50125
  Beta  occ. eigenvalues --   -0.48708  -0.47659  -0.43486  -0.42909  -0.41278
  Beta  occ. eigenvalues --   -0.39620  -0.38816  -0.38193  -0.37376  -0.36060
  Beta  occ. eigenvalues --   -0.34828  -0.34574  -0.34254  -0.33575  -0.32415
  Beta  occ. eigenvalues --   -0.31531  -0.31410  -0.30651  -0.30607  -0.29831
  Beta  occ. eigenvalues --   -0.28156  -0.27636  -0.26963  -0.26065  -0.25865
  Beta  occ. eigenvalues --   -0.25351  -0.23717  -0.21011  -0.20346  -0.17866
  Beta  occ. eigenvalues --   -0.16446  -0.14486  -0.12645  -0.10809
  Beta virt. eigenvalues --    0.05991   0.06659   0.06966   0.07280   0.08296
  Beta virt. eigenvalues --    0.08459   0.08781   0.08846   0.09700   0.10153
  Beta virt. eigenvalues --    0.10190   0.10757   0.11252   0.11402   0.11867

 Mulliken charges and spin densities:
               1          2
     1  C    0.262729  -0.773586
     2  C   -0.661069   1.292877
     3  C    0.070551  -0.955131
     4  N    0.057219   0.082302
     5  C   -0.095292  -0.016724
     6  C   -0.324474  -0.437884
     7  S    0.619451  -0.408416
     8  C   -0.150039  -0.340013
     9  C   -0.555130  -0.242714
    10  C    0.814868  -0.129245
    11  C   -1.201212   0.394656
    12  N    0.134488   0.123925
    13  N   -0.406551   0.271622
    14  C    0.291620  -0.528071
    15  C    1.385670  -1.676959
    16  N   -0.211391   0.030689
    17  C   -0.001307  -0.631391
    18  H   -0.099029   0.243544
    19  H   -0.020948   0.163969
    20  H   -0.214347   0.346918
    21  H   -0.087336   0.279571
    22  H   -0.066947   0.229103
    23  H   -0.263290   0.438218
    24  H    0.276065  -0.134561
    25  H    0.107306   0.110778
    26  H   -0.134237   0.366468
    27  H    0.093197   0.087255
    28  H    0.118134   0.042183
    29  H    0.402371  -0.072756
    30  H   -0.251546   0.424833
    31  H    0.031319   0.098389
    32  H   -0.279201   0.445144
    33  H   -0.444728   0.624530
    34  H   -0.540800   0.700428
    35  H    0.107314   0.117788
    36  H    0.163107   0.065592
    37  H    0.051290   0.106220
    38  H    0.059403   0.081668
    39  H   -0.037226   0.178782
 Sum of Mulliken charges =  -1.00000   1.00000

 Dipole moment (field-independent basis, Debye):
    X=              1.9164    Y=              4.5510    Z=              0.5938  Tot=              4.9736
 Quadrupole moment (field-independent basis, Debye-Ang):
   XX=           -206.9701   YY=           -165.6002   ZZ=           -151.0611
   XY=            -15.6419   XZ=             -8.2208   YZ=             -2.0867

 Summary of Natural Population Analysis:

                                       Natural Population
                Natural  -----------------------------------------------
    Atom  No    Charge         Core      Valence    Rydberg      Total
 -----------------------------------------------------------------------
      C    1   -0.29148      0.99960     2.28320    0.00869     3.29148
      C    2   -0.10199      0.99957     2.08806    0.01436     3.10199
      C    3   -0.08283      0.99955     2.06888    0.01440     3.08283
      N    4   -0.28656      0.99970     2.77216    0.01470     3.78656
      C    5   -0.08372      0.99960     2.07252    0.01160     3.08372
      C    6   -0.26305      0.99960     2.25243    0.01103     3.26305
      S    7    0.09485      4.99957     2.88942    0.01616     7.90515
      C    8   -0.07171      0.99958     2.06045    0.01167     3.07171
      C    9   -0.03730      0.99955     2.02629    0.01146     3.03730
      C   10   -0.08648      0.99950     2.07336    0.01361     3.08648
      C   11   -0.00141      0.99948     1.98995    0.01197     3.00141
      N   12   -0.10589      0.99967     2.59259    0.01363     3.60589
      N   13   -0.15217      0.99973     2.64050    0.01193     3.65217
      C   14   -0.01700      0.99957     2.00420    0.01323     3.01700
      C   15   -0.17127      0.99963     2.16312    0.00851     3.17127
      N   16   -0.41616      0.99978     2.90818    0.00820     3.91616
      C   17   -0.29030      0.99960     2.28289    0.00781     3.29030
      H   18    0.10255      0.00000     0.39637    0.00107     0.39745
      H   19    0.10290      0.00000     0.39602    0.00109     0.39710
      H   20    0.09931      0.00000     0.39929    0.00140     0.40069
      H   21    0.09527      0.00000     0.40328    0.00145     0.40473
      H   22    0.10082      0.00000     0.39790    0.00128     0.39918
      H   23    0.08727      0.00000     0.41146    0.00127     0.41273
      H   24    0.10553      0.00000     0.39252    0.00195     0.39447
      H   25    0.09854      0.00000     0.39963    0.00183     0.40146
      H   26    0.11227      0.00000     0.38654    0.00119     0.38773
      H   27    0.08625      0.00000     0.41262    0.00113     0.41375
      H   28    0.10161      0.00000     0.39710    0.00129     0.39839
      H   29    0.10246      0.00000     0.39477    0.00277     0.39754
      H   30    0.11247      0.00000     0.38610    0.00142     0.38753
      H   31    0.09602      0.00000     0.40290    0.00108     0.40398
      H   32    0.10577      0.00000     0.39246    0.00177     0.39423
      H   33    0.09930      0.00000     0.39877    0.00193     0.40070
      H   34    0.10438      0.00000     0.39284    0.00278     0.39562
      H   35    0.17591      0.00000     0.32249    0.00160     0.32409
      H   36    0.16887      0.00000     0.32949    0.00164     0.33113
      H   37    0.10201      0.00000     0.39718    0.00081     0.39799
      H   38    0.10380      0.00000     0.39506    0.00114     0.39620
      H   39    0.10113      0.00000     0.39789    0.00098     0.39887
 =======================================================================
   * Total *   -0.00000     20.99327    47.77091    0.23582    69.00000

 Normal termination of Gaussian 16 at Fri Dec 11 14:14:22 2020.
