 Gaussian 16, Revision A.03,

 -----------------------------------------------------------
 # opt freq B3LYP/6-31G(d) empiricaldispersion=gd3bj scf=xqc
 -----------------------------------------------------------

 -------------------------------
 CID_133669096_JID_4779_neutraal
 -------------------------------
 Symbolic Z-matrix:
 Charge =  0 Multiplicity = 1

 SCF Done:  E(RB3LYP) =  -613.793193513     A.U. after   15 cycles
 SCF Done:  E(RB3LYP) =  -613.795159165     A.U. after   12 cycles
 SCF Done:  E(RB3LYP) =  -613.795240647     A.U. after   11 cycles
 SCF Done:  E(RB3LYP) =  -613.795203476     A.U. after   12 cycles
 SCF Done:  E(RB3LYP) =  -613.795277736     A.U. after   11 cycles
 SCF Done:  E(RB3LYP) =  -613.795278684     A.U. after    8 cycles
 SCF Done:  E(RB3LYP) =  -613.795278888     A.U. after    7 cycles
 SCF Done:  E(RB3LYP) =  -613.795278940     A.U. after    7 cycles
 SCF Done:  E(RB3LYP) =  -613.795278967     A.U. after    7 cycles
 Optimization completed.
    -- Stationary point found.
 Normal termination of Gaussian 16 at Thu Dec 10 10:30:52 2020.

 --------------------------------------------------------------------
 #N Geom=AllCheck Guess=TCheck SCRF=Check GenChk RB3LYP/6-31G(d) Freq
 --------------------------------------------------------------------

 Structure from the checkpoint file:  "JID_4779.chk"
 -------------------------------
 CID_133669096_JID_4779_neutraal
 -------------------------------
 Charge =  0 Multiplicity = 1

 SCF Done:  E(RB3LYP) =  -613.795278967     A.U. after    1 cycles

  Exact polarizability: 222.661   7.683 148.664  -0.000   0.000  48.924
 Approx polarizability: 380.156  38.263 250.345  -0.000  -0.001  76.452

                      1                      2                      3
                      A                      A                      A
 Frequencies --     47.1144                74.5038               126.4063
 Red. masses --      9.9423                 5.0504                 5.7999
 Frc consts  --      0.0130                 0.0165                 0.0546
 IR Inten    --      0.8750                 0.1771                 0.5209

                      4                      5                      6
                      A                      A                      A
 Frequencies --    145.3709               150.8720               188.8847
 Red. masses --      3.0933                 1.2249                 2.5204
 Frc consts  --      0.0385                 0.0164                 0.0530
 IR Inten    --      1.6571                 0.0209                 0.0348

                      7                      8                      9
                      A                      A                      A
 Frequencies --    212.6360               235.7567               256.8286
 Red. masses --      3.7819                 3.8877                 4.5875
 Frc consts  --      0.1007                 0.1273                 0.1783
 IR Inten    --      0.1056                 0.7402                 0.8890

                     10                     11                     12
                      A                      A                      A
 Frequencies --    376.1676               414.3907               435.9748
 Red. masses --      9.4160                 3.2510                 3.7039
 Frc consts  --      0.7850                 0.3289                 0.4148
 IR Inten    --      3.5518                 2.2588                 0.2133

                     13                     14                     15
                      A                      A                      A
 Frequencies --    511.3995               536.4917               569.3172
 Red. masses --      3.9622                 5.0958                 5.9192
 Frc consts  --      0.6105                 0.8642                 1.1304
 IR Inten    --      9.5526                 0.4048                 4.4432

                     16                     17                     18
                      A                      A                      A
 Frequencies --    593.0193               595.4984               634.0391
 Red. masses --      2.7817                 1.3385                 4.0573
 Frc consts  --      0.5764                 0.2797                 0.9610
 IR Inten    --     12.9976                79.3336                61.6883

                     19                     20                     21
                      A                      A                      A
 Frequencies --    676.7084               692.1802               726.7191
 Red. masses --      2.6020                 5.8063                 2.8129
 Frc consts  --      0.7020                 1.6390                 0.8752
 IR Inten    --      0.0161                 4.7534                15.4926

                     22                     23                     24
                      A                      A                      A
 Frequencies --    767.2294               773.2802               783.6136
 Red. masses --      4.9949                 1.3459                 4.5377
 Frc consts  --      1.7323                 0.4742                 1.6417
 IR Inten    --      1.7540                53.6139                17.8185

                     25                     26                     27
                      A                      A                      A
 Frequencies --    842.2364               863.6243               892.2486
 Red. masses --      4.3004                 1.4219                 1.3837
 Frc consts  --      1.7973                 0.6249                 0.6490
 IR Inten    --      4.7032                14.7665                 0.0018

                     28                     29                     30
                      A                      A                      A
 Frequencies --    900.0945               911.9323               938.6441
 Red. masses --      1.6172                 5.4161                 1.3871
 Frc consts  --      0.7719                 2.6538                 0.7200
 IR Inten    --     21.5946                 9.8137                 2.3087

                     31                     32                     33
                      A                      A                      A
 Frequencies --    979.7528              1017.7430              1048.6442
 Red. masses --      1.2686                 1.7571                 3.0768
 Frc consts  --      0.7175                 1.0723                 1.9935
 IR Inten    --      0.0014                 4.5463                15.3352

                     34                     35                     36
                      A                      A                      A
 Frequencies --   1053.2308              1074.5918              1114.3006
 Red. masses --      2.3855                 1.5627                 2.4365
 Frc consts  --      1.5591                 1.0632                 1.7825
 IR Inten    --      3.0353                 2.3315                 6.3791

                     37                     38                     39
                      A                      A                      A
 Frequencies --   1138.5312              1192.0289              1204.5818
 Red. masses --      1.9777                 1.2318                 1.8104
 Frc consts  --      1.5104                 1.0312                 1.5477
 IR Inten    --      4.7639                39.5129                70.6863

                     40                     41                     42
                      A                      A                      A
 Frequencies --   1219.3512              1254.3771              1316.1871
 Red. masses --      1.9310                 1.8927                 1.7087
 Frc consts  --      1.6916                 1.7546                 1.7441
 IR Inten    --    213.0294                12.2591                14.2401

                     43                     44                     45
                      A                      A                      A
 Frequencies --   1342.3412              1379.0983              1396.1493
 Red. masses --      2.2325                 2.1600                 2.4566
 Frc consts  --      2.3701                 2.4205                 2.8213
 IR Inten    --      6.1053                 2.4694               126.3201

                     46                     47                     48
                      A                      A                      A
 Frequencies --   1422.6520              1442.6174              1503.1830
 Red. masses --      2.8215                 1.5045                 2.5126
 Frc consts  --      3.3646                 1.8447                 3.3450
 IR Inten    --     36.4729                13.0849                24.7786

                     49                     50                     51
                      A                      A                      A
 Frequencies --   1504.9130              1508.1443              1513.3951
 Red. masses --      1.0442                 2.3987                 1.1585
 Frc consts  --      1.3934                 3.2145                 1.5633
 IR Inten    --      7.9283                 7.4305                26.6683

                     52                     53                     54
                      A                      A                      A
 Frequencies --   1634.9107              1660.2694              1662.8063
 Red. masses --      5.4685                 6.6955                 6.3421
 Frc consts  --      8.6121                10.8741                10.3316
 IR Inten    --     21.1511                 6.2680                25.7682

                     55                     56                     57
                      A                      A                      A
 Frequencies --   1696.8254              1805.4386              3036.6391
 Red. masses --      8.8412                 8.7016                 1.0387
 Frc consts  --     14.9981                16.7115                 5.6432
 IR Inten    --     33.5756               503.8646                20.1138

                     58                     59                     60
                      A                      A                      A
 Frequencies --   3083.1292              3136.4150              3184.9388
 Red. masses --      1.0995                 1.0997                 1.0856
 Frc consts  --      6.1578                 6.3738                 6.4883
 IR Inten    --     15.5647                16.3196                 2.0856

                     61                     62                     63
                      A                      A                      A
 Frequencies --   3190.9506              3200.7784              3212.8181
 Red. masses --      1.0889                 1.0927                 1.0958
 Frc consts  --      6.5323                 6.5955                 6.6645
 IR Inten    --      2.6571                25.4226                21.5259

                     64                     65                     66
                      A                      A                      A
 Frequencies --   3214.3324              3288.2333              3694.3539
 Red. masses --      1.0902                 1.0947                 1.0641
 Frc consts  --      6.6362                 6.9738                 8.5564
 IR Inten    --     10.4567                 3.1508                78.2516

 - Thermochemistry -
 -------------------
 Temperature   298.150 Kelvin.  Pressure   1.00000 Atm.
 Atom     1 has atomic number  6 and mass  12.00000

 Molecular mass:   186.06808 amu.
 Principal axes and moments of inertia in atomic units:
                           1         2         3
     Eigenvalues --  1453.563683984.420355426.81774
           X            1.00000  -0.00107   0.00000
           Y            0.00107   1.00000   0.00000
           Z           -0.00000  -0.00000   1.00000
 This molecule is an asymmetric top.
 Rotational symmetry number  1.
 Warning -- assumption of classical behavior for rotation
           may cause significant error
 Rotational temperatures (Kelvin)      0.05959     0.02174     0.01596
 Rotational constants (GHZ):           1.24160     0.45295     0.33256
 Zero-point vibrational energy     497657.5 (Joules/Mol)
                                  118.94300 (Kcal/Mol)
 Warning -- explicit consideration of  17 degrees of freedom as
           vibrations may cause significant error
 Vibrational temperatures:     67.79   107.19   181.87   209.16   217.07
          (Kelvin)            271.76   305.94   339.20   369.52   541.22
                              596.22   627.27   735.79   771.89   819.12
                              853.22   856.79   912.24   973.63   995.89
                             1045.59  1103.87  1112.58  1127.45  1211.79
                             1242.56  1283.75  1295.04  1312.07  1350.50
                             1409.65  1464.31  1508.77  1515.36  1546.10
                             1603.23  1638.09  1715.06  1733.12  1754.37
                             1804.77  1893.70  1931.33  1984.21  2008.75
                             2046.88  2075.60  2162.75  2165.23  2169.88
                             2177.44  2352.27  2388.76  2392.41  2441.35
                             2597.62  4369.05  4435.94  4512.60  4582.42
                             4591.07  4605.21  4622.53  4624.71  4731.03
                             5315.35

 Zero-point correction=                           0.189548 (Hartree/Particle)
 Thermal correction to Energy=                    0.201337
 Thermal correction to Enthalpy=                  0.202281
 Thermal correction to Gibbs Free Energy=         0.151107
 Sum of electronic and zero-point Energies=           -613.605731
 Sum of electronic and thermal Energies=              -613.593942
 Sum of electronic and thermal Enthalpies=            -613.592997
 Sum of electronic and thermal Free Energies=         -613.644172

                     E (Thermal)             CV                S
                      KCal/Mol        Cal/Mol-Kelvin    Cal/Mol-Kelvin
 Total                  126.341             45.573            107.705
 Electronic               0.000              0.000              0.000
 Translational            0.889              2.981             41.569
 Rotational               0.889              2.981             31.819
 Vibrational            124.564             39.611             34.317
 Vibration     1          0.595              1.979              4.935
 Vibration     2          0.599              1.966              4.031
 Vibration     3          0.611              1.927              3.000
 Vibration     4          0.617              1.908              2.732
 Vibration     5          0.618              1.902              2.661
 Vibration     6          0.633              1.855              2.239
 Vibration     7          0.644              1.822              2.021
 Vibration     8          0.655              1.786              1.835
 Vibration     9          0.666              1.751              1.683
 Vibration    10          0.747              1.521              1.055
 Vibration    11          0.778              1.439              0.911
 Vibration    12          0.796              1.392              0.839
 Vibration    13          0.867              1.225              0.630
 Vibration    14          0.892              1.169              0.573
 Vibration    15          0.925              1.098              0.506
 Vibration    16          0.951              1.047              0.462
 Vibration    17          0.953              1.041              0.457

 Optimization completed.
    -- Stationary point found.
 Normal termination of Gaussian 16 at Thu Dec 10 10:36:53 2020.

 ----------------------------------------------------------------------
 # B3LYP/6-311++G(d,p) empiricaldispersion=gd3bj scf=xqc pop=npa geom=c
 heck
 ----------------------------------------------------------------------

 ---------------------------------------
 CID_133669096_JID_4779_Energie_neutraal
 ---------------------------------------
 Structure from the checkpoint file:  "JID_4779.chk"
 Charge =  0 Multiplicity = 1

 SCF Done:  E(RB3LYP) =  -613.966376017     A.U. after   15 cycles
 Normal termination of Gaussian 16 at Thu Dec 10 10:39:38 2020.

 ----------------------------------------------------------------------
 # B3LYP/6-311++G(d,p) empiricaldispersion=gd3bj scf=xqc pop=npa geom=c
 heck
 ----------------------------------------------------------------------

 -------------------------------------
 CID_133669096_JID_4779_Energie_kation
 -------------------------------------
 Structure from the checkpoint file:  "JID_4779.chk"
 Charge =  1 Multiplicity = 2

 SCF Done:  E(UB3LYP) =  -613.670676807     A.U. after   25 cycles
 Normal termination of Gaussian 16 at Thu Dec 10 10:44:12 2020.
 Gaussian 16:  ES64L-G16RevA.03 25-Dec-2016

 ----------------------------------------------------------------------
 # B3LYP/6-311++G(d,p) empiricaldispersion=gd3bj scf=xqc pop=npa geom=c
 heck
 ----------------------------------------------------------------------

 ------------------------------------
 CID_133669096_JID_4779_Energie_anion
 ------------------------------------
 Structure from the checkpoint file:  "JID_4779.chk"
 Charge = -1 Multiplicity = 2

                         Standard orientation:
 ---------------------------------------------------------------------
 Center     Atomic      Atomic             Coordinates (Angstroms)
 Number     Number       Type             X           Y           Z
 ---------------------------------------------------------------------
      1          6           0        1.379782    3.061404    0.000041
      2          6           0        0.790524    1.690477    0.000020
      3          6           0       -0.525659    1.354921    0.000008
      4          6           0       -0.670739   -0.105449   -0.000017
      5          6           0       -1.782653   -0.876661   -0.000043
      6          6           0       -3.189264   -0.453967    0.000005
      7          8           0       -4.121872   -1.236183    0.000164
      8          8           0       -3.390440    0.892882   -0.000149
      9          6           0        0.712299   -0.646972   -0.000017
     10          6           0        1.195636   -1.945457   -0.000030
     11          6           0        2.585279   -2.145997   -0.000019
     12          6           0        3.460553   -1.059958    0.000004
     13          6           0        2.972626    0.256330    0.000018
     14          6           0        1.598894    0.453378    0.000008
     15          1           0        0.603906    3.831785    0.000067
     16          1           0        2.017655    3.213619   -0.880674
     17          1           0        2.017679    3.213582    0.880746
     18          1           0       -1.359889    2.040163    0.000015
     19          1           0       -1.680950   -1.957094   -0.000046
     20          1           0       -4.359158    1.003847   -0.000073
     21          1           0        0.521706   -2.797905   -0.000045
     22          1           0        2.980730   -3.157377   -0.000028
     23          1           0        4.532782   -1.234033    0.000011
     24          1           0        3.660352    1.097515    0.000034
 ---------------------------------------------------------------------

 SCF Done:  E(UB3LYP) =  -614.008901407     A.U. after   19 cycles

 The electronic state is 2-A.
 Alpha  occ. eigenvalues --  -19.02254 -18.94816 -10.13682 -10.04806 -10.03945
 Alpha  occ. eigenvalues --  -10.03823 -10.03755 -10.03707 -10.02668 -10.02540
 Alpha  occ. eigenvalues --  -10.02409 -10.02285 -10.01210 -10.00868  -0.95743
 Alpha  occ. eigenvalues --   -0.86250  -0.73829  -0.68275  -0.64134  -0.60210
 Alpha  occ. eigenvalues --   -0.59679  -0.56237  -0.50480  -0.46843  -0.45711
 Alpha  occ. eigenvalues --   -0.42197  -0.40727  -0.36122  -0.34362  -0.33156
 Alpha  occ. eigenvalues --   -0.32094  -0.31122  -0.30252  -0.29896  -0.28737
 Alpha  occ. eigenvalues --   -0.28156  -0.27348  -0.25644  -0.24760  -0.23323
 Alpha  occ. eigenvalues --   -0.22060  -0.20138  -0.18909  -0.18768  -0.18224
 Alpha  occ. eigenvalues --   -0.13991  -0.13018  -0.09999  -0.07870   0.01644
 Alpha virt. eigenvalues --    0.08240   0.09062   0.09652   0.10491   0.11029
 Alpha virt. eigenvalues --    0.11671   0.12583   0.12986   0.13858   0.14565
 Alpha virt. eigenvalues --    0.14637   0.15938   0.16212   0.17323   0.17353

  Beta  occ. eigenvalues --  -19.02222 -18.94493 -10.13564 -10.04826 -10.03972
  Beta  occ. eigenvalues --  -10.03753 -10.03730 -10.03671 -10.02568 -10.02285
  Beta  occ. eigenvalues --  -10.02277 -10.02080 -10.01184 -10.00534  -0.95532
  Beta  occ. eigenvalues --   -0.85796  -0.73465  -0.67965  -0.63667  -0.60038
  Beta  occ. eigenvalues --   -0.59243  -0.55984  -0.49982  -0.46745  -0.45429
  Beta  occ. eigenvalues --   -0.41769  -0.40553  -0.35834  -0.34186  -0.33015
  Beta  occ. eigenvalues --   -0.31895  -0.31037  -0.29696  -0.29090  -0.28614
  Beta  occ. eigenvalues --   -0.27933  -0.27242  -0.25448  -0.24050  -0.23153
  Beta  occ. eigenvalues --   -0.21903  -0.19952  -0.18708  -0.17748  -0.17045
  Beta  occ. eigenvalues --   -0.13104  -0.12676  -0.08520  -0.06788
  Beta virt. eigenvalues --    0.07497   0.08220   0.09041   0.09651   0.10469
  Beta virt. eigenvalues --    0.11297   0.11642   0.12663   0.12967   0.13837
  Beta virt. eigenvalues --    0.14546   0.15743   0.15919   0.16435   0.17351

 Mulliken charges and spin densities:
               1          2
     1  C   -0.543737  -0.016622
     2  C    0.496184   0.179651
     3  C   -0.973024  -0.006947
     4  C    0.732873   0.131272
     5  C   -0.711059   0.253606
     6  C    0.229931   0.099658
     7  O   -0.405872   0.106871
     8  O   -0.248810   0.009195
     9  C    0.126773   0.055678
    10  C   -0.498700   0.025180
    11  C   -0.448068   0.042942
    12  C   -0.328824   0.067367
    13  C   -0.263233  -0.007105
    14  C    0.545083   0.068658
    15  H    0.123979   0.000437
    16  H    0.122293   0.011274
    17  H    0.122290   0.011273
    18  H    0.132942  -0.005364
    19  H    0.126857  -0.019719
    20  H    0.268672  -0.001246
    21  H    0.079278   0.000950
    22  H    0.115241  -0.003377
    23  H    0.112281  -0.005869
    24  H    0.086651   0.002237
 Sum of Mulliken charges =  -1.00000   1.00000

 Dipole moment (field-independent basis, Debye):
    X=              3.1995    Y=              2.7512    Z=             -0.0001  Tot=              4.2197
 Quadrupole moment (field-independent basis, Debye-Ang):
   XX=           -123.1227   YY=            -94.6349   ZZ=            -91.7874
   XY=            -10.1799   XZ=              0.0011   YZ=              0.0009

 Summary of Natural Population Analysis:

                                       Natural Population
                Natural  -----------------------------------------------
    Atom  No    Charge         Core      Valence    Rydberg      Total
 -----------------------------------------------------------------------
      C    1   -0.29594      0.99964     2.29192    0.00438     3.29594
      C    2    0.03540      0.99950     1.95616    0.00893     2.96460
      C    3   -0.10111      0.99940     2.09222    0.00949     3.10111
      C    4    0.02948      0.99938     1.96134    0.00980     2.97052
      C    5   -0.06777      0.99940     2.05890    0.00947     3.06777
      C    6    0.39615      0.99969     1.58039    0.02377     2.60385
      O    7   -0.29878      0.99987     3.29180    0.00710     4.29878
      O    8   -0.35859      0.99988     3.34998    0.00874     4.35859
      C    9    0.00675      0.99947     1.98395    0.00983     2.99325
      C   10   -0.09875      0.99952     2.09046    0.00878     3.09875
      C   11   -0.11061      0.99958     2.10137    0.00966     3.11061
      C   12   -0.10317      0.99961     2.09328    0.01029     3.10317
      C   13   -0.11078      0.99942     2.10229    0.00907     3.11078
      C   14   -0.00683      0.99947     1.99836    0.00901     3.00683
      H   15    0.09731      0.00000     0.40174    0.00095     0.40269
      H   16    0.09835      0.00000     0.40031    0.00134     0.40165
      H   17    0.09835      0.00000     0.40031    0.00134     0.40165
      H   18    0.10269      0.00000     0.39626    0.00105     0.39731
      H   19    0.09246      0.00000     0.40591    0.00162     0.40754
      H   20    0.23025      0.00000     0.26680    0.00295     0.26975
      H   21    0.09551      0.00000     0.40303    0.00146     0.40449
      H   22    0.08947      0.00000     0.40947    0.00107     0.41053
      H   23    0.08832      0.00000     0.41054    0.00114     0.41168
      H   24    0.09187      0.00000     0.40632    0.00181     0.40813
 =======================================================================
   * Total *    0.00001     13.99382    34.85312    0.15304    48.99999

 Normal termination of Gaussian 16 at Thu Dec 10 10:47:51 2020.
