 Gaussian 16, Revision A.03,

 -----------------------------------------------------------
 # opt freq B3LYP/6-31G(d) empiricaldispersion=gd3bj scf=xqc
 -----------------------------------------------------------

 -------------------------------
 CID_114690313_JID_5746_neutraal
 -------------------------------
 Symbolic Z-matrix:
 Charge =  0 Multiplicity = 1

 SCF Done:  E(RB3LYP) =  -650.249555826     A.U. after   15 cycles
 SCF Done:  E(RB3LYP) =  -650.253801749     A.U. after   12 cycles
 SCF Done:  E(RB3LYP) =  -650.254813136     A.U. after   12 cycles
 SCF Done:  E(RB3LYP) =  -650.256271789     A.U. after   12 cycles
 SCF Done:  E(RB3LYP) =  -650.257064398     A.U. after   14 cycles
 SCF Done:  E(RB3LYP) =  -650.258171465     A.U. after   11 cycles
 SCF Done:  E(RB3LYP) =  -650.258804505     A.U. after   12 cycles
 SCF Done:  E(RB3LYP) =  -650.258794393     A.U. after   11 cycles
 SCF Done:  E(RB3LYP) =  -650.258928094     A.U. after   11 cycles
 SCF Done:  E(RB3LYP) =  -650.258937902     A.U. after    9 cycles
 SCF Done:  E(RB3LYP) =  -650.258941516     A.U. after    9 cycles
 SCF Done:  E(RB3LYP) =  -650.258942152     A.U. after    7 cycles
 SCF Done:  E(RB3LYP) =  -650.258942470     A.U. after    7 cycles
 SCF Done:  E(RB3LYP) =  -650.258942540     A.U. after    7 cycles
 Optimization completed.
    -- Stationary point found.
 Normal termination of Gaussian 16 at Thu Dec 10 16:46:36 2020.

 --------------------------------------------------------------------
 #N Geom=AllCheck Guess=TCheck SCRF=Check GenChk RB3LYP/6-31G(d) Freq
 --------------------------------------------------------------------

 Structure from the checkpoint file:  "JID_5746.chk"
 -------------------------------
 CID_114690313_JID_5746_neutraal
 -------------------------------
 Charge =  0 Multiplicity = 1

 SCF Done:  E(RB3LYP) =  -650.258942540     A.U. after    1 cycles

  Exact polarizability: 161.762   1.909 134.297  -5.660  -0.503 108.527
 Approx polarizability: 210.010  -0.953 217.577 -15.068   0.504 160.310

                      1                      2                      3
                      A                      A                      A
 Frequencies --     28.6033                51.3018                81.9542
 Red. masses --      3.8493                 3.3278                 1.7552
 Frc consts  --      0.0019                 0.0052                 0.0069
 IR Inten    --      0.0898                 0.5158                 0.1088

                      4                      5                      6
                      A                      A                      A
 Frequencies --     91.5239                97.0548               123.9007
 Red. masses --      3.6397                 3.8143                 4.1481
 Frc consts  --      0.0180                 0.0212                 0.0375
 IR Inten    --      1.4905                 0.4536                 0.6191

                      7                      8                      9
                      A                      A                      A
 Frequencies --    174.0909               195.5509               240.1775
 Red. masses --      2.9475                 3.1108                 1.1922
 Frc consts  --      0.0526                 0.0701                 0.0405
 IR Inten    --      1.9550                 1.7302                 1.7108

                     10                     11                     12
                      A                      A                      A
 Frequencies --    252.6886               269.1733               291.0834
 Red. masses --      1.6017                 1.8416                 1.9593
 Frc consts  --      0.0603                 0.0786                 0.0978
 IR Inten    --     11.8175                13.6185                10.6197

                     13                     14                     15
                      A                      A                      A
 Frequencies --    307.0663               340.3155               364.0051
 Red. masses --      2.5091                 2.4532                 2.7246
 Frc consts  --      0.1394                 0.1674                 0.2127
 IR Inten    --      2.1404                12.5095                 5.3060

                     16                     17                     18
                      A                      A                      A
 Frequencies --    393.4970               416.5997               450.6453
 Red. masses --      4.6050                 3.4919                 1.9477
 Frc consts  --      0.4201                 0.3571                 0.2330
 IR Inten    --      2.3644                 3.9558                 1.3985

                     19                     20                     21
                      A                      A                      A
 Frequencies --    483.5279               510.4774               610.1218
 Red. masses --      3.5670                 2.3859                 2.9808
 Frc consts  --      0.4914                 0.3663                 0.6538
 IR Inten    --      0.9506                 2.8876                 2.9628

                     22                     23                     24
                      A                      A                      A
 Frequencies --    692.0130               711.4044               733.4579
 Red. masses --      4.1066                11.0159                 3.4209
 Frc consts  --      1.1587                 3.2848                 1.0843
 IR Inten    --      1.9649                 0.5111                 2.8126

                     25                     26                     27
                      A                      A                      A
 Frequencies --    758.3103               785.7952               795.7652
 Red. masses --      1.1139                 3.4518                 2.1667
 Frc consts  --      0.3774                 1.2558                 0.8084
 IR Inten    --      2.2016                10.9329                 0.9995

                     28                     29                     30
                      A                      A                      A
 Frequencies --    827.8374               866.3495               886.8677
 Red. masses --      1.3414                 2.6367                 1.3168
 Frc consts  --      0.5416                 1.1660                 0.6102
 IR Inten    --     12.7099                 8.1973                11.8977

                     31                     32                     33
                      A                      A                      A
 Frequencies --    890.6625               893.9916               907.2477
 Red. masses --      1.4683                 1.6044                 1.9879
 Frc consts  --      0.6863                 0.7555                 0.9640
 IR Inten    --     34.4779                47.2305                18.9207

                     34                     35                     36
                      A                      A                      A
 Frequencies --    913.9659               941.5669               994.3575
 Red. masses --      1.9290                 1.9003                 2.2980
 Frc consts  --      0.9494                 0.9926                 1.3387
 IR Inten    --      5.8878                72.2037                 9.1035

                     37                     38                     39
                      A                      A                      A
 Frequencies --   1004.1840              1048.7848              1054.1462
 Red. masses --      3.4559                 1.9888                 2.7014
 Frc consts  --      2.0532                 1.2889                 1.7687
 IR Inten    --      9.2177                 6.4980                 1.5534

                     40                     41                     42
                      A                      A                      A
 Frequencies --   1058.3044              1071.0107              1091.0379
 Red. masses --      1.6719                 2.3954                 1.7589
 Frc consts  --      1.1033                 1.6189                 1.2336
 IR Inten    --      7.6612                17.6755                 0.9955

                     43                     44                     45
                      A                      A                      A
 Frequencies --   1123.3784              1134.0415              1136.9205
 Red. masses --      1.6830                 2.4104                 2.0511
 Frc consts  --      1.2514                 1.8264                 1.5621
 IR Inten    --      7.0783                 9.4240                 2.0608

                     46                     47                     48
                      A                      A                      A
 Frequencies --   1154.1207              1163.9766              1192.2697
 Red. masses --      1.9455                 1.4969                 2.1145
 Frc consts  --      1.5268                 1.1949                 1.7710
 IR Inten    --      6.4081                 1.7011                 4.0843

                     49                     50                     51
                      A                      A                      A
 Frequencies --   1201.5295              1228.8981              1238.7975
 Red. masses --      1.5421                 1.5887                 2.3647
 Frc consts  --      1.3117                 1.4136                 2.1381
 IR Inten    --      1.4032                 6.3761                 8.2452

                     52                     53                     54
                      A                      A                      A
 Frequencies --   1287.2067              1293.7120              1304.4104
 Red. masses --      1.3689                 2.5845                 1.3613
 Frc consts  --      1.3363                 2.5486                 1.3647
 IR Inten    --      3.0680                26.3949                 5.2976

                     55                     56                     57
                      A                      A                      A
 Frequencies --   1323.2579              1342.4237              1346.6628
 Red. masses --      1.7149                 1.4169                 1.3389
 Frc consts  --      1.7692                 1.5044                 1.4306
 IR Inten    --     13.5245                 1.3742                 6.6573

                     58                     59                     60
                      A                      A                      A
 Frequencies --   1351.8761              1358.4172              1362.0008
 Red. masses --      1.3893                 2.5144                 1.3340
 Frc consts  --      1.4960                 2.7337                 1.4580
 IR Inten    --      5.1237                 3.5155                 2.5958

                     61                     62                     63
                      A                      A                      A
 Frequencies --   1379.7495              1393.7174              1396.0083
 Red. masses --      1.4412                 1.4223                 1.4589
 Frc consts  --      1.6165                 1.6278                 1.6752
 IR Inten    --      2.6951                 3.4607                 1.9516

                     64                     65                     66
                      A                      A                      A
 Frequencies --   1400.0380              1418.5138              1425.0127
 Red. masses --      1.4210                 1.5102                 1.4502
 Frc consts  --      1.6411                 1.7904                 1.7351
 IR Inten    --      6.8908                 3.9365                 2.9982

                     67                     68                     69
                      A                      A                      A
 Frequencies --   1443.7952              1445.6049              1479.5563
 Red. masses --      1.2377                 1.4903                 3.8092
 Frc consts  --      1.5201                 1.8350                 4.9130
 IR Inten    --      1.0786                 1.5381                17.3218

                     70                     71                     72
                      A                      A                      A
 Frequencies --   1508.3734              1511.0072              1512.9659
 Red. masses --      1.0902                 1.0996                 1.1124
 Frc consts  --      1.4614                 1.4792                 1.5003
 IR Inten    --      1.4134                 0.5811                 5.0034

                     73                     74                     75
                      A                      A                      A
 Frequencies --   1520.2944              1523.4675              1530.1294
 Red. masses --      1.0859                 1.0554                 1.1044
 Frc consts  --      1.4787                 1.4432                 1.5235
 IR Inten    --      9.1851                 0.5359                 2.9317

                     76                     77                     78
                      A                      A                      A
 Frequencies --   1530.7826              1539.2962              1589.6349
 Red. masses --      1.0415                 1.0827                 5.4391
 Frc consts  --      1.4379                 1.5115                 8.0979
 IR Inten    --      7.9634                 7.0010                 3.4138

                     79                     80                     81
                      A                      A                      A
 Frequencies --   1696.0599              3008.5138              3018.9123
 Red. masses --      1.0910                 1.0660                 1.0741
 Frc consts  --      1.8491                 5.6845                 5.7677
 IR Inten    --     25.4801                23.0591                26.4036

                     82                     83                     84
                      A                      A                      A
 Frequencies --   3027.6946              3040.7683              3043.1714
 Red. masses --      1.0731                 1.0730                 1.0634
 Frc consts  --      5.7958                 5.8455                 5.8022
 IR Inten    --     14.5202                47.9314                19.9499

                     85                     86                     87
                      A                      A                      A
 Frequencies --   3046.9920              3052.9567              3059.5073
 Red. masses --      1.0381                 1.0622                 1.0883
 Frc consts  --      5.6784                 5.8332                 6.0021
 IR Inten    --     22.9099                18.2544                35.2173

                     88                     89                     90
                      A                      A                      A
 Frequencies --   3076.6352              3083.8292              3087.6450
 Red. masses --      1.0885                 1.0915                 1.0925
 Frc consts  --      6.0703                 6.1157                 6.1364
 IR Inten    --     43.6902                17.3956                52.3614

                     91                     92                     93
                      A                      A                      A
 Frequencies --   3089.8156              3093.4994              3107.4487
 Red. masses --      1.0998                 1.0747                 1.0940
 Frc consts  --      6.1860                 6.0593                 6.2241
 IR Inten    --     36.1233                26.9177                25.9832

                     94                     95                     96
                      A                      A                      A
 Frequencies --   3113.6021              3125.7114              3142.7293
 Red. masses --      1.1026                 1.1012                 1.1067
 Frc consts  --      6.2978                 6.3389                 6.4400
 IR Inten    --     34.8897                28.6978                22.2667

                     97                     98                     99
                      A                      A                      A
 Frequencies --   3295.8010              3443.0816              3530.0328
 Red. masses --      1.0972                 1.0498                 1.0914
 Frc consts  --      7.0222                 7.3323                 8.0127
 IR Inten    --      3.9343                 3.6292                 0.8471

 - Thermochemistry -
 -------------------
 Temperature   298.150 Kelvin.  Pressure   1.00000 Atm.
 Atom     1 has atomic number  6 and mass  12.00000

 Molecular mass:   208.16880 amu.
 Principal axes and moments of inertia in atomic units:
                           1         2         3
     Eigenvalues --  1836.548185153.383455776.90951
           X            0.99969   0.02386   0.00726
           Y           -0.02380   0.99969  -0.00749
           Z           -0.00744   0.00731   0.99995
 This molecule is an asymmetric top.
 Rotational symmetry number  1.
 Warning -- assumption of classical behavior for rotation
           may cause significant error
 Rotational temperatures (Kelvin)      0.04716     0.01681     0.01499
 Rotational constants (GHZ):           0.98268     0.35021     0.31241
 Zero-point vibrational energy     825283.8 (Joules/Mol)
                                  197.24756 (Kcal/Mol)
 Warning -- explicit consideration of  21 degrees of freedom as
           vibrations may cause significant error
 Vibrational temperatures:     41.15    73.81   117.91   131.68   139.64
          (Kelvin)            178.27   250.48   281.35   345.56   363.56
                              387.28   418.80   441.80   489.64   523.72
                              566.15   599.39   648.38   695.69   734.46
                              877.83   995.65  1023.55  1055.28  1091.04
                             1130.58  1144.93  1191.07  1246.48  1276.00
                             1281.46  1286.25  1305.33  1314.99  1354.70
                             1430.66  1444.80  1508.97  1516.68  1522.66
                             1540.95  1569.76  1616.29  1631.63  1635.78
                             1660.52  1674.70  1715.41  1728.73  1768.11
                             1782.35  1852.00  1861.36  1876.76  1903.87
                             1931.45  1937.55  1945.05  1954.46  1959.62
                             1985.15  2005.25  2008.54  2014.34  2040.92
                             2050.28  2077.30  2079.90  2128.75  2170.21
                             2174.00  2176.82  2187.36  2191.93  2201.51
                             2202.45  2214.70  2287.13  2440.25  4328.58
                             4343.54  4356.18  4374.99  4378.44  4383.94
                             4392.52  4401.95  4426.59  4436.94  4442.43
                             4445.56  4450.86  4470.93  4479.78  4497.20
                             4521.69  4741.92  4953.83  5078.93

 Zero-point correction=                           0.314334 (Hartree/Particle)
 Thermal correction to Energy=                    0.329091
 Thermal correction to Enthalpy=                  0.330035
 Thermal correction to Gibbs Free Energy=         0.271866
 Sum of electronic and zero-point Energies=           -649.944609
 Sum of electronic and thermal Energies=              -649.929851
 Sum of electronic and thermal Enthalpies=            -649.928907
 Sum of electronic and thermal Free Energies=         -649.987077

                     E (Thermal)             CV                S
                      KCal/Mol        Cal/Mol-Kelvin    Cal/Mol-Kelvin
 Total                  206.508             56.663            122.428
 Electronic               0.000              0.000              0.000
 Translational            0.889              2.981             41.903
 Rotational               0.889              2.981             32.369
 Vibrational            204.730             50.701             48.155
 Vibration     1          0.593              1.984              5.924
 Vibration     2          0.596              1.977              4.767
 Vibration     3          0.600              1.962              3.844
 Vibration     4          0.602              1.955              3.627
 Vibration     5          0.603              1.951              3.513
 Vibration     6          0.610              1.929              3.039
 Vibration     7          0.627              1.874              2.391
 Vibration     8          0.636              1.846              2.175
 Vibration     9          0.657              1.779              1.802
 Vibration    10          0.664              1.758              1.712
 Vibration    11          0.674              1.730              1.602
 Vibration    12          0.687              1.690              1.468
 Vibration    13          0.697              1.660              1.378
 Vibration    14          0.720              1.595              1.211
 Vibration    15          0.738              1.546              1.105
 Vibration    16          0.761              1.484              0.987
 Vibration    17          0.780              1.434              0.904
 Vibration    18          0.809              1.359              0.794
 Vibration    19          0.840              1.287              0.701
 Vibration    20          0.866              1.227              0.632
 Vibration    21          0.969              1.010              0.433

 Optimization completed.
    -- Stationary point found.
 Normal termination of Gaussian 16 at Thu Dec 10 16:59:46 2020.

 ----------------------------------------------------------------------
 # B3LYP/6-311++G(d,p) empiricaldispersion=gd3bj scf=xqc pop=npa geom=c
 heck
 ----------------------------------------------------------------------

 ---------------------------------------
 CID_114690313_JID_5746_Energie_neutraal
 ---------------------------------------
 Structure from the checkpoint file:  "JID_5746.chk"
 Charge =  0 Multiplicity = 1

 SCF Done:  E(RB3LYP) =  -650.439796511     A.U. after   15 cycles
 Normal termination of Gaussian 16 at Thu Dec 10 17:06:17 2020.

 ----------------------------------------------------------------------
 # B3LYP/6-311++G(d,p) empiricaldispersion=gd3bj scf=xqc pop=npa geom=c
 heck
 ----------------------------------------------------------------------

 -------------------------------------
 CID_114690313_JID_5746_Energie_kation
 -------------------------------------
 Structure from the checkpoint file:  "JID_5746.chk"
 Charge =  1 Multiplicity = 2

 SCF Done:  E(UB3LYP) =  -650.124861030     A.U. after   27 cycles
 Normal termination of Gaussian 16 at Thu Dec 10 17:22:10 2020.
 Gaussian 16:  ES64L-G16RevA.03 25-Dec-2016

 ----------------------------------------------------------------------
 # B3LYP/6-311++G(d,p) empiricaldispersion=gd3bj scf=xqc pop=npa geom=c
 heck
 ----------------------------------------------------------------------

 ------------------------------------
 CID_114690313_JID_5746_Energie_anion
 ------------------------------------
 Structure from the checkpoint file:  "JID_5746.chk"
 Charge = -1 Multiplicity = 2

                         Standard orientation:
 ---------------------------------------------------------------------
 Center     Atomic      Atomic             Coordinates (Angstroms)
 Number     Number       Type             X           Y           Z
 ---------------------------------------------------------------------
      1          6           0       -4.365785   -1.777114   -0.561490
      2          6           0       -3.304873   -0.696079   -0.774210
      3          6           0       -2.601425   -0.325847    0.535008
      4          7           0       -1.606306    0.720587    0.350394
      5          6           0       -0.307941    0.625122   -0.066753
      6          6           0        0.064182    1.948080   -0.222543
      7          7           0       -0.987509    2.757413    0.088809
      8          7           0       -2.003772    2.015207    0.430371
      9          6           0        0.396719   -0.693829   -0.232947
     10          6           0        0.784754   -1.316674    1.133043
     11          6           0        1.971284   -0.596096    1.778929
     12          6           0        3.187224   -0.615911    0.845082
     13          6           0        2.871629    0.037687   -0.510644
     14          6           0        1.633375   -0.606316   -1.152528
     15          7           0        3.968077   -0.001416   -1.485543
     16          1           0       -3.922833   -2.697936   -0.162722
     17          1           0       -4.864861   -2.027896   -1.502861
     18          1           0       -5.134481   -1.443534    0.145474
     19          1           0       -2.558018   -1.036633   -1.502605
     20          1           0       -3.756675    0.212625   -1.187610
     21          1           0       -3.321278    0.061261    1.260607
     22          1           0       -2.113898   -1.199148    0.977466
     23          1           0        1.007967    2.361548   -0.541728
     24          1           0       -0.312703   -1.378217   -0.717427
     25          1           0        1.049917   -2.369528    0.964059
     26          1           0       -0.076420   -1.311482    1.810758
     27          1           0        2.215921   -1.066171    2.738676
     28          1           0        1.691547    0.443065    1.997817
     29          1           0        3.497999   -1.658032    0.670262
     30          1           0        4.041032   -0.104946    1.309273
     31          1           0        2.665186    1.098257   -0.326205
     32          1           0        1.388356   -0.074637   -2.077141
     33          1           0        1.904173   -1.633129   -1.439903
     34          1           0        4.788980    0.456884   -1.090465
     35          1           0        4.241809   -0.973017   -1.639624
 ---------------------------------------------------------------------

 SCF Done:  E(UB3LYP) =  -650.432259453     A.U. after   31 cycles

 The electronic state is 2-A.
 Alpha  occ. eigenvalues --  -14.30250 -14.26865 -14.23656 -14.20354 -10.12721
 Alpha  occ. eigenvalues --  -10.12470 -10.10690 -10.10048 -10.09632 -10.08673
 Alpha  occ. eigenvalues --  -10.07657 -10.07593 -10.07403 -10.07392 -10.07093
 Alpha  occ. eigenvalues --   -0.99895  -0.82498  -0.80308  -0.74667  -0.70632
 Alpha  occ. eigenvalues --   -0.69807  -0.65474  -0.63330  -0.61984  -0.55074
 Alpha  occ. eigenvalues --   -0.52853  -0.51633  -0.51334  -0.49275  -0.46490
 Alpha  occ. eigenvalues --   -0.41928  -0.40331  -0.39309  -0.38847  -0.38337
 Alpha  occ. eigenvalues --   -0.35850  -0.35627  -0.35021  -0.33559  -0.32594
 Alpha  occ. eigenvalues --   -0.31422  -0.30959  -0.29436  -0.29218  -0.28587
 Alpha  occ. eigenvalues --   -0.27526  -0.26954  -0.25524  -0.25487  -0.23944
 Alpha  occ. eigenvalues --   -0.23573  -0.23035  -0.22158  -0.19008  -0.17705
 Alpha  occ. eigenvalues --   -0.16063  -0.15447   0.03877
 Alpha virt. eigenvalues --    0.05672   0.06856   0.07233   0.08002   0.08385
 Alpha virt. eigenvalues --    0.08820   0.08957   0.09984   0.10276   0.10444
 Alpha virt. eigenvalues --    0.11139   0.11603   0.11944   0.12425   0.12830

  Beta  occ. eigenvalues --  -14.30239 -14.26851 -14.23657 -14.20329 -10.12703
  Beta  occ. eigenvalues --  -10.12461 -10.10689 -10.10038 -10.09632 -10.08658
  Beta  occ. eigenvalues --  -10.07627 -10.07574 -10.07382 -10.07360 -10.07069
  Beta  occ. eigenvalues --   -0.99878  -0.82477  -0.80271  -0.74630  -0.70602
  Beta  occ. eigenvalues --   -0.69780  -0.65440  -0.63282  -0.61934  -0.55039
  Beta  occ. eigenvalues --   -0.52785  -0.51594  -0.51286  -0.49227  -0.46445
  Beta  occ. eigenvalues --   -0.41902  -0.40282  -0.39266  -0.38808  -0.38299
  Beta  occ. eigenvalues --   -0.35821  -0.35599  -0.34993  -0.33513  -0.32553
  Beta  occ. eigenvalues --   -0.31382  -0.30930  -0.29391  -0.29179  -0.28545
  Beta  occ. eigenvalues --   -0.27483  -0.26898  -0.25482  -0.25452  -0.23904
  Beta  occ. eigenvalues --   -0.23548  -0.23004  -0.22121  -0.18975  -0.17693
  Beta  occ. eigenvalues --   -0.16012  -0.15418
  Beta virt. eigenvalues --    0.06177   0.06486   0.07454   0.07841   0.08252
  Beta virt. eigenvalues --    0.08665   0.09099   0.09506   0.10417   0.10562
  Beta virt. eigenvalues --    0.10758   0.11318   0.11927   0.12283   0.12822

 Mulliken charges and spin densities:
               1          2
     1  C    1.229513  -1.901608
     2  C   -1.006778   1.216788
     3  C    0.111658  -0.677393
     4  N    0.364416   0.066342
     5  C   -0.257802  -0.724797
     6  C   -0.101373  -0.173642
     7  N   -0.141325   0.017945
     8  N   -0.012401  -0.005501
     9  C   -0.691078   1.581912
    10  C    1.087774  -1.466766
    11  C   -0.776007   0.453449
    12  C    0.643309  -0.981640
    13  C   -0.529252   0.107870
    14  C    0.660889  -1.277034
    15  N   -0.285127   0.032426
    16  H   -0.502721   0.659994
    17  H   -0.266111   0.411738
    18  H   -0.074344   0.199528
    19  H   -0.092406   0.238212
    20  H    0.110322   0.050225
    21  H    0.026228   0.187162
    22  H    0.300672  -0.178660
    23  H    0.174524   0.028150
    24  H    0.179371   0.057727
    25  H   -0.511154   0.686885
    26  H   -0.184735   0.322154
    27  H   -0.226864   0.418536
    28  H    0.183637  -0.027287
    29  H   -0.038358   0.201184
    30  H   -0.303156   0.453738
    31  H    0.156893  -0.025189
    32  H    0.163637   0.026568
    33  H   -0.537845   0.717365
    34  H    0.045498   0.178288
    35  H    0.100499   0.125331
 Sum of Mulliken charges =  -1.00000   1.00000

 Dipole moment (field-independent basis, Debye):
    X=              0.6031    Y=              4.2297    Z=              0.4124  Tot=              4.2923
 Quadrupole moment (field-independent basis, Debye-Ang):
   XX=           -167.0652   YY=           -157.2163   ZZ=           -128.1307
   XY=              2.0388   XZ=              0.0444   YZ=             -0.2286

 Summary of Natural Population Analysis:

                                       Natural Population
                Natural  -----------------------------------------------
    Atom  No    Charge         Core      Valence    Rydberg      Total
 -----------------------------------------------------------------------
      C    1   -0.28647      0.99967     2.28193    0.00488     3.28647
      C    2   -0.19401      0.99963     2.18704    0.00733     3.19401
      C    3   -0.08737      0.99960     2.07645    0.01132     3.08737
      N    4   -0.10653      0.99961     2.59348    0.01345     3.60653
      C    5    0.08239      0.99951     1.90482    0.01328     2.91761
      C    6   -0.05146      0.99953     2.03924    0.01269     3.05146
      N    7   -0.13920      0.99976     2.62536    0.01409     3.63920
      N    8   -0.04939      0.99978     2.53465    0.01496     3.54939
      C    9   -0.13286      0.99956     2.12044    0.01287     3.13286
      C   10   -0.18197      0.99961     2.17276    0.00961     3.18197
      C   11   -0.19308      0.99962     2.18466    0.00880     3.19308
      C   12   -0.19564      0.99960     2.18623    0.00981     3.19564
      C   13   -0.01469      0.99958     2.00424    0.01087     3.01469
      C   14   -0.18686      0.99960     2.17632    0.01094     3.18686
      N   15   -0.41893      0.99977     2.90943    0.00973     3.91893
      H   16    0.10249      0.00000     0.39552    0.00199     0.39751
      H   17    0.10190      0.00000     0.39716    0.00095     0.39810
      H   18    0.09560      0.00000     0.40339    0.00101     0.40440
      H   19    0.09876      0.00000     0.39976    0.00148     0.40124
      H   20    0.09910      0.00000     0.39963    0.00127     0.40090
      H   21    0.10660      0.00000     0.39182    0.00158     0.39340
      H   22    0.10517      0.00000     0.39332    0.00151     0.39483
      H   23    0.10180      0.00000     0.39659    0.00161     0.39820
      H   24    0.11210      0.00000     0.38522    0.00267     0.38790
      H   25    0.10355      0.00000     0.39378    0.00266     0.39645
      H   26    0.09928      0.00000     0.39929    0.00143     0.40072
      H   27    0.10160      0.00000     0.39747    0.00093     0.39840
      H   28    0.09511      0.00000     0.40333    0.00156     0.40489
      H   29    0.09601      0.00000     0.40180    0.00219     0.40399
      H   30    0.09720      0.00000     0.40163    0.00117     0.40280
      H   31    0.08580      0.00000     0.41195    0.00225     0.41420
      H   32    0.10642      0.00000     0.39237    0.00121     0.39358
      H   33    0.10217      0.00000     0.39644    0.00139     0.39783
      H   34    0.17288      0.00000     0.32564    0.00148     0.32712
      H   35    0.17255      0.00000     0.32568    0.00177     0.32745
 =======================================================================
   * Total *   -0.00000     14.99443    41.80885    0.19673    57.00000

 Normal termination of Gaussian 16 at Thu Dec 10 17:38:21 2020.
