 Gaussian 16, Revision A.03,

 -----------------------------------------------------------
 # opt freq B3LYP/6-31G(d) empiricaldispersion=gd3bj scf=xqc
 -----------------------------------------------------------

 -------------------------------
 CID_117233685_JID_5753_neutraal
 -------------------------------
 Symbolic Z-matrix:
 Charge =  0 Multiplicity = 1

 SCF Done:  E(RB3LYP) =  -1084.66372707     A.U. after   15 cycles
 SCF Done:  E(RB3LYP) =  -1084.67711284     A.U. after   13 cycles
 SCF Done:  E(RB3LYP) =  -1084.67973854     A.U. after   12 cycles
 SCF Done:  E(RB3LYP) =  -1084.68058225     A.U. after   13 cycles
 SCF Done:  E(RB3LYP) =  -1084.68128057     A.U. after   12 cycles
 SCF Done:  E(RB3LYP) =  -1084.68151097     A.U. after   11 cycles
 SCF Done:  E(RB3LYP) =  -1084.68167477     A.U. after   12 cycles
 SCF Done:  E(RB3LYP) =  -1084.68173217     A.U. after   11 cycles
 SCF Done:  E(RB3LYP) =  -1084.68185123     A.U. after   12 cycles
 SCF Done:  E(RB3LYP) =  -1084.68187463     A.U. after   12 cycles
 SCF Done:  E(RB3LYP) =  -1084.68222212     A.U. after   11 cycles
 SCF Done:  E(RB3LYP) =  -1084.68221245     A.U. after   11 cycles
 SCF Done:  E(RB3LYP) =  -1084.68222365     A.U. after   11 cycles
 SCF Done:  E(RB3LYP) =  -1084.68222405     A.U. after    7 cycles
 SCF Done:  E(RB3LYP) =  -1084.68222433     A.U. after    7 cycles
 SCF Done:  E(RB3LYP) =  -1084.68222445     A.U. after    7 cycles
 Optimization completed.
    -- Stationary point found.
 Normal termination of Gaussian 16 at Thu Dec 10 16:41:35 2020.

 --------------------------------------------------------------------
 #N Geom=AllCheck Guess=TCheck SCRF=Check GenChk RB3LYP/6-31G(d) Freq
 --------------------------------------------------------------------

 Structure from the checkpoint file:  "JID_5753.chk"
 -------------------------------
 CID_117233685_JID_5753_neutraal
 -------------------------------
 Charge =  0 Multiplicity = 1

 SCF Done:  E(RB3LYP) =  -1084.68222445     A.U. after    1 cycles

  Exact polarizability: 143.678  -0.622 113.847  -9.391  -7.772 118.252
 Approx polarizability: 210.698   2.910 174.550 -26.851 -16.086 204.751

                      1                      2                      3
                      A                      A                      A
 Frequencies --     17.9625                29.5495                46.4390
 Red. masses --      6.5629                 4.3594                 7.9127
 Frc consts  --      0.0012                 0.0022                 0.0101
 IR Inten    --      1.5311                 1.3539                 0.4533

                      4                      5                      6
                      A                      A                      A
 Frequencies --    123.1880               140.4584               145.4772
 Red. masses --      3.3717                 4.6665                 1.3319
 Frc consts  --      0.0301                 0.0542                 0.0166
 IR Inten    --      0.1743                 3.1659                 3.3171

                      7                      8                      9
                      A                      A                      A
 Frequencies --    172.5048               203.3714               225.5286
 Red. masses --      2.6890                 2.1750                 4.4305
 Frc consts  --      0.0471                 0.0530                 0.1328
 IR Inten    --      1.4690                 9.6684                 0.2690

                     10                     11                     12
                      A                      A                      A
 Frequencies --    297.6225               307.6302               343.5249
 Red. masses --      3.9744                 2.4808                 5.4209
 Frc consts  --      0.2074                 0.1383                 0.3769
 IR Inten    --     13.4401                 3.9975                14.9500

                     13                     14                     15
                      A                      A                      A
 Frequencies --    368.3891               383.7566               409.6081
 Red. masses --      2.9640                 7.4090                 2.9721
 Frc consts  --      0.2370                 0.6429                 0.2938
 IR Inten    --      4.2625                 5.3918                20.1665

                     16                     17                     18
                      A                      A                      A
 Frequencies --    428.5903               440.5279               476.0206
 Red. masses --      4.5166                 3.7569                 3.9639
 Frc consts  --      0.4888                 0.4296                 0.5292
 IR Inten    --      5.2665                 1.0708                 3.4101

                     19                     20                     21
                      A                      A                      A
 Frequencies --    494.7121               520.1114               557.0343
 Red. masses --      3.6283                 6.4825                 3.0564
 Frc consts  --      0.5232                 1.0332                 0.5588
 IR Inten    --      1.0100                49.7255                22.8859

                     22                     23                     24
                      A                      A                      A
 Frequencies --    592.1282               603.2046               656.8518
 Red. masses --      5.5789                13.1839                 2.9846
 Frc consts  --      1.1525                 2.8263                 0.7587
 IR Inten    --    237.9802                45.8395                61.6595

                     25                     26                     27
                      A                      A                      A
 Frequencies --    692.2415               716.0686               767.4047
 Red. masses --      3.1193                 9.6025                 1.7645
 Frc consts  --      0.8807                 2.9010                 0.6123
 IR Inten    --     75.1664                12.7515                40.1312

                     28                     29                     30
                      A                      A                      A
 Frequencies --    803.5463               846.0765               865.3578
 Red. masses --      2.4920                 1.7784                 2.4484
 Frc consts  --      0.9480                 0.7501                 1.0803
 IR Inten    --      8.3632                 4.5373                23.8082

                     31                     32                     33
                      A                      A                      A
 Frequencies --    881.7306               919.2257               950.4070
 Red. masses --      2.4042                 2.2614                 1.4833
 Frc consts  --      1.1013                 1.1258                 0.7894
 IR Inten    --      9.0263                17.5800                 7.3625

                     34                     35                     36
                      A                      A                      A
 Frequencies --    957.3965               966.3978              1012.2314
 Red. masses --      1.4993                 3.4485                 2.7497
 Frc consts  --      0.8097                 1.8975                 1.6599
 IR Inten    --      3.0163                62.2434                20.3027

                     37                     38                     39
                      A                      A                      A
 Frequencies --   1066.1050              1080.5794              1110.6630
 Red. masses --      1.6900                 1.9729                 2.9966
 Frc consts  --      1.1317                 1.3573                 2.1779
 IR Inten    --     16.7514                14.9372               140.2178

                     40                     41                     42
                      A                      A                      A
 Frequencies --   1129.5380              1144.8977              1155.5598
 Red. masses --      1.7252                 1.9305                 1.2941
 Frc consts  --      1.2968                 1.4909                 1.0181
 IR Inten    --     50.3068                29.5670                13.7858

                     43                     44                     45
                      A                      A                      A
 Frequencies --   1188.3074              1194.3447              1211.8616
 Red. masses --      2.1810                 1.7454                 1.5787
 Frc consts  --      1.8145                 1.4669                 1.3660
 IR Inten    --     53.5711                 4.5026                19.4196

                     46                     47                     48
                      A                      A                      A
 Frequencies --   1224.4570              1246.6755              1305.3471
 Red. masses --      1.7705                 1.8887                 1.2257
 Frc consts  --      1.5640                 1.7295                 1.2305
 IR Inten    --     11.9373                92.9108                15.1549

                     49                     50                     51
                      A                      A                      A
 Frequencies --   1321.1517              1329.9835              1336.5591
 Red. masses --      1.6168                 1.4193                 6.8734
 Frc consts  --      1.6627                 1.4791                 7.2344
 IR Inten    --     30.4140                21.4607               179.0441

                     52                     53                     54
                      A                      A                      A
 Frequencies --   1365.7388              1372.1790              1398.3359
 Red. masses --      2.2009                 1.4518                 1.5335
 Frc consts  --      2.4188                 1.6106                 1.7667
 IR Inten    --     49.4146                13.0470                 7.1125

                     55                     56                     57
                      A                      A                      A
 Frequencies --   1409.0053              1412.0790              1428.3625
 Red. masses --      1.4774                 1.5026                 1.3270
 Frc consts  --      1.7281                 1.7653                 1.5952
 IR Inten    --      0.4923                 2.8151                 0.8355

                     58                     59                     60
                      A                      A                      A
 Frequencies --   1457.5167              1494.9265              1506.7296
 Red. masses --      1.6187                 1.1639                 1.0947
 Frc consts  --      2.0260                 1.5325                 1.4642
 IR Inten    --     31.8906                11.0590                 6.0565

                     61                     62                     63
                      A                      A                      A
 Frequencies --   1516.9089              1519.0548              1530.4016
 Red. masses --      1.0887                 1.0868                 1.1049
 Frc consts  --      1.4760                 1.4776                 1.5247
 IR Inten    --      4.4940                 5.7345                 8.9745

                     64                     65                     66
                      A                      A                      A
 Frequencies --   1539.3490              1563.9229              1617.3520
 Red. masses --      1.0716                 1.1272                 9.9071
 Frc consts  --      1.4961                 1.6244                15.2689
 IR Inten    --      4.4554                15.1312               141.4900

                     67                     68                     69
                      A                      A                      A
 Frequencies --   1700.4804              3005.0564              3040.3453
 Red. masses --      7.9814                 1.0517                 1.0635
 Frc consts  --     13.5979                 5.5958                 5.7923
 IR Inten    --     60.0789                55.7661                31.2601

                     70                     71                     72
                      A                      A                      A
 Frequencies --   3045.9966              3051.3255              3063.5379
 Red. masses --      1.0654                 1.0693                 1.0605
 Frc consts  --      5.8240                 5.8660                 5.8640
 IR Inten    --     15.4530                16.5391                16.7466

                     73                     74                     75
                      A                      A                      A
 Frequencies --   3076.4517              3082.8261              3100.4592
 Red. masses --      1.1001                 1.0822                 1.0991
 Frc consts  --      6.1347                 6.0596                 6.2248
 IR Inten    --     40.2797                45.1420                33.4957

                     76                     77                     78
                      A                      A                      A
 Frequencies --   3107.9176              3115.6687              3116.7860
 Red. masses --      1.1012                 1.0965                 1.0909
 Frc consts  --      6.2668                 6.2711                 6.2435
 IR Inten    --     29.3819                48.0238                22.1552

                     79                     80                     81
                      A                      A                      A
 Frequencies --   3130.9248              3174.8561              3308.6031
 Red. masses --      1.1030                 1.0928                 1.0970
 Frc consts  --      6.3703                 6.4901                 7.0754
 IR Inten    --     23.3117                 9.8266                 5.4172

 - Thermochemistry -
 -------------------
 Temperature   298.150 Kelvin.  Pressure   1.00000 Atm.
 Atom     1 has atomic number  6 and mass  12.00000

 Molecular mass:   230.07251 amu.
 Principal axes and moments of inertia in atomic units:
                           1         2         3
     Eigenvalues --  1909.788274772.096844809.51094
           X            0.99992   0.00354   0.01200
           Y            0.00155   0.91652  -0.39998
           Z           -0.01241   0.39997   0.91644
 This molecule is an asymmetric top.
 Rotational symmetry number  1.
 Warning -- assumption of classical behavior for rotation
           may cause significant error
 Rotational temperatures (Kelvin)      0.04535     0.01815     0.01801
 Rotational constants (GHZ):           0.94500     0.37819     0.37524
 Zero-point vibrational energy     620032.9 (Joules/Mol)
                                  148.19142 (Kcal/Mol)
 Warning -- explicit consideration of  23 degrees of freedom as
           vibrations may cause significant error
 Vibrational temperatures:     25.84    42.52    66.82   177.24   202.09
          (Kelvin)            209.31   248.20   292.61   324.49   428.21
                              442.61   494.26   530.03   552.14   589.33
                              616.65   633.82   684.89   711.78   748.32
                              801.45   851.94   867.88   945.06   995.98
                             1030.26  1104.12  1156.12  1217.32  1245.06
                             1268.61  1322.56  1367.42  1377.48  1390.43
                             1456.38  1533.89  1554.71  1598.00  1625.15
                             1647.25  1662.59  1709.71  1718.40  1743.60
                             1761.72  1793.69  1878.10  1900.84  1913.55
                             1923.01  1964.99  1974.26  2011.89  2027.24
                             2031.67  2055.10  2097.04  2150.87  2167.85
                             2182.49  2185.58  2201.91  2214.78  2250.14
                             2327.01  2446.61  4323.61  4374.38  4382.51
                             4390.18  4407.75  4426.33  4435.50  4460.87
                             4471.60  4482.75  4484.36  4504.70  4567.91
                             4760.34

 Zero-point correction=                           0.236158 (Hartree/Particle)
 Thermal correction to Energy=                    0.250482
 Thermal correction to Enthalpy=                  0.251426
 Thermal correction to Gibbs Free Energy=         0.193226
 Sum of electronic and zero-point Energies=          -1084.446066
 Sum of electronic and thermal Energies=             -1084.431742
 Sum of electronic and thermal Enthalpies=           -1084.430798
 Sum of electronic and thermal Free Energies=        -1084.488998

                     E (Thermal)             CV                S
                      KCal/Mol        Cal/Mol-Kelvin    Cal/Mol-Kelvin
 Total                  157.180             54.469            122.492
 Electronic               0.000              0.000              0.000
 Translational            0.889              2.981             42.202
 Rotational               0.889              2.981             32.150
 Vibrational            155.402             48.508             48.141
 Vibration     1          0.593              1.986              6.848
 Vibration     2          0.593              1.984              5.859
 Vibration     3          0.595              1.979              4.964
 Vibration     4          0.610              1.930              3.050
 Vibration     5          0.615              1.913              2.798
 Vibration     6          0.617              1.908              2.731
 Vibration     7          0.626              1.876              2.408
 Vibration     8          0.639              1.835              2.102
 Vibration     9          0.650              1.802              1.914
 Vibration    10          0.691              1.678              1.430
 Vibration    11          0.697              1.659              1.375
 Vibration    12          0.722              1.588              1.196
 Vibration    13          0.741              1.537              1.086
 Vibration    14          0.753              1.505              1.024
 Vibration    15          0.774              1.449              0.928
 Vibration    16          0.790              1.408              0.863
 Vibration    17          0.800              1.382              0.825
 Vibration    18          0.833              1.303              0.721
 Vibration    19          0.850              1.262              0.671
 Vibration    20          0.875              1.205              0.610
 Vibration    21          0.913              1.124              0.530
 Vibration    22          0.950              1.049              0.463
 Vibration    23          0.962              1.025              0.444

 Optimization completed.
    -- Stationary point found.
 Normal termination of Gaussian 16 at Thu Dec 10 16:52:04 2020.

 ----------------------------------------------------------------------
 # B3LYP/6-311++G(d,p) empiricaldispersion=gd3bj scf=xqc pop=npa geom=c
 heck
 ----------------------------------------------------------------------

 ---------------------------------------
 CID_117233685_JID_5753_Energie_neutraal
 ---------------------------------------
 Structure from the checkpoint file:  "JID_5753.chk"
 Charge =  0 Multiplicity = 1

 SCF Done:  E(RB3LYP) =  -1084.89954505     A.U. after   16 cycles
 Normal termination of Gaussian 16 at Thu Dec 10 17:00:00 2020.

 ----------------------------------------------------------------------
 # B3LYP/6-311++G(d,p) empiricaldispersion=gd3bj scf=xqc pop=npa geom=c
 heck
 ----------------------------------------------------------------------

 -------------------------------------
 CID_117233685_JID_5753_Energie_kation
 -------------------------------------
 Structure from the checkpoint file:  "JID_5753.chk"
 Charge =  1 Multiplicity = 2

 SCF Done:  E(UB3LYP) =  -1084.58062451     A.U. after   27 cycles
 Normal termination of Gaussian 16 at Thu Dec 10 17:18:31 2020.
 Gaussian 16:  ES64L-G16RevA.03 25-Dec-2016

 ----------------------------------------------------------------------
 # B3LYP/6-311++G(d,p) empiricaldispersion=gd3bj scf=xqc pop=npa geom=c
 heck
 ----------------------------------------------------------------------

 ------------------------------------
 CID_117233685_JID_5753_Energie_anion
 ------------------------------------
 Structure from the checkpoint file:  "JID_5753.chk"
 Charge = -1 Multiplicity = 2

                         Standard orientation:
 ---------------------------------------------------------------------
 Center     Atomic      Atomic             Coordinates (Angstroms)
 Number     Number       Type             X           Y           Z
 ---------------------------------------------------------------------
      1          6           0       -2.338588    2.322581   -0.172147
      2          7           0       -2.294541    0.872725   -0.211888
      3          6           0       -1.927506    0.284108   -1.508180
      4          6           0       -2.224587   -1.213033   -1.563390
      5          6           0       -1.637923   -1.921725   -0.341502
      6          6           0       -2.239158   -1.305749    0.925093
      7          6           0       -2.076332    0.210918    0.998375
      8          8           0       -0.729796    0.510864    1.704698
      9          6           0        0.421300    0.302158    1.065821
     10          6           0        0.973212    0.946937    0.024675
     11         16           0        2.490426    0.118679   -0.405848
     12          8           0        2.315717   -0.612915   -1.662171
     13          8           0        3.655831    0.975095   -0.202938
     14          7           0        2.408533   -1.039723    0.907566
     15          6           0        1.320160   -0.804248    1.538563
     16          1           0       -1.344740    2.793079   -0.237092
     17          1           0       -2.944112    2.694646   -1.005714
     18          1           0       -2.798875    2.650066    0.764976
     19          1           0       -2.518299    0.808492   -2.268515
     20          1           0       -0.870978    0.455067   -1.752432
     21          1           0       -1.812380   -1.620887   -2.492209
     22          1           0       -3.310953   -1.369578   -1.586811
     23          1           0       -0.545382   -1.828177   -0.347982
     24          1           0       -1.861094   -2.993826   -0.369811
     25          1           0       -1.815938   -1.738526    1.835996
     26          1           0       -3.317086   -1.513213    0.941201
     27          1           0       -2.720357    0.635390    1.770534
     28          1           0        0.619337    1.786630   -0.551878
     29          1           0        1.038609   -1.405085    2.403011
 ---------------------------------------------------------------------

 SCF Done:  E(UB3LYP) =  -1084.93666387     A.U. after   20 cycles

 The electronic state is 2-A.
 Alpha  occ. eigenvalues --  -88.88305 -18.99832 -18.95127 -18.95057 -14.21722
 Alpha  occ. eigenvalues --  -14.13837 -10.14587 -10.10138 -10.09572 -10.07208
 Alpha  occ. eigenvalues --  -10.07203 -10.07046 -10.06338 -10.03856 -10.01464
 Alpha  occ. eigenvalues --   -7.94564  -5.90808  -5.90780  -5.90685  -0.94902
 Alpha  occ. eigenvalues --   -0.91360  -0.84296  -0.83486  -0.76586  -0.70421
 Alpha  occ. eigenvalues --   -0.66554  -0.61793  -0.60459  -0.54791  -0.53614
 Alpha  occ. eigenvalues --   -0.51244  -0.45891  -0.42429  -0.41814  -0.40430
 Alpha  occ. eigenvalues --   -0.38424  -0.37389  -0.35010  -0.34377  -0.33668
 Alpha  occ. eigenvalues --   -0.32449  -0.31489  -0.30928  -0.30263  -0.30075
 Alpha  occ. eigenvalues --   -0.28915  -0.27091  -0.26439  -0.25728  -0.23698
 Alpha  occ. eigenvalues --   -0.22935  -0.22482  -0.20727  -0.19146  -0.17979
 Alpha  occ. eigenvalues --   -0.16673  -0.16031  -0.14135  -0.12937  -0.10358
 Alpha  occ. eigenvalues --   -0.09436   0.03056
 Alpha virt. eigenvalues --    0.06614   0.07915   0.08517   0.09954   0.10617
 Alpha virt. eigenvalues --    0.10865   0.11915   0.12348   0.13340   0.13734
 Alpha virt. eigenvalues --    0.14162   0.15252   0.15818   0.16208   0.16435

  Beta  occ. eigenvalues --  -88.88311 -18.99809 -18.95019 -18.94937 -14.21716
  Beta  occ. eigenvalues --  -14.13319 -10.14523 -10.10137 -10.09564 -10.07202
  Beta  occ. eigenvalues --  -10.07042 -10.07016 -10.06331 -10.03524 -10.01123
  Beta  occ. eigenvalues --   -7.94570  -5.90801  -5.90794  -5.90696  -0.94671
  Beta  occ. eigenvalues --   -0.91221  -0.84026  -0.83444  -0.75719  -0.70408
  Beta  occ. eigenvalues --   -0.66450  -0.61248  -0.60318  -0.54595  -0.53352
  Beta  occ. eigenvalues --   -0.50801  -0.45698  -0.41851  -0.41587  -0.40248
  Beta  occ. eigenvalues --   -0.38309  -0.37306  -0.34900  -0.34298  -0.33558
  Beta  occ. eigenvalues --   -0.32365  -0.31290  -0.30847  -0.30055  -0.29667
  Beta  occ. eigenvalues --   -0.28817  -0.26993  -0.26183  -0.25328  -0.23566
  Beta  occ. eigenvalues --   -0.22909  -0.22368  -0.19380  -0.18446  -0.17466
  Beta  occ. eigenvalues --   -0.16306  -0.15553  -0.13221  -0.12546  -0.09929
  Beta  occ. eigenvalues --   -0.07581
  Beta virt. eigenvalues --    0.06579   0.07882   0.08438   0.09859   0.10428
  Beta virt. eigenvalues --    0.10585   0.10830   0.11874   0.12307   0.13312
  Beta virt. eigenvalues --    0.13712   0.14145   0.15256   0.15805   0.16257

 Mulliken charges and spin densities:
               1          2
     1  C   -0.189604  -0.013358
     2  N    0.048834  -0.009421
     3  C   -0.134778  -0.031079
     4  C   -0.544611   0.002539
     5  C   -0.080023  -0.031951
     6  C   -0.476108   0.090165
     7  C   -0.383709  -0.038577
     8  O   -0.121576   0.009080
     9  C    0.262735   0.243203
    10  C   -0.585349   0.193884
    11  S    0.163004   0.123423
    12  O   -0.201491  -0.001918
    13  O   -0.174556   0.000232
    14  N   -0.179562   0.242147
    15  C   -0.498147   0.200061
    16  H    0.154224   0.000997
    17  H    0.116866   0.000882
    18  H    0.114091   0.007700
    19  H    0.123076  -0.004004
    20  H    0.183871   0.021313
    21  H    0.162254   0.001452
    22  H    0.109075   0.000402
    23  H    0.254453  -0.007864
    24  H    0.147231   0.012939
    25  H    0.159768   0.012628
    26  H    0.116818   0.005521
    27  H    0.143751   0.011615
    28  H    0.174282  -0.020134
    29  H    0.135181  -0.021877
 Sum of Mulliken charges =  -1.00000   1.00000

 Dipole moment (field-independent basis, Debye):
    X=            -11.8300    Y=              0.6299    Z=             -0.6874  Tot=             11.8667
 Quadrupole moment (field-independent basis, Debye-Ang):
   XX=           -144.4214   YY=           -107.2854   ZZ=           -112.9370
   XY=              0.1848   XZ=              2.9063   YZ=             -3.3656

 Summary of Natural Population Analysis:

                                       Natural Population
                Natural  -----------------------------------------------
    Atom  No    Charge         Core      Valence    Rydberg      Total
 -----------------------------------------------------------------------
      C    1   -0.16978      0.99966     2.16320    0.00692     3.16978
      N    2   -0.27915      0.99966     2.76791    0.01159     3.77915
      C    3   -0.07973      0.99962     2.07159    0.00852     3.07973
      C    4   -0.19109      0.99963     2.18472    0.00674     3.19109
      C    5   -0.19646      0.99963     2.18957    0.00725     3.19646
      C    6   -0.20059      0.99960     2.19395    0.00704     3.20059
      C    7    0.16703      0.99952     1.81441    0.01904     2.83297
      O    8   -0.31011      0.99986     3.29948    0.01078     4.31011
      C    9    0.15947      0.99934     1.82479    0.01641     2.84053
      C   10   -0.19597      0.99937     2.18719    0.00940     3.19597
      S   11    1.06562      4.99933     1.83238    0.10267     6.93438
      O   12   -0.46464      0.99990     3.45831    0.00643     4.46464
      O   13   -0.46030      0.99990     3.45416    0.00623     4.46030
      N   14   -0.25476      0.99969     2.74319    0.01189     3.75476
      C   15    0.08717      0.99963     1.89532    0.01788     2.91283
      H   16    0.08972      0.00000     0.40858    0.00169     0.41028
      H   17    0.08681      0.00000     0.41206    0.00113     0.41319
      H   18    0.09395      0.00000     0.40504    0.00101     0.40605
      H   19    0.08625      0.00000     0.41246    0.00129     0.41375
      H   20    0.10237      0.00000     0.39611    0.00151     0.39763
      H   21    0.10109      0.00000     0.39789    0.00101     0.39891
      H   22    0.08672      0.00000     0.41185    0.00143     0.41328
      H   23    0.11772      0.00000     0.38070    0.00159     0.38228
      H   24    0.09338      0.00000     0.40542    0.00120     0.40662
      H   25    0.10977      0.00000     0.38910    0.00113     0.39023
      H   26    0.09254      0.00000     0.40624    0.00123     0.40746
      H   27    0.08565      0.00000     0.41329    0.00106     0.41435
      H   28    0.09863      0.00000     0.40000    0.00137     0.40137
      H   29    0.07869      0.00000     0.41956    0.00175     0.42131
 =======================================================================
   * Total *    0.00000     18.99433    41.73848    0.26719    61.00000

 Normal termination of Gaussian 16 at Thu Dec 10 17:35:39 2020.
