 Gaussian 16, Revision A.03,

 -----------------------------------------------------------
 # opt freq B3LYP/6-31G(d) empiricaldispersion=gd3bj scf=xqc
 -----------------------------------------------------------

 ------------------------------
 CID_88366094_JID_2147_neutraal
 ------------------------------
 Symbolic Z-matrix:
 Charge =  0 Multiplicity = 1

 SCF Done:  E(RB3LYP) =  -897.649067422     A.U. after   15 cycles
 SCF Done:  E(RB3LYP) =  -897.653915128     A.U. after   13 cycles
 SCF Done:  E(RB3LYP) =  -897.653397202     A.U. after   13 cycles
 SCF Done:  E(RB3LYP) =  -897.653784076     A.U. after   13 cycles
 SCF Done:  E(RB3LYP) =  -897.654722946     A.U. after   11 cycles
 SCF Done:  E(RB3LYP) =  -897.655019902     A.U. after   12 cycles
 SCF Done:  E(RB3LYP) =  -897.655053444     A.U. after   12 cycles
 SCF Done:  E(RB3LYP) =  -897.655097802     A.U. after   11 cycles
 SCF Done:  E(RB3LYP) =  -897.655102699     A.U. after   10 cycles
 SCF Done:  E(RB3LYP) =  -897.655103816     A.U. after    8 cycles
 SCF Done:  E(RB3LYP) =  -897.655104369     A.U. after    8 cycles
 SCF Done:  E(RB3LYP) =  -897.655104716     A.U. after    8 cycles
 Optimization completed.
    -- Stationary point found.
 Normal termination of Gaussian 16 at Wed Dec  9 16:49:56 2020.

 --------------------------------------------------------------------
 #N Geom=AllCheck Guess=TCheck SCRF=Check GenChk RB3LYP/6-31G(d) Freq
 --------------------------------------------------------------------

 Structure from the checkpoint file:  "JID_2147.chk"
 ------------------------------
 CID_88366094_JID_2147_neutraal
 ------------------------------
 Charge =  0 Multiplicity = 1

 SCF Done:  E(RB3LYP) =  -897.655104716     A.U. after    1 cycles

  Exact polarizability: 135.529 -10.378  99.624   2.936  13.537  96.098
 Approx polarizability: 203.644 -29.678 165.921  -1.126  36.985 160.465

                      1                      2                      3
                      A                      A                      A
 Frequencies --     39.0772                47.7995                78.2337
 Red. masses --      4.8995                 8.0417                 6.6539
 Frc consts  --      0.0044                 0.0108                 0.0240
 IR Inten    --      0.0498                 0.7836                 0.1658

                      4                      5                      6
                      A                      A                      A
 Frequencies --    205.5495               213.0710               228.2863
 Red. masses --      3.8750                 3.9052                 3.0067
 Frc consts  --      0.0965                 0.1045                 0.0923
 IR Inten    --      0.9794                 0.9707                 1.5760

                      7                      8                      9
                      A                      A                      A
 Frequencies --    273.4469               323.7384               346.8564
 Red. masses --      1.3219                 4.7733                 3.0415
 Frc consts  --      0.0582                 0.2948                 0.2156
 IR Inten    --      4.6401                15.6412                12.3712

                     10                     11                     12
                      A                      A                      A
 Frequencies --    372.0483               390.1930               415.9161
 Red. masses --      5.2507                 1.1297                 2.8609
 Frc consts  --      0.4282                 0.1013                 0.2916
 IR Inten    --     14.7853                 9.3685                 2.0583

                     13                     14                     15
                      A                      A                      A
 Frequencies --    446.8771               456.6391               475.9528
 Red. masses --      3.5717                 1.4072                 4.8218
 Frc consts  --      0.4202                 0.1729                 0.6436
 IR Inten    --     10.2398                74.6097                 1.0410

                     16                     17                     18
                      A                      A                      A
 Frequencies --    503.3678               556.9459               636.1856
 Red. masses --      4.2766                 3.3132                 6.3659
 Frc consts  --      0.6384                 0.6055                 1.5180
 IR Inten    --      5.0274                29.3022                 0.0176

                     19                     20                     21
                      A                      A                      A
 Frequencies --    684.0704               690.0105               714.6704
 Red. masses --      5.2509                 6.0972                 1.7314
 Frc consts  --      1.4477                 1.7104                 0.5210
 IR Inten    --      6.2441                 2.1881                34.4091

                     22                     23                     24
                      A                      A                      A
 Frequencies --    776.2190               840.1012               861.1762
 Red. masses --      2.0606                 2.5672                 1.2496
 Frc consts  --      0.7315                 1.0675                 0.5460
 IR Inten    --      8.1464                 0.7057                 0.8134

                     25                     26                     27
                      A                      A                      A
 Frequencies --    874.6493               932.5129               958.4551
 Red. masses --      1.8459                 1.4652                 2.1449
 Frc consts  --      0.8320                 0.7507                 1.1609
 IR Inten    --    121.2766                 3.0151                11.2944

                     28                     29                     30
                      A                      A                      A
 Frequencies --    973.7679              1000.1074              1022.7168
 Red. masses --      1.3483                 1.2606                 5.8384
 Frc consts  --      0.7533                 0.7429                 3.5980
 IR Inten    --      0.3881                 0.1392                 3.0066

                     31                     32                     33
                      A                      A                      A
 Frequencies --   1030.5493              1059.0127              1094.3432
 Red. masses --      2.0143                 2.5435                 2.6048
 Frc consts  --      1.2604                 1.6807                 1.8380
 IR Inten    --    105.2341                 6.9434                10.1225

                     34                     35                     36
                      A                      A                      A
 Frequencies --   1104.2468              1145.1444              1182.8412
 Red. masses --      1.7503                 1.9272                 3.0931
 Frc consts  --      1.2574                 1.4890                 2.5497
 IR Inten    --     32.4493                46.6584                 2.6164

                     37                     38                     39
                      A                      A                      A
 Frequencies --   1195.5323              1218.8486              1258.5495
 Red. masses --      1.1054                 1.1441                 3.1483
 Frc consts  --      0.9308                 1.0014                 2.9381
 IR Inten    --      0.2664                 3.4227                52.8093

                     40                     41                     42
                      A                      A                      A
 Frequencies --   1351.5003              1369.0294              1421.2595
 Red. masses --      2.4177                 2.1400                 1.4122
 Frc consts  --      2.6018                 2.3631                 1.6807
 IR Inten    --      2.5118                 0.5939               115.0807

                     43                     44                     45
                      A                      A                      A
 Frequencies --   1427.2986              1497.6381              1515.1148
 Red. masses --      1.2252                 2.2061                 1.0673
 Frc consts  --      1.4706                 2.9153                 1.4435
 IR Inten    --      7.3733                15.2647                 7.1360

                     46                     47                     48
                      A                      A                      A
 Frequencies --   1529.4671              1548.1658              1646.0190
 Red. masses --      1.0754                 2.1399                 5.5679
 Frc consts  --      1.4821                 3.0219                 8.8882
 IR Inten    --      3.7573                10.5147                 0.4525

                     49                     50                     51
                      A                      A                      A
 Frequencies --   1666.6150              1777.4138              2691.4121
 Red. masses --      5.5570                11.8938                 1.0381
 Frc consts  --      9.0942                22.1384                 4.4305
 IR Inten    --      2.0854               211.1209                 9.4492

                     52                     53                     54
                      A                      A                      A
 Frequencies --   3070.1121              3145.0093              3155.5752
 Red. masses --      1.0338                 1.1032                 1.1042
 Frc consts  --      5.7410                 6.4289                 6.4779
 IR Inten    --      9.3605                18.8194                10.7587

                     55                     56                     57
                      A                      A                      A
 Frequencies --   3185.9059              3196.0950              3208.5413
 Red. masses --      1.0853                 1.0896                 1.0943
 Frc consts  --      6.4905                 6.5575                 6.6377
 IR Inten    --      0.2303                14.3619                31.6725

                     58                     59                     60
                      A                      A                      A
 Frequencies --   3221.6283              3232.6108              3641.9802
 Red. masses --      1.0929                 1.0924                 1.0646
 Frc consts  --      6.6833                 6.7256                 8.3196
 IR Inten    --     11.9638                 3.8663                65.9529

 - Thermochemistry -
 -------------------
 Temperature   298.150 Kelvin.  Pressure   1.00000 Atm.
 Atom     1 has atomic number  6 and mass  12.00000

 Molecular mass:   182.04015 amu.
 Principal axes and moments of inertia in atomic units:
                           1         2         3
     Eigenvalues --  1408.447942870.239823230.70772
           X            0.99978  -0.01283   0.01676
           Y            0.01258   0.99981   0.01505
           Z           -0.01695  -0.01483   0.99975
 This molecule is an asymmetric top.
 Rotational symmetry number  1.
 Warning -- assumption of classical behavior for rotation
           may cause significant error
 Rotational temperatures (Kelvin)      0.06150     0.03018     0.02681
 Rotational constants (GHZ):           1.28137     0.62878     0.55862
 Zero-point vibrational energy     449353.9 (Joules/Mol)
                                  107.39815 (Kcal/Mol)
 Warning -- explicit consideration of  17 degrees of freedom as
           vibrations may cause significant error
 Vibrational temperatures:     56.22    68.77   112.56   295.74   306.56
          (Kelvin)            328.45   393.43   465.79   499.05   535.29
                              561.40   598.41   642.96   657.00   684.79
                              724.23   801.32   915.33   984.22   992.77
                             1028.25  1116.81  1208.72  1239.04  1258.43
                             1341.68  1379.00  1401.03  1438.93  1471.46
                             1482.73  1523.68  1574.52  1588.76  1647.61
                             1701.84  1720.10  1753.65  1810.77  1944.51
                             1969.73  2044.88  2053.56  2154.77  2179.91
                             2200.56  2227.47  2368.25  2397.89  2557.30
                             3872.34  4417.21  4524.97  4540.17  4583.81
                             4598.47  4616.38  4635.20  4651.01  5240.00

 Zero-point correction=                           0.171150 (Hartree/Particle)
 Thermal correction to Energy=                    0.182616
 Thermal correction to Enthalpy=                  0.183560
 Thermal correction to Gibbs Free Energy=         0.133063
 Sum of electronic and zero-point Energies=           -897.483955
 Sum of electronic and thermal Energies=              -897.472488
 Sum of electronic and thermal Enthalpies=            -897.471544
 Sum of electronic and thermal Free Energies=         -897.522041

                     E (Thermal)             CV                S
                      KCal/Mol        Cal/Mol-Kelvin    Cal/Mol-Kelvin
 Total                  114.593             44.045            106.280
 Electronic               0.000              0.000              0.000
 Translational            0.889              2.981             41.504
 Rotational               0.889              2.981             30.947
 Vibrational            112.816             38.083             33.830
 Vibration     1          0.594              1.981              5.305
 Vibration     2          0.595              1.978              4.906
 Vibration     3          0.600              1.964              3.935
 Vibration     4          0.640              1.832              2.083
 Vibration     5          0.644              1.821              2.017
 Vibration     6          0.651              1.798              1.892
 Vibration     7          0.676              1.722              1.574
 Vibration     8          0.708              1.628              1.291
 Vibration     9          0.725              1.582              1.180
 Vibration    10          0.744              1.530              1.071
 Vibration    11          0.758              1.491              0.999
 Vibration    12          0.779              1.436              0.906
 Vibration    13          0.806              1.368              0.805
 Vibration    14          0.815              1.346              0.776
 Vibration    15          0.833              1.303              0.721
 Vibration    16          0.859              1.243              0.650
 Vibration    17          0.912              1.125              0.530

 Optimization completed.
    -- Stationary point found.
 Normal termination of Gaussian 16 at Wed Dec  9 16:54:38 2020.

 ----------------------------------------------------------------------
 # B3LYP/6-311++G(d,p) empiricaldispersion=gd3bj scf=xqc pop=npa geom=c
 heck
 ----------------------------------------------------------------------

 --------------------------------------
 CID_88366094_JID_2147_Energie_neutraal
 --------------------------------------
 Structure from the checkpoint file:  "JID_2147.chk"
 Charge =  0 Multiplicity = 1

 SCF Done:  E(RB3LYP) =  -897.833062505     A.U. after   17 cycles
 Normal termination of Gaussian 16 at Wed Dec  9 16:57:08 2020.

 ----------------------------------------------------------------------
 # B3LYP/6-311++G(d,p) empiricaldispersion=gd3bj scf=xqc pop=npa geom=c
 heck
 ----------------------------------------------------------------------

 ------------------------------------
 CID_88366094_JID_2147_Energie_kation
 ------------------------------------
 Structure from the checkpoint file:  "JID_2147.chk"
 Charge =  1 Multiplicity = 2

 SCF Done:  E(UB3LYP) =  -897.497456924     A.U. after   33 cycles
 SCF Done:  E(UB3LYP) =  -897.497456925     a.u. after    2 cycles
 Normal termination of Gaussian 16 at Wed Dec  9 17:08:48 2020.
 Gaussian 16:  ES64L-G16RevA.03 25-Dec-2016

 ----------------------------------------------------------------------
 # B3LYP/6-311++G(d,p) empiricaldispersion=gd3bj scf=xqc pop=npa geom=c
 heck
 ----------------------------------------------------------------------

 -----------------------------------
 CID_88366094_JID_2147_Energie_anion
 -----------------------------------
 Structure from the checkpoint file:  "JID_2147.chk"
 Charge = -1 Multiplicity = 2

                         Standard orientation:
 ---------------------------------------------------------------------
 Center     Atomic      Atomic             Coordinates (Angstroms)
 Number     Number       Type             X           Y           Z
 ---------------------------------------------------------------------
      1          6           0        1.300653   -0.769073    1.856456
      2          6           0        0.830556   -0.795816    0.389028
      3          6           0       -0.633944   -0.424836    0.198775
      4          6           0       -1.300573   -0.878388   -0.946635
      5          6           0       -2.623754   -0.516452   -1.184387
      6          6           0       -3.300489    0.307270   -0.282240
      7          6           0       -2.644772    0.760929    0.860756
      8          6           0       -1.319185    0.395822    1.101612
      9          6           0        1.744171    0.179059   -0.401362
     10          8           0        2.707708   -0.235542   -1.008203
     11         16           0        1.322459    1.924108   -0.304237
     12          8           0        1.052126   -2.087867   -0.147829
     13          1           0        1.239049    0.225862    2.304618
     14          1           0        2.342204   -1.100967    1.898715
     15          1           0        0.686422   -1.464955    2.434030
     16          1           0       -0.772824   -1.529451   -1.633873
     17          1           0       -3.128907   -0.879304   -2.075137
     18          1           0       -4.332862    0.589635   -0.467980
     19          1           0       -3.163242    1.397355    1.572168
     20          1           0       -0.827440    0.756124    1.998388
     21          1           0        2.467017    2.308529   -0.907215
     22          1           0        1.936592   -2.052364   -0.559670
 ---------------------------------------------------------------------

 SCF Done:  E(UB3LYP) =  -897.824979945     A.U. after   33 cycles
 SCF Done:  E(UB3LYP) =  -897.824979945     a.u. after    1 cycles

 The electronic state is 2-A.
 Alpha  occ. eigenvalues --  -88.72794 -19.00089 -18.97251 -10.12080 -10.11447
 Alpha  occ. eigenvalues --  -10.06108 -10.05656 -10.05489 -10.05318 -10.05308
 Alpha  occ. eigenvalues --  -10.05231 -10.04923  -7.81500  -5.77854  -5.77453
 Alpha  occ. eigenvalues --   -5.76973  -0.93061  -0.89424  -0.74029  -0.67288
 Alpha  occ. eigenvalues --   -0.62902  -0.62804  -0.60955  -0.53116  -0.48710
 Alpha  occ. eigenvalues --   -0.47402  -0.43856  -0.40207  -0.36379  -0.35036
 Alpha  occ. eigenvalues --   -0.34030  -0.32850  -0.31308  -0.30657  -0.30064
 Alpha  occ. eigenvalues --   -0.29556  -0.26869  -0.25872  -0.25210  -0.24669
 Alpha  occ. eigenvalues --   -0.23906  -0.22596  -0.21580  -0.16823  -0.15049
 Alpha  occ. eigenvalues --   -0.14040  -0.13659  -0.11693   0.05411
 Alpha virt. eigenvalues --    0.07227   0.08506   0.08868   0.09724   0.09829
 Alpha virt. eigenvalues --    0.10446   0.10603   0.11242   0.12612   0.12882
 Alpha virt. eigenvalues --    0.13551   0.13876   0.15501   0.16271   0.16381

  Beta  occ. eigenvalues --  -88.72795 -19.00089 -18.96851 -10.12123 -10.10884
  Beta  occ. eigenvalues --  -10.06061 -10.05660 -10.05448 -10.05252 -10.05242
  Beta  occ. eigenvalues --  -10.05234 -10.04872  -7.81499  -5.77862  -5.77466
  Beta  occ. eigenvalues --   -5.76953  -0.92652  -0.89006  -0.73929  -0.67038
  Beta  occ. eigenvalues --   -0.62815  -0.62574  -0.60816  -0.52899  -0.48652
  Beta  occ. eigenvalues --   -0.46986  -0.43570  -0.40129  -0.35907  -0.34894
  Beta  occ. eigenvalues --   -0.33820  -0.32699  -0.30872  -0.30552  -0.29820
  Beta  occ. eigenvalues --   -0.29204  -0.26788  -0.25365  -0.24798  -0.23866
  Beta  occ. eigenvalues --   -0.23448  -0.22532  -0.21262  -0.16719  -0.14699
  Beta  occ. eigenvalues --   -0.13680  -0.13263  -0.11395
  Beta virt. eigenvalues --    0.07909   0.08773   0.09329   0.09729   0.09957
  Beta virt. eigenvalues --    0.10238   0.10802   0.11266   0.12056   0.13081
  Beta virt. eigenvalues --    0.13197   0.13750   0.14094   0.15485   0.16203

 Mulliken charges and spin densities:
               1          2
     1  C   -0.440081   0.033941
     2  C    0.920163  -1.062987
     3  C    0.441683   0.476351
     4  C   -0.422239   0.511302
     5  C   -0.131975  -0.259467
     6  C    0.956402  -1.263101
     7  C    0.622679  -0.936240
     8  C   -1.362040   0.954188
     9  C   -0.370430   0.422331
    10  O   -0.354282   0.137876
    11  S   -0.150975  -0.029812
    12  O   -0.210978   0.005571
    13  H    0.022685   0.078289
    14  H    0.142312   0.013952
    15  H    0.167701  -0.011020
    16  H    0.142496   0.057363
    17  H   -0.118381   0.265928
    18  H   -0.574480   0.714337
    19  H   -0.640877   0.816714
    20  H    0.053966   0.054317
    21  H    0.061309   0.021934
    22  H    0.245343  -0.001767
 Sum of Mulliken charges =  -1.00000   1.00000

 Dipole moment (field-independent basis, Debye):
    X=              3.6990    Y=             -1.2425    Z=              0.5523  Tot=              3.9410
 Quadrupole moment (field-independent basis, Debye-Ang):
   XX=           -136.2705   YY=           -102.6621   ZZ=            -96.0607
   XY=              6.7670   XZ=              5.1195   YZ=             -2.5723

 Summary of Natural Population Analysis:

                                       Natural Population
                Natural  -----------------------------------------------
    Atom  No    Charge         Core      Valence    Rydberg      Total
 -----------------------------------------------------------------------
      C    1   -0.28320      0.99963     2.27746    0.00611     3.28320
      C    2    0.08496      0.99944     1.89837    0.01724     2.91504
      C    3   -0.01980      0.99947     2.00690    0.01343     3.01980
      C    4   -0.09370      0.99951     2.08452    0.00967     3.09370
      C    5   -0.09773      0.99956     2.08780    0.01036     3.09773
      C    6   -0.09635      0.99956     2.08613    0.01065     3.09635
      C    7   -0.10450      0.99957     2.09386    0.01108     3.10450
      C    8   -0.09327      0.99951     2.08479    0.00897     3.09327
      C    9    0.28875      0.99963     1.68701    0.02460     2.71125
      O   10   -0.27899      0.99986     3.26990    0.00923     4.27899
      S   11   -0.03341      4.99957     3.01903    0.01482     8.03341
      O   12   -0.37962      0.99989     3.37275    0.00699     4.37962
      H   13    0.10083      0.00000     0.39806    0.00111     0.39917
      H   14    0.10090      0.00000     0.39806    0.00104     0.39910
      H   15    0.10068      0.00000     0.39831    0.00101     0.39932
      H   16    0.10849      0.00000     0.39041    0.00110     0.39151
      H   17    0.09652      0.00000     0.40266    0.00082     0.40348
      H   18    0.09880      0.00000     0.39955    0.00165     0.40120
      H   19    0.09972      0.00000     0.39861    0.00167     0.40028
      H   20    0.09982      0.00000     0.39844    0.00174     0.40018
      H   21    0.06230      0.00000     0.43365    0.00405     0.43770
      H   22    0.23881      0.00000     0.25809    0.00310     0.26119
 =======================================================================
   * Total *    0.00000     15.99520    31.84439    0.16041    48.00000

 Normal termination of Gaussian 16 at Wed Dec  9 17:15:01 2020.
