 Gaussian 16, Revision A.03,

 -----------------------------------------------------------
 # opt freq B3LYP/6-31G(d) empiricaldispersion=gd3bj scf=xqc
 -----------------------------------------------------------

 ------------------------------
 CID_84013577_JID_1475_neutraal
 ------------------------------
 Symbolic Z-matrix:
 Charge =  0 Multiplicity = 1

 SCF Done:  E(RB3LYP) =  -533.968964788     A.U. after   14 cycles
 SCF Done:  E(RB3LYP) =  -533.972773195     A.U. after   12 cycles
 SCF Done:  E(RB3LYP) =  -533.973250022     A.U. after   11 cycles
 SCF Done:  E(RB3LYP) =  -533.973351017     A.U. after   11 cycles
 SCF Done:  E(RB3LYP) =  -533.973406496     A.U. after   10 cycles
 SCF Done:  E(RB3LYP) =  -533.973437155     A.U. after    9 cycles
 SCF Done:  E(RB3LYP) =  -533.973450141     A.U. after   10 cycles
 SCF Done:  E(RB3LYP) =  -533.973453105     A.U. after    8 cycles
 SCF Done:  E(RB3LYP) =  -533.973454526     A.U. after    8 cycles
 SCF Done:  E(RB3LYP) =  -533.973456474     A.U. after    8 cycles
 SCF Done:  E(RB3LYP) =  -533.973457364     A.U. after    8 cycles
 SCF Done:  E(RB3LYP) =  -533.973457760     A.U. after    8 cycles
 SCF Done:  E(RB3LYP) =  -533.973457936     A.U. after    7 cycles
 Optimization completed.
    -- Stationary point found.
 Normal termination of Gaussian 16 at Tue Dec  8 20:06:16 2020.

 --------------------------------------------------------------------
 #N Geom=AllCheck Guess=TCheck SCRF=Check GenChk RB3LYP/6-31G(d) Freq
 --------------------------------------------------------------------

 Structure from the checkpoint file:  "JID_1475.chk"
 ------------------------------
 CID_84013577_JID_1475_neutraal
 ------------------------------
 Charge =  0 Multiplicity = 1

 SCF Done:  E(RB3LYP) =  -533.973457937     A.U. after    1 cycles

  Exact polarizability: 110.918   1.983  95.530 -11.384   5.494  63.914
 Approx polarizability: 151.817   1.397 146.995 -19.731   9.524  94.754

                      1                      2                      3
                      A                      A                      A
 Frequencies --     58.6957                76.8291               136.0557
 Red. masses --      4.4441                 5.0512                 2.8141
 Frc consts  --      0.0090                 0.0176                 0.0307
 IR Inten    --      0.8636                 3.5166                 5.2754

                      4                      5                      6
                      A                      A                      A
 Frequencies --    145.7107               161.8804               194.1718
 Red. masses --      1.1274                 4.0624                 2.4286
 Frc consts  --      0.0141                 0.0627                 0.0539
 IR Inten    --      0.3720                 3.1200                 0.5536

                      7                      8                      9
                      A                      A                      A
 Frequencies --    218.2167               257.4265               272.0729
 Red. masses --      1.1732                 3.6215                 2.6847
 Frc consts  --      0.0329                 0.1414                 0.1171
 IR Inten    --      0.5867                 2.8760                 8.4312

                     10                     11                     12
                      A                      A                      A
 Frequencies --    277.8280               310.0272               348.2674
 Red. masses --      2.5878                 3.5072                 1.9385
 Frc consts  --      0.1177                 0.1986                 0.1385
 IR Inten    --      1.6848                 1.7759                37.8977

                     13                     14                     15
                      A                      A                      A
 Frequencies --    401.2237               444.1402               493.2412
 Red. masses --      1.2412                 1.3773                 3.0980
 Frc consts  --      0.1177                 0.1601                 0.4441
 IR Inten    --     99.3186               135.3246                11.2619

                     16                     17                     18
                      A                      A                      A
 Frequencies --    566.1394               613.2063               622.4944
 Red. masses --      2.8023                 3.6158                 3.8367
 Frc consts  --      0.5292                 0.8011                 0.8760
 IR Inten    --      9.4147                 2.4355                 5.7349

                     19                     20                     21
                      A                      A                      A
 Frequencies --    631.3545               735.3984               745.3338
 Red. masses --      5.7550                 4.0424                 8.6203
 Frc consts  --      1.3516                 1.2881                 2.8215
 IR Inten    --     11.6585                 8.2475                13.4626

                     22                     23                     24
                      A                      A                      A
 Frequencies --    859.7380               890.0760               955.1063
 Red. masses --      2.3911                 2.7512                 1.9194
 Frc consts  --      1.0413                 1.2842                 1.0316
 IR Inten    --      3.2924                 3.6120                 6.1122

                     25                     26                     27
                      A                      A                      A
 Frequencies --   1002.1403              1030.5530              1075.8489
 Red. masses --      1.6478                 1.7551                 1.7767
 Frc consts  --      0.9750                 1.0983                 1.2116
 IR Inten    --      1.6898                 5.1158                30.1313

                     28                     29                     30
                      A                      A                      A
 Frequencies --   1079.9936              1089.1739              1124.9368
 Red. masses --      2.1597                 1.4498                 2.0757
 Frc consts  --      1.4842                 1.0133                 1.5476
 IR Inten    --     57.4641                 1.8789                 2.5726

                     31                     32                     33
                      A                      A                      A
 Frequencies --   1153.2253              1188.2354              1234.6744
 Red. masses --      2.4983                 2.9673                 1.3781
 Frc consts  --      1.9576                 2.4684                 1.2378
 IR Inten    --      0.9581                 8.2844                14.5591

                     34                     35                     36
                      A                      A                      A
 Frequencies --   1284.2714              1294.6166              1387.2736
 Red. masses --      1.9122                 2.1052                 2.3125
 Frc consts  --      1.8582                 2.0789                 2.6221
 IR Inten    --      6.5921                 7.8895                29.5032

                     37                     38                     39
                      A                      A                      A
 Frequencies --   1406.6326              1411.8410              1421.9542
 Red. masses --      1.5474                 1.1914                 2.5617
 Frc consts  --      1.8039                 1.3992                 3.0517
 IR Inten    --     37.3677                12.7972               101.9440

                     40                     41                     42
                      A                      A                      A
 Frequencies --   1432.5045              1437.7850              1459.6473
 Red. masses --      1.4781                 1.4718                 2.1870
 Frc consts  --      1.7871                 1.7926                 2.7453
 IR Inten    --     35.1062                27.7831                16.6248

                     43                     44                     45
                      A                      A                      A
 Frequencies --   1461.0905              1496.8490              1506.2877
 Red. masses --      1.4413                 1.1008                 1.0434
 Frc consts  --      1.8128                 1.4531                 1.3948
 IR Inten    --     22.6776                16.2717                 1.2123

                     46                     47                     48
                      A                      A                      A
 Frequencies --   1509.3047              1528.2315              1531.8069
 Red. masses --      1.0448                 1.0829                 1.0956
 Frc consts  --      1.4023                 1.4901                 1.5146
 IR Inten    --     10.9385                 8.1742                 2.5981

                     49                     50                     51
                      A                      A                      A
 Frequencies --   1540.6712              1733.4631              1825.2172
 Red. masses --      1.0794                 6.7466                10.1666
 Frc consts  --      1.5095                11.9445                19.9551
 IR Inten    --      5.9981                 5.5041               549.1830

                     52                     53                     54
                      A                      A                      A
 Frequencies --   3031.3381              3038.5554              3042.1691
 Red. masses --      1.0405                 1.0444                 1.0651
 Frc consts  --      5.6331                 5.6814                 5.8080
 IR Inten    --     63.0532                29.3397                29.9863

                     55                     56                     57
                      A                      A                      A
 Frequencies --   3073.9152              3085.8607              3097.1773
 Red. masses --      1.1016                 1.0604                 1.0939
 Frc consts  --      6.1328                 5.9492                 6.1827
 IR Inten    --     23.7929                15.6162                 8.9937

                     58                     59                     60
                      A                      A                      A
 Frequencies --   3113.2651              3138.7462              3141.1473
 Red. masses --      1.0994                 1.1013                 1.1037
 Frc consts  --      6.2780                 6.3924                 6.4163
 IR Inten    --     46.8683                 6.5732                24.3913

                     61                     62                     63
                      A                      A                      A
 Frequencies --   3145.5361              3679.9391              3738.0984
 Red. masses --      1.0976                 1.0801                 1.0659
 Frc consts  --      6.3989                 8.6181                 8.7754
 IR Inten    --     11.9227                64.5112                11.9243

 - Thermochemistry -
 -------------------
 Temperature   298.150 Kelvin.  Pressure   1.00000 Atm.
 Atom     1 has atomic number  6 and mass  12.00000

 Molecular mass:   156.08988 amu.
 Principal axes and moments of inertia in atomic units:
                           1         2         3
     Eigenvalues --  1203.703481878.341052645.86966
           X            0.99933   0.03319  -0.01560
           Y           -0.03283   0.99921   0.02260
           Z            0.01634  -0.02207   0.99962
 This molecule is an asymmetric top.
 Rotational symmetry number  1.
 Warning -- assumption of classical behavior for rotation
           may cause significant error
 Rotational temperatures (Kelvin)      0.07196     0.04611     0.03274
 Rotational constants (GHZ):           1.49932     0.96082     0.68210
 Zero-point vibrational energy     510737.3 (Joules/Mol)
                                  122.06915 (Kcal/Mol)
 Warning -- explicit consideration of  17 degrees of freedom as
           vibrations may cause significant error
 Vibrational temperatures:     84.45   110.54   195.75   209.65   232.91
          (Kelvin)            279.37   313.97   370.38   391.45   399.73
                              446.06   501.08   577.27   639.02   709.66
                              814.55   882.27   895.63   908.38  1058.07
                             1072.37  1236.97  1280.62  1374.18  1441.86
                             1482.74  1547.91  1553.87  1567.08  1618.53
                             1659.23  1709.61  1776.42  1847.78  1862.66
                             1995.98  2023.83  2031.32  2045.87  2061.05
                             2068.65  2100.11  2102.18  2153.63  2167.21
                             2171.55  2198.78  2203.93  2216.68  2494.07
                             2626.08  4361.42  4371.80  4377.00  4422.68
                             4439.87  4456.15  4479.29  4515.96  4519.41
                             4525.72  5294.61  5378.29

 Zero-point correction=                           0.194530 (Hartree/Particle)
 Thermal correction to Energy=                    0.206275
 Thermal correction to Enthalpy=                  0.207219
 Thermal correction to Gibbs Free Energy=         0.157201
 Sum of electronic and zero-point Energies=           -533.778928
 Sum of electronic and thermal Energies=              -533.767183
 Sum of electronic and thermal Enthalpies=            -533.766239
 Sum of electronic and thermal Free Energies=         -533.816257

                     E (Thermal)             CV                S
                      KCal/Mol        Cal/Mol-Kelvin    Cal/Mol-Kelvin
 Total                  129.439             42.930            105.271
 Electronic               0.000              0.000              0.000
 Translational            0.889              2.981             41.045
 Rotational               0.889              2.981             30.171
 Vibrational            127.662             36.969             34.055
 Vibration     1          0.596              1.974              4.501
 Vibration     2          0.599              1.965              3.970
 Vibration     3          0.614              1.917              2.859
 Vibration     4          0.617              1.907              2.727
 Vibration     5          0.622              1.889              2.528
 Vibration     6          0.635              1.848              2.188
 Vibration     7          0.646              1.813              1.974
 Vibration     8          0.667              1.750              1.679
 Vibration     9          0.675              1.725              1.583
 Vibration    10          0.679              1.714              1.547
 Vibration    11          0.699              1.655              1.362
 Vibration    12          0.726              1.579              1.174
 Vibration    13          0.767              1.467              0.958
 Vibration    14          0.804              1.374              0.814
 Vibration    15          0.849              1.265              0.675
 Vibration    16          0.922              1.105              0.512
 Vibration    17          0.973              1.004              0.427

                           ! Non-Optimized Parameters !
 Normal termination of Gaussian 16 at Tue Dec  8 20:11:01 2020.

 ----------------------------------------------------------------------
 # B3LYP/6-311++G(d,p) empiricaldispersion=gd3bj scf=xqc pop=npa geom=c
 heck
 ----------------------------------------------------------------------

 --------------------------------------
 CID_84013577_JID_1475_Energie_neutraal
 --------------------------------------
 Structure from the checkpoint file:  "JID_1475.chk"
 Charge =  0 Multiplicity = 1

 SCF Done:  E(RB3LYP) =  -534.138674625     A.U. after   14 cycles
 Normal termination of Gaussian 16 at Tue Dec  8 20:13:33 2020.

 ----------------------------------------------------------------------
 # B3LYP/6-311++G(d,p) empiricaldispersion=gd3bj scf=xqc pop=npa geom=c
 heck
 ----------------------------------------------------------------------

 ------------------------------------
 CID_84013577_JID_1475_Energie_kation
 ------------------------------------
 Structure from the checkpoint file:  "JID_1475.chk"
 Charge =  1 Multiplicity = 2

 SCF Done:  E(UB3LYP) =  -533.865645721     A.U. after   18 cycles
 Normal termination of Gaussian 16 at Tue Dec  8 20:18:04 2020.
 Gaussian 16:  ES64L-G16RevA.03 25-Dec-2016

 ----------------------------------------------------------------------
 # B3LYP/6-311++G(d,p) empiricaldispersion=gd3bj scf=xqc pop=npa geom=c
 heck
 ----------------------------------------------------------------------

 -----------------------------------
 CID_84013577_JID_1475_Energie_anion
 -----------------------------------
 Structure from the checkpoint file:  "JID_1475.chk"
 Charge = -1 Multiplicity = 2

                         Standard orientation:
 ---------------------------------------------------------------------
 Center     Atomic      Atomic             Coordinates (Angstroms)
 Number     Number       Type             X           Y           Z
 ---------------------------------------------------------------------
      1          6           0       -3.143302   -0.585896    0.458304
      2          6           0       -1.780045   -0.084861    0.128515
      3          6           0       -0.675864   -0.722699   -0.338917
      4          7           0        0.329557    0.251825   -0.503583
      5          6           0       -0.130429    1.506111   -0.113205
      6          8           0        0.499242    2.558489   -0.096829
      7          7           0       -1.443596    1.270660    0.258117
      8          6           0        1.719820    0.040516   -0.865133
      9          6           0        2.598000   -0.147499    0.374344
     10          8           0        2.175650   -1.248648    1.171253
     11          6           0       -0.456750   -2.152406   -0.702140
     12          1           0       -3.199235   -1.668207    0.317718
     13          1           0       -3.910533   -0.127698   -0.180129
     14          1           0       -3.413692   -0.370905    1.500873
     15          1           0       -2.041057    2.006458    0.600073
     16          1           0        1.781764   -0.838079   -1.512357
     17          1           0        2.053727    0.918148   -1.426832
     18          1           0        3.626022   -0.365515    0.068178
     19          1           0        2.601944    0.786456    0.952815
     20          1           0        1.315018   -1.006727    1.548626
     21          1           0        0.420492   -2.560709   -0.188305
     22          1           0       -1.328625   -2.751433   -0.427107
     23          1           0       -0.295273   -2.277502   -1.781292
 ---------------------------------------------------------------------

 SCF Done:  E(UB3LYP) =  -534.127776625     A.U. after   31 cycles

 The electronic state is 2-A.
 Alpha  occ. eigenvalues --  -19.03158 -18.97561 -14.25007 -14.24309 -10.18287
 Alpha  occ. eigenvalues --  -10.12706 -10.11557 -10.09971 -10.09861 -10.06797
 Alpha  occ. eigenvalues --  -10.06346  -0.95138  -0.93290  -0.87621  -0.80872
 Alpha  occ. eigenvalues --   -0.68732  -0.65982  -0.62399  -0.57622  -0.54580
 Alpha  occ. eigenvalues --   -0.49578  -0.47061  -0.42845  -0.41385  -0.39048
 Alpha  occ. eigenvalues --   -0.36872  -0.34206  -0.33909  -0.32421  -0.31722
 Alpha  occ. eigenvalues --   -0.30864  -0.30568  -0.30168  -0.29591  -0.28670
 Alpha  occ. eigenvalues --   -0.27565  -0.24855  -0.21623  -0.20178  -0.17752
 Alpha  occ. eigenvalues --   -0.16521  -0.08854   0.04498
 Alpha virt. eigenvalues --    0.06926   0.07908   0.08606   0.09289   0.10358
 Alpha virt. eigenvalues --    0.10452   0.10839   0.11629   0.12969   0.13070
 Alpha virt. eigenvalues --    0.14760   0.14985   0.15332   0.15628   0.16001

  Beta  occ. eigenvalues --  -19.03134 -18.97557 -14.25003 -14.24282 -10.18286
  Beta  occ. eigenvalues --  -10.12697 -10.11546 -10.09971 -10.09859 -10.06747
  Beta  occ. eigenvalues --  -10.06265  -0.95123  -0.93244  -0.87607  -0.80843
  Beta  occ. eigenvalues --   -0.68695  -0.65940  -0.62319  -0.57563  -0.54516
  Beta  occ. eigenvalues --   -0.49529  -0.47018  -0.42806  -0.41347  -0.39015
  Beta  occ. eigenvalues --   -0.36845  -0.34170  -0.33866  -0.32374  -0.31681
  Beta  occ. eigenvalues --   -0.30826  -0.30524  -0.30110  -0.29556  -0.28610
  Beta  occ. eigenvalues --   -0.27505  -0.24833  -0.21604  -0.20149  -0.17729
  Beta  occ. eigenvalues --   -0.16508  -0.08833
  Beta virt. eigenvalues --    0.06907   0.07816   0.08560   0.09190   0.10041
  Beta virt. eigenvalues --    0.10755   0.11213   0.11543   0.11956   0.13169
  Beta virt. eigenvalues --    0.13630   0.15013   0.15137   0.15513   0.15693

 Mulliken charges and spin densities:
               1          2
     1  C    3.659032  -4.276987
     2  C   -1.749863   1.921373
     3  C   -1.618027   1.667884
     4  N    0.011241  -0.005463
     5  C   -0.363296   0.678331
     6  O   -0.439428   0.001965
     7  N   -0.461155   0.190292
     8  C   -0.133697  -0.036878
     9  C    0.113592  -0.464837
    10  O   -0.253482  -0.015822
    11  C    2.605541  -3.276657
    12  H   -0.583058   0.730861
    13  H   -0.588502   0.749525
    14  H   -0.745514   0.910495
    15  H   -0.104107   0.454875
    16  H   -0.035459   0.190101
    17  H    0.051946   0.128254
    18  H    0.044617   0.103613
    19  H    0.130078   0.057990
    20  H    0.062828   0.206737
    21  H   -0.022459   0.181111
    22  H   -0.200948   0.354090
    23  H   -0.379878   0.549147
 Sum of Mulliken charges =  -1.00000   1.00000

 Dipole moment (field-independent basis, Debye):
    X=              7.0076    Y=              1.5095    Z=             -1.6276  Tot=              7.3508
 Quadrupole moment (field-independent basis, Debye-Ang):
   XX=           -125.7028   YY=           -115.1193   ZZ=            -97.3186
   XY=             -4.9336   XZ=              2.7209   YZ=             -0.1654

 Summary of Natural Population Analysis:

                                       Natural Population
                Natural  -----------------------------------------------
    Atom  No    Charge         Core      Valence    Rydberg      Total
 -----------------------------------------------------------------------
      C    1   -0.29887      0.99964     2.29324    0.00600     3.29887
      C    2    0.06419      0.99945     1.92434    0.01203     2.93581
      C    3    0.05827      0.99944     1.92788    0.01441     2.94173
      N    4   -0.24831      0.99961     2.73680    0.01190     3.74831
      C    5    0.39230      0.99967     1.58384    0.02419     2.60770
      O    6   -0.35070      0.99988     3.34530    0.00552     4.35070
      N    7   -0.30254      0.99965     2.79298    0.00992     3.80254
      C    8   -0.09754      0.99962     2.08782    0.01010     3.09754
      C    9   -0.01517      0.99960     2.00395    0.01162     3.01517
      O   10   -0.36940      0.99990     3.36305    0.00645     4.36940
      C   11   -0.30405      0.99963     2.29852    0.00589     3.30405
      H   12    0.11269      0.00000     0.38431    0.00299     0.38731
      H   13    0.10670      0.00000     0.39022    0.00308     0.39330
      H   14    0.10857      0.00000     0.38681    0.00462     0.39143
      H   15    0.20548      0.00000     0.29170    0.00283     0.29452
      H   16    0.10113      0.00000     0.39761    0.00126     0.39887
      H   17    0.10904      0.00000     0.38984    0.00112     0.39096
      H   18    0.08358      0.00000     0.41517    0.00125     0.41642
      H   19    0.08435      0.00000     0.41428    0.00137     0.41565
      H   20    0.23265      0.00000     0.26395    0.00340     0.26735
      H   21    0.11057      0.00000     0.38780    0.00163     0.38943
      H   22    0.11397      0.00000     0.38455    0.00149     0.38603
      H   23    0.10310      0.00000     0.39523    0.00167     0.39690
 =======================================================================
   * Total *    0.00000     10.99607    30.85919    0.14474    42.00000

 Normal termination of Gaussian 16 at Tue Dec  8 20:24:20 2020.
