 Gaussian 16, Revision A.03,

 -----------------------------------------------------------
 # opt freq B3LYP/6-31G(d) empiricaldispersion=gd3bj scf=xqc
 -----------------------------------------------------------

 -------------------------------
 CID_152357691_JID_1657_neutraal
 -------------------------------
 Symbolic Z-matrix:
 Charge =  0 Multiplicity = 1

 SCF Done:  E(RB3LYP) =  -579.489092210     A.U. after   17 cycles
 SCF Done:  E(RB3LYP) =  -579.516306646     A.U. after   14 cycles
 SCF Done:  E(RB3LYP) =  -579.517407903     A.U. after   15 cycles
 SCF Done:  E(RB3LYP) =  -579.518307794     A.U. after   14 cycles
 SCF Done:  E(RB3LYP) =  -579.518922352     A.U. after   13 cycles
 SCF Done:  E(RB3LYP) =  -579.519455729     A.U. after   15 cycles
 SCF Done:  E(RB3LYP) =  -579.519801699     A.U. after   15 cycles
 SCF Done:  E(RB3LYP) =  -579.520105517     A.U. after   15 cycles
 SCF Done:  E(RB3LYP) =  -579.520332507     A.U. after   15 cycles
 SCF Done:  E(RB3LYP) =  -579.520718956     A.U. after   14 cycles
 SCF Done:  E(RB3LYP) =  -579.523568569     A.U. after   11 cycles
 SCF Done:  E(RB3LYP) =  -579.523570220     A.U. after   10 cycles
 SCF Done:  E(RB3LYP) =  -579.523571435     A.U. after   10 cycles
 SCF Done:  E(RB3LYP) =  -579.523572019     A.U. after    9 cycles
 SCF Done:  E(RB3LYP) =  -579.523572224     A.U. after    9 cycles
 SCF Done:  E(RB3LYP) =  -579.523572305     A.U. after    8 cycles
 Optimization completed.
    -- Stationary point found.
 Normal termination of Gaussian 16 at Tue Dec  8 20:46:01 2020.

 --------------------------------------------------------------------
 #N Geom=AllCheck Guess=TCheck SCRF=Check GenChk RB3LYP/6-31G(d) Freq
 --------------------------------------------------------------------

 Structure from the checkpoint file:  "JID_1657.chk"
 -------------------------------
 CID_152357691_JID_1657_neutraal
 -------------------------------
 Charge =  0 Multiplicity = 1

 SCF Done:  E(RB3LYP) =  -579.523572305     A.U. after    1 cycles

  Exact polarizability:  98.812  -1.808  65.306   9.960  -3.208  66.121
 Approx polarizability: 139.295   4.412  96.908  33.058  -9.187 133.528

                      1                      2                      3
                      A                      A                      A
 Frequencies --     27.9633                55.1991                73.7297
 Red. masses --     10.6857                 8.2385                 6.7863
 Frc consts  --      0.0049                 0.0148                 0.0217
 IR Inten    --      2.2968                 6.3548                 0.4898

                      4                      5                      6
                      A                      A                      A
 Frequencies --     90.9092               125.5979               138.9085
 Red. masses --     10.1841                 2.0001                 1.5817
 Frc consts  --      0.0496                 0.0186                 0.0180
 IR Inten    --      3.4524                 1.8767                 2.3752

                      7                      8                      9
                      A                      A                      A
 Frequencies --    230.1764               245.8441               282.8444
 Red. masses --      6.5477                 8.3495                 6.0258
 Frc consts  --      0.2044                 0.2973                 0.2840
 IR Inten    --      3.8024                 0.6098                 8.2252

                     10                     11                     12
                      A                      A                      A
 Frequencies --    341.2991               368.5022               390.8385
 Red. masses --      6.8424                 5.7985                 2.2835
 Frc consts  --      0.4696                 0.4639                 0.2055
 IR Inten    --      0.3289                17.1885                 3.1797

                     13                     14                     15
                      A                      A                      A
 Frequencies --    477.7418               514.7521               525.4679
 Red. masses --      4.5575                 8.6225                13.6034
 Frc consts  --      0.6129                 1.3461                 2.2130
 IR Inten    --      7.5437                 2.1378                 8.1546

                     16                     17                     18
                      A                      A                      A
 Frequencies --    666.1872               738.8273               745.1404
 Red. masses --      7.2160                12.3326                 8.3303
 Frc consts  --      1.8869                 3.9663                 2.7251
 IR Inten    --      8.0373                19.5712                 0.6390

                     19                     20                     21
                      A                      A                      A
 Frequencies --    854.1657               904.9990               921.8442
 Red. masses --      9.2313                 9.9458                 5.2132
 Frc consts  --      3.9682                 4.7994                 2.6102
 IR Inten    --     33.0212                62.9096                28.8105

                     22                     23                     24
                      A                      A                      A
 Frequencies --    980.9566              1035.6797              1143.4973
 Red. masses --      2.3100                 2.4822                 2.3121
 Frc consts  --      1.3097                 1.5687                 1.7812
 IR Inten    --      3.1891                60.0908               205.3832

                     25                     26                     27
                      A                      A                      A
 Frequencies --   1155.5175              1170.2188              1257.3089
 Red. masses --     10.5730                 1.3362                 1.9110
 Frc consts  --      8.3177                 1.0781                 1.7799
 IR Inten    --     15.8045                 1.4887               197.6785

                     28                     29                     30
                      A                      A                      A
 Frequencies --   1294.4145              1396.3447              1442.1894
 Red. masses --      2.4510                 1.2865                 2.3680
 Frc consts  --      2.4196                 1.4779                 2.9019
 IR Inten    --     22.7278                13.1710               190.1322

                     31                     32                     33
                      A                      A                      A
 Frequencies --   1471.3981              1493.7594              1524.8751
 Red. masses --      1.1649                 1.1184                 1.0497
 Frc consts  --      1.4859                 1.4703                 1.4381
 IR Inten    --     27.6048                38.9282                10.7731

                     34                     35                     36
                      A                      A                      A
 Frequencies --   1544.5747              1849.4074              2208.6008
 Red. masses --      1.1183                11.8074                13.9995
 Frc consts  --      1.5719                23.7941                40.2344
 IR Inten    --     27.1207               323.3905               253.0255

                     37                     38                     39
                      A                      A                      A
 Frequencies --   2373.3432              3052.5064              3077.5450
 Red. masses --     12.5822                 1.0401                 1.0684
 Frc consts  --     41.7569                 5.7100                 5.9620
 IR Inten    --      0.2421                32.7123                12.7306

                     40                     41                     42
                      A                      A                      A
 Frequencies --   3114.9929              3159.3897              3201.8339
 Red. masses --      1.1032                 1.0954                 1.0987
 Frc consts  --      6.3069                 6.4421                 6.6364
 IR Inten    --     20.8528                 0.6225                 0.2118

 - Thermochemistry -
 -------------------
 Temperature   298.150 Kelvin.  Pressure   1.00000 Atm.
 Atom     1 has atomic number  6 and mass  12.00000

 Molecular mass:   155.04432 amu.
 Principal axes and moments of inertia in atomic units:
                           1         2         3
     Eigenvalues --   960.673982577.663403025.53301
           X            0.99967  -0.02546   0.00316
           Y            0.02532   0.99901   0.03670
           Z           -0.00409  -0.03661   0.99932
 This molecule is an asymmetric top.
 Rotational symmetry number  1.
 Warning -- assumption of classical behavior for rotation
           may cause significant error
 Rotational temperatures (Kelvin)      0.09016     0.03360     0.02863
 Rotational constants (GHZ):           1.87862     0.70015     0.59650
 Zero-point vibrational energy     285125.7 (Joules/Mol)
                                   68.14667 (Kcal/Mol)
 Warning -- explicit consideration of  15 degrees of freedom as
           vibrations may cause significant error
 Vibrational temperatures:     40.23    79.42   106.08   130.80   180.71
          (Kelvin)            199.86   331.17   353.71   406.95   491.05
                              530.19   562.33   687.36   740.61   756.03
                              958.49  1063.01  1072.09  1228.95  1302.09
                             1326.33  1411.38  1490.11  1645.24  1662.53
                             1683.68  1808.99  1862.37  2009.03  2074.99
                             2117.01  2149.19  2193.96  2222.30  2660.88
                             3177.68  3414.71  4391.88  4427.90  4481.78
                             4545.66  4606.72

 Zero-point correction=                           0.108599 (Hartree/Particle)
 Thermal correction to Energy=                    0.119844
 Thermal correction to Enthalpy=                  0.120788
 Thermal correction to Gibbs Free Energy=         0.069622
 Sum of electronic and zero-point Energies=           -579.414974
 Sum of electronic and thermal Energies=              -579.403728
 Sum of electronic and thermal Enthalpies=            -579.402784
 Sum of electronic and thermal Free Energies=         -579.453950

                     E (Thermal)             CV                S
                      KCal/Mol        Cal/Mol-Kelvin    Cal/Mol-Kelvin
 Total                   75.203             37.498            107.687
 Electronic               0.000              0.000              0.000
 Translational            0.889              2.981             41.025
 Rotational               0.889              2.981             30.395
 Vibrational             73.426             31.536             36.268
 Vibration     1          0.593              1.984              5.969
 Vibration     2          0.596              1.975              4.622
 Vibration     3          0.599              1.966              4.051
 Vibration     4          0.602              1.956              3.640
 Vibration     5          0.611              1.927              3.012
 Vibration     6          0.615              1.914              2.819
 Vibration     7          0.652              1.795              1.878
 Vibration     8          0.660              1.770              1.760
 Vibration     9          0.682              1.705              1.516
 Vibration    10          0.721              1.593              1.206
 Vibration    11          0.741              1.537              1.086
 Vibration    12          0.759              1.490              0.997
 Vibration    13          0.834              1.299              0.716
 Vibration    14          0.870              1.217              0.622
 Vibration    15          0.880              1.194              0.597

 Optimization completed.
    -- Stationary point found.
 Normal termination of Gaussian 16 at Tue Dec  8 20:49:20 2020.

 ----------------------------------------------------------------------
 # B3LYP/6-311++G(d,p) empiricaldispersion=gd3bj scf=xqc pop=npa geom=c
 heck
 ----------------------------------------------------------------------

 ---------------------------------------
 CID_152357691_JID_1657_Energie_neutraal
 ---------------------------------------
 Structure from the checkpoint file:  "JID_1657.chk"
 Charge =  0 Multiplicity = 1

 SCF Done:  E(RB3LYP) =  -579.691378875     A.U. after   15 cycles
 Normal termination of Gaussian 16 at Tue Dec  8 20:50:53 2020.

 ----------------------------------------------------------------------
 # B3LYP/6-311++G(d,p) empiricaldispersion=gd3bj scf=xqc pop=npa geom=c
 heck
 ----------------------------------------------------------------------

 -------------------------------------
 CID_152357691_JID_1657_Energie_kation
 -------------------------------------
 Structure from the checkpoint file:  "JID_1657.chk"
 Charge =  1 Multiplicity = 2

 SCF Done:  E(UB3LYP) =  -579.329199740     A.U. after   26 cycles
 Normal termination of Gaussian 16 at Tue Dec  8 20:55:07 2020.
 Gaussian 16:  ES64L-G16RevA.03 25-Dec-2016

 ----------------------------------------------------------------------
 # B3LYP/6-311++G(d,p) empiricaldispersion=gd3bj scf=xqc pop=npa geom=c
 heck
 ----------------------------------------------------------------------

 ------------------------------------
 CID_152357691_JID_1657_Energie_anion
 ------------------------------------
 Structure from the checkpoint file:  "JID_1657.chk"
 Charge = -1 Multiplicity = 2

                         Standard orientation:
 ---------------------------------------------------------------------
 Center     Atomic      Atomic             Coordinates (Angstroms)
 Number     Number       Type             X           Y           Z
 ---------------------------------------------------------------------
      1          6           0        1.835301   -1.794583   -0.486698
      2          7           0        1.113609   -0.791331    0.291541
      3          6           0        1.897086    0.289898    0.869429
      4          6           0        2.340650    1.267103   -0.144573
      5          7           0        2.683431    2.006309   -0.970055
      6          6           0       -0.245287   -0.716242    0.154481
      7          8           0       -0.961595   -1.530867   -0.378516
      8          8           0       -0.711949    0.470592    0.712519
      9          7           0       -2.127180    0.452232    0.968415
     10          7           0       -2.740108    0.532273   -0.134216
     11          7           0       -3.460319    0.613922   -1.009736
     12          1           0        2.595953   -2.265703    0.144012
     13          1           0        2.322269   -1.338272   -1.357376
     14          1           0        1.123065   -2.546229   -0.822049
     15          1           0        1.312719    0.802405    1.634382
     16          1           0        2.781816   -0.140900    1.351533
 ---------------------------------------------------------------------

 SCF Done:  E(UB3LYP) =  -579.711898929     A.U. after   27 cycles

 The electronic state is 2-A.
 Alpha  occ. eigenvalues --  -19.04129 -18.98249 -14.26981 -14.25154 -14.22670
 Alpha  occ. eigenvalues --  -14.22068 -14.19024 -10.19994 -10.15189 -10.11812
 Alpha  occ. eigenvalues --  -10.10734  -1.00356  -0.94764  -0.90116  -0.85725
 Alpha  occ. eigenvalues --   -0.81285  -0.75980  -0.66731  -0.61362  -0.50006
 Alpha  occ. eigenvalues --   -0.46327  -0.43088  -0.39803  -0.36825  -0.35582
 Alpha  occ. eigenvalues --   -0.34528  -0.33779  -0.33128  -0.30589  -0.30152
 Alpha  occ. eigenvalues --   -0.29111  -0.27765  -0.26774  -0.24730  -0.23869
 Alpha  occ. eigenvalues --   -0.22030  -0.17574  -0.16367  -0.15222  -0.08971
 Alpha  occ. eigenvalues --    0.04122
 Alpha virt. eigenvalues --    0.06009   0.08805   0.09958   0.10597   0.11123
 Alpha virt. eigenvalues --    0.12330   0.13334   0.13857   0.14230   0.15536
 Alpha virt. eigenvalues --    0.16682   0.16844   0.17257   0.17617   0.18729

  Beta  occ. eigenvalues --  -19.03792 -18.98247 -14.26554 -14.25132 -14.22633
  Beta  occ. eigenvalues --  -14.22055 -14.18172 -10.19994 -10.15138 -10.11808
  Beta  occ. eigenvalues --  -10.10712  -0.99824  -0.94076  -0.89583  -0.85642
  Beta  occ. eigenvalues --   -0.81250  -0.75281  -0.66649  -0.61155  -0.49532
  Beta  occ. eigenvalues --   -0.46072  -0.42993  -0.39712  -0.36505  -0.35033
  Beta  occ. eigenvalues --   -0.34034  -0.33301  -0.32496  -0.30431  -0.29509
  Beta  occ. eigenvalues --   -0.28119  -0.27720  -0.25724  -0.24659  -0.23826
  Beta  occ. eigenvalues --   -0.20434  -0.17404  -0.16179  -0.14765  -0.08622
  Beta virt. eigenvalues --    0.06843   0.08962   0.09984   0.10639   0.11157
  Beta virt. eigenvalues --    0.12279   0.12778   0.13501   0.13798   0.14289
  Beta virt. eigenvalues --    0.15561   0.16712   0.16986   0.17606   0.17775

 Mulliken charges and spin densities:
               1          2
     1  C   -0.047801  -0.339929
     2  N   -0.133717   0.125723
     3  C    0.329342  -0.747261
     4  C    0.148947   0.078579
     5  N   -0.327501  -0.011361
     6  C    0.130411   0.023135
     7  O   -0.335751   0.005393
     8  O   -0.005991   0.043278
     9  N   -0.693084  -0.026591
    10  N    0.516537   0.153823
    11  N   -0.315417   0.504825
    12  H   -0.099257   0.240788
    13  H    0.115822   0.046144
    14  H    0.159467   0.012973
    15  H    0.083875   0.171646
    16  H   -0.525883   0.718835
 Sum of Mulliken charges =  -1.00000   1.00000

 Dipole moment (field-independent basis, Debye):
    X=              4.4761    Y=             -2.0770    Z=              0.8533  Tot=              5.0078
 Quadrupole moment (field-independent basis, Debye-Ang):
   XX=           -115.3704   YY=            -81.6153   ZZ=            -80.2388
   XY=             -3.7084   XZ=             -4.2696   YZ=              5.6601

 Summary of Natural Population Analysis:

                                       Natural Population
                Natural  -----------------------------------------------
    Atom  No    Charge         Core      Valence    Rydberg      Total
 -----------------------------------------------------------------------
      C    1   -0.17740      0.99964     2.17007    0.00769     3.17740
      N    2   -0.26196      0.99965     2.75122    0.01109     3.76196
      C    3   -0.13869      0.99952     2.12777    0.01140     3.13869
      C    4    0.15520      0.99965     1.82827    0.01687     2.84480
      N    5   -0.18212      0.99979     2.67101    0.01132     3.68212
      C    6    0.46417      0.99965     1.50933    0.02685     2.53583
      O    7   -0.31967      0.99986     3.31452    0.00529     4.31967
      O    8   -0.20492      0.99987     3.19689    0.00816     4.20492
      N    9   -0.09271      0.99974     2.57670    0.01627     3.59271
      N   10    0.12116      0.99971     2.36253    0.01660     3.37884
      N   11    0.08493      0.99981     2.40197    0.01329     3.41507
      H   12    0.09300      0.00000     0.40596    0.00104     0.40700
      H   13    0.09190      0.00000     0.40712    0.00099     0.40810
      H   14    0.11563      0.00000     0.38345    0.00092     0.38437
      H   15    0.13544      0.00000     0.36244    0.00212     0.36456
      H   16    0.11604      0.00000     0.38073    0.00323     0.38396
 =======================================================================
   * Total *    0.00000     10.99690    28.84996    0.15314    40.00000

 Normal termination of Gaussian 16 at Tue Dec  8 20:59:31 2020.
