 Gaussian 16, Revision A.03,

 -----------------------------------------------------------
 # opt freq B3LYP/6-31G(d) empiricaldispersion=gd3bj scf=xqc
 -----------------------------------------------------------

 ------------------------------
 CID_81991233_JID_6374_neutraal
 ------------------------------
 Symbolic Z-matrix:
 Charge =  0 Multiplicity = 1

 SCF Done:  E(RB3LYP) =  -1145.07482195     A.U. after   14 cycles
 SCF Done:  E(RB3LYP) =  -1145.08123396     A.U. after   13 cycles
 SCF Done:  E(RB3LYP) =  -1145.08283359     A.U. after   12 cycles
 SCF Done:  E(RB3LYP) =  -1145.08424667     A.U. after   13 cycles
 SCF Done:  E(RB3LYP) =  -1145.08469100     A.U. after   11 cycles
 SCF Done:  E(RB3LYP) =  -1145.08497860     A.U. after   12 cycles
 SCF Done:  E(RB3LYP) =  -1145.08511208     A.U. after   11 cycles
 SCF Done:  E(RB3LYP) =  -1145.08518194     A.U. after   11 cycles
 SCF Done:  E(RB3LYP) =  -1145.08531901     A.U. after   11 cycles
 SCF Done:  E(RB3LYP) =  -1145.08538958     A.U. after   11 cycles
 SCF Done:  E(RB3LYP) =  -1145.08610679     A.U. after    8 cycles
 SCF Done:  E(RB3LYP) =  -1145.08610732     A.U. after    8 cycles
 SCF Done:  E(RB3LYP) =  -1145.08610763     A.U. after    8 cycles
 SCF Done:  E(RB3LYP) =  -1145.08610773     A.U. after    7 cycles
 Optimization completed.
    -- Stationary point found.
 Normal termination of Gaussian 16 at Thu Dec 10 22:45:10 2020.

 --------------------------------------------------------------------
 #N Geom=AllCheck Guess=TCheck SCRF=Check GenChk RB3LYP/6-31G(d) Freq
 --------------------------------------------------------------------

 Structure from the checkpoint file:  "JID_6374.chk"
 ------------------------------
 CID_81991233_JID_6374_neutraal
 ------------------------------
 Charge =  0 Multiplicity = 1

 SCF Done:  E(RB3LYP) =  -1145.08610773     A.U. after    1 cycles

  Exact polarizability: 154.233   1.511 130.340   0.761   5.274 111.549
 Approx polarizability: 200.680   5.441 186.198   3.313  11.745 188.290

                      1                      2                      3
                      A                      A                      A
 Frequencies --     27.7651                49.8674                58.4166
 Red. masses --      5.4994                 4.6662                 9.9232
 Frc consts  --      0.0025                 0.0068                 0.0200
 IR Inten    --      0.5557                 0.5579                 1.5068

                      4                      5                      6
                      A                      A                      A
 Frequencies --     67.0151                74.2552                90.9556
 Red. masses --      3.4468                 3.2536                 3.7935
 Frc consts  --      0.0091                 0.0106                 0.0185
 IR Inten    --      0.8494                 0.6759                 0.1691

                      7                      8                      9
                      A                      A                      A
 Frequencies --    118.0789               139.4730               159.5717
 Red. masses --      4.1465                 4.0115                 4.4154
 Frc consts  --      0.0341                 0.0460                 0.0662
 IR Inten    --      0.5726                 2.3113                 2.8621

                     10                     11                     12
                      A                      A                      A
 Frequencies --    181.6395               222.3602               246.8552
 Red. masses --      4.0214                 3.9544                 6.3984
 Frc consts  --      0.0782                 0.1152                 0.2297
 IR Inten    --      0.7790                 3.1268                 1.1478

                     13                     14                     15
                      A                      A                      A
 Frequencies --    270.4391               304.4094               310.6077
 Red. masses --      3.6399                 3.9101                 4.2851
 Frc consts  --      0.1568                 0.2135                 0.2436
 IR Inten    --      0.7947                 3.5662                 2.9348

                     16                     17                     18
                      A                      A                      A
 Frequencies --    338.3312               355.4440               402.7571
 Red. masses --      3.6418                 3.3280                 2.7347
 Frc consts  --      0.2456                 0.2477                 0.2614
 IR Inten    --      7.9622                 3.7996                 2.4642

                     19                     20                     21
                      A                      A                      A
 Frequencies --    441.0649               473.2743               507.6164
 Red. masses --      2.6411                 3.3732                 4.5334
 Frc consts  --      0.3027                 0.4452                 0.6883
 IR Inten    --      2.1441                26.8144                11.1277

                     22                     23                     24
                      A                      A                      A
 Frequencies --    531.0263               545.8755               575.5226
 Red. masses --      3.4142                 2.8903                 3.1715
 Frc consts  --      0.5672                 0.5074                 0.6189
 IR Inten    --     73.5576                 5.2734                20.3252

                     25                     26                     27
                      A                      A                      A
 Frequencies --    645.8348               672.0317               722.3009
 Red. masses --      1.8080                 1.6832                 3.2574
 Frc consts  --      0.4443                 0.4479                 1.0013
 IR Inten    --     21.5522               167.2497                15.4577

                     28                     29                     30
                      A                      A                      A
 Frequencies --    761.8708               774.5421               792.9854
 Red. masses --      2.4662                 2.0988                 1.2041
 Frc consts  --      0.8434                 0.7418                 0.4461
 IR Inten    --     30.8816                38.7491                 4.5284

                     31                     32                     33
                      A                      A                      A
 Frequencies --    813.8762               817.2562               848.2324
 Red. masses --      1.3476                 1.9556                 1.2907
 Frc consts  --      0.5259                 0.7696                 0.5472
 IR Inten    --      2.0383                10.0826                20.4421

                     34                     35                     36
                      A                      A                      A
 Frequencies --    850.0915               855.3198               892.3723
 Red. masses --      1.4682                 2.7532                 2.3815
 Frc consts  --      0.6251                 1.1867                 1.1174
 IR Inten    --     10.3222                13.9128                41.6958

                     37                     38                     39
                      A                      A                      A
 Frequencies --    906.4111               947.5386               950.7212
 Red. masses --      2.0959                 2.4821                 2.7992
 Frc consts  --      1.0145                 1.3130                 1.4907
 IR Inten    --     30.5575                25.9367                 4.8377

                     40                     41                     42
                      A                      A                      A
 Frequencies --    958.0126               975.3681              1003.6869
 Red. masses --      2.6457                 2.8592                 2.3163
 Frc consts  --      1.4306                 1.6026                 1.3748
 IR Inten    --     33.3294                95.9860                23.6057

                     43                     44                     45
                      A                      A                      A
 Frequencies --   1044.8671              1064.7584              1065.4147
 Red. masses --      2.0538                 1.3679                 1.4153
 Frc consts  --      1.3211                 0.9137                 0.9465
 IR Inten    --     40.0085                 1.1484                 7.2200

                     46                     47                     48
                      A                      A                      A
 Frequencies --   1086.6275              1087.8254              1094.5751
 Red. masses --      1.4173                 2.7162                 1.4354
 Frc consts  --      0.9860                 1.8938                 1.0133
 IR Inten    --      7.1778                23.6279                 6.8481

                     49                     50                     51
                      A                      A                      A
 Frequencies --   1108.9880              1139.5099              1151.7552
 Red. masses --      3.8328                 1.4558                 1.1264
 Frc consts  --      2.7773                 1.1138                 0.8804
 IR Inten    --    111.2843                40.1198                 3.2669

                     52                     53                     54
                      A                      A                      A
 Frequencies --   1154.6823              1162.1568              1189.1648
 Red. masses --      1.1817                 1.7923                 2.0441
 Frc consts  --      0.9283                 1.4263                 1.7031
 IR Inten    --      8.0079                11.9956               181.2128

                     55                     56                     57
                      A                      A                      A
 Frequencies --   1211.6690              1216.2303              1234.8781
 Red. masses --      1.4094                 1.4095                 1.7075
 Frc consts  --      1.2191                 1.2284                 1.5341
 IR Inten    --      2.8223                 3.5790                 3.1660

                     58                     59                     60
                      A                      A                      A
 Frequencies --   1251.4601              1260.3256              1268.8487
 Red. masses --      1.4557                 1.5439                 1.4965
 Frc consts  --      1.3432                 1.4449                 1.4195
 IR Inten    --     21.7275                 3.1327                14.3257

                     61                     62                     63
                      A                      A                      A
 Frequencies --   1294.1165              1299.2257              1333.6562
 Red. masses --      2.1200                 1.4035                 2.3061
 Frc consts  --      2.0919                 1.3958                 2.4167
 IR Inten    --     69.0400                15.5832                50.3375

                     64                     65                     66
                      A                      A                      A
 Frequencies --   1348.4535              1365.4598              1412.4115
 Red. masses --      1.7586                 1.4919                 1.6203
 Frc consts  --      1.8841                 1.6389                 1.9045
 IR Inten    --     27.2087                39.8845                10.4775

                     67                     68                     69
                      A                      A                      A
 Frequencies --   1428.3260              1429.5588              1476.8224
 Red. masses --      1.5836                 1.5767                 1.2243
 Frc consts  --      1.9035                 1.8985                 1.5732
 IR Inten    --      3.6147                 3.9702                72.3802

                     70                     71                     72
                      A                      A                      A
 Frequencies --   1481.5226              1499.8991              1500.9164
 Red. masses --      1.1321                 1.0899                 1.0974
 Frc consts  --      1.4640                 1.4447                 1.4565
 IR Inten    --      3.7413                 1.9867                 1.6982

                     73                     74                     75
                      A                      A                      A
 Frequencies --   1514.9048              1538.9706              1545.2582
 Red. masses --      1.0893                 1.3533                 1.3492
 Frc consts  --      1.4729                 1.8884                 1.8981
 IR Inten    --     22.0930                 1.7980                 1.2925

                     76                     77                     78
                      A                      A                      A
 Frequencies --   1849.6210              3079.7577              3092.5415
 Red. masses --      9.4334                 1.0596                 1.0635
 Frc consts  --     19.0144                 5.9212                 5.9924
 IR Inten    --    284.7546                 5.8061                 8.6488

                     79                     80                     81
                      A                      A                      A
 Frequencies --   3105.9311              3139.4482              3150.3020
 Red. masses --      1.0839                 1.1050                 1.0521
 Frc consts  --      6.1607                 6.4169                 6.1520
 IR Inten    --      5.6453                 1.8551                24.5060

                     82                     83                     84
                      A                      A                      A
 Frequencies --   3152.4065              3155.2350              3159.2950
 Red. masses --      1.0994                 1.0586                 1.0557
 Frc consts  --      6.4368                 6.2094                 6.2080
 IR Inten    --      1.9603                 8.1875                17.1639

                     85                     86                     87
                      A                      A                      A
 Frequencies --   3162.6153              3171.9562              3187.3519
 Red. masses --      1.0601                 1.0864                 1.0901
 Frc consts  --      6.2471                 6.4400                 6.5247
 IR Inten    --     11.9874                12.3983                 1.8899

                     88                     89                     90
                      A                      A                      A
 Frequencies --   3227.0736              3236.0053              3241.5279
 Red. masses --      1.1195                 1.1172                 1.1157
 Frc consts  --      6.8689                 6.8931                 6.9072
 IR Inten    --      1.3147                 0.3444                13.9224

                     91                     92                     93
                      A                      A                      A
 Frequencies --   3248.2331              3525.0268              3680.3930
 Red. masses --      1.1144                 1.0741                 1.0641
 Frc consts  --      6.9275                 7.8636                 8.4925
 IR Inten    --     16.6076                62.3839                57.9822

 - Thermochemistry -
 -------------------
 Temperature   298.150 Kelvin.  Pressure   1.00000 Atm.
 Atom     1 has atomic number  6 and mass  12.00000

 Molecular mass:   247.08783 amu.
 Principal axes and moments of inertia in atomic units:
                           1         2         3
     Eigenvalues --  2493.171175269.101086786.27673
           X            0.99997  -0.00669  -0.00297
           Y            0.00668   0.99998  -0.00168
           Z            0.00299   0.00166   0.99999
 This molecule is an asymmetric top.
 Rotational symmetry number  1.
 Warning -- assumption of classical behavior for rotation
           may cause significant error
 Rotational temperatures (Kelvin)      0.03474     0.01644     0.01276
 Rotational constants (GHZ):           0.72387     0.34251     0.26594
 Zero-point vibrational energy     720804.1 (Joules/Mol)
                                  172.27631 (Kcal/Mol)
 Warning -- explicit consideration of  24 degrees of freedom as
           vibrations may cause significant error
 Vibrational temperatures:     39.95    71.75    84.05    96.42   106.84
          (Kelvin)            130.86   169.89   200.67   229.59   261.34
                              319.93   355.17   389.10   437.98   446.90
                              486.78   511.40   579.48   634.59   680.94
                              730.35   764.03   785.39   828.05   929.21
                              966.90  1039.23  1096.16  1114.39  1140.93
                             1170.99  1175.85  1220.42  1223.09  1230.61
                             1283.92  1304.12  1363.30  1367.88  1378.37
                             1403.34  1444.08  1503.33  1531.95  1532.89
                             1563.41  1565.14  1574.85  1595.59  1639.50
                             1657.12  1661.33  1672.08  1710.94  1743.32
                             1749.88  1776.71  1800.57  1813.33  1825.59
                             1861.94  1869.30  1918.83  1940.12  1964.59
                             2032.15  2055.04  2056.82  2124.82  2131.58
                             2158.02  2159.48  2179.61  2214.24  2223.28
                             2661.19  4431.08  4449.48  4468.74  4516.97
                             4532.58  4535.61  4539.68  4545.52  4550.30
                             4563.74  4585.89  4643.04  4655.89  4663.84
                             4673.48  5071.73  5295.26

 Zero-point correction=                           0.274540 (Hartree/Particle)
 Thermal correction to Energy=                    0.291222
 Thermal correction to Enthalpy=                  0.292166
 Thermal correction to Gibbs Free Energy=         0.228942
 Sum of electronic and zero-point Energies=          -1144.811568
 Sum of electronic and thermal Energies=             -1144.794886
 Sum of electronic and thermal Enthalpies=           -1144.793941
 Sum of electronic and thermal Free Energies=        -1144.857166

                     E (Thermal)             CV                S
                      KCal/Mol        Cal/Mol-Kelvin    Cal/Mol-Kelvin
 Total                  182.745             62.541            133.067
 Electronic               0.000              0.000              0.000
 Translational            0.889              2.981             42.414
 Rotational               0.889              2.981             32.855
 Vibrational            180.967             56.579             57.797
 Vibration     1          0.593              1.984              5.983
 Vibration     2          0.595              1.978              4.823
 Vibration     3          0.596              1.974              4.510
 Vibration     4          0.598              1.970              4.239
 Vibration     5          0.599              1.966              4.037
 Vibration     6          0.602              1.956              3.639
 Vibration     7          0.608              1.934              3.132
 Vibration     8          0.615              1.914              2.811
 Vibration     9          0.621              1.892              2.555
 Vibration    10          0.630              1.865              2.311
 Vibration    11          0.648              1.807              1.940
 Vibration    12          0.661              1.768              1.753
 Vibration    13          0.674              1.728              1.593
 Vibration    14          0.695              1.665              1.393
 Vibration    15          0.699              1.653              1.359
 Vibration    16          0.719              1.599              1.220
 Vibration    17          0.731              1.564              1.142
 Vibration    18          0.768              1.464              0.953
 Vibration    19          0.801              1.381              0.823
 Vibration    20          0.830              1.309              0.728
 Vibration    21          0.863              1.233              0.639
 Vibration    22          0.886              1.181              0.585
 Vibration    23          0.901              1.149              0.553
 Vibration    24          0.932              1.084              0.494

 Optimization completed.
    -- Stationary point found.
 Normal termination of Gaussian 16 at Thu Dec 10 22:58:33 2020.

 ----------------------------------------------------------------------
 # B3LYP/6-311++G(d,p) empiricaldispersion=gd3bj scf=xqc pop=npa geom=c
 heck
 ----------------------------------------------------------------------

 --------------------------------------
 CID_81991233_JID_6374_Energie_neutraal
 --------------------------------------
 Structure from the checkpoint file:  "JID_6374.chk"
 Charge =  0 Multiplicity = 1

 SCF Done:  E(RB3LYP) =  -1145.34035529     A.U. after   15 cycles
 Normal termination of Gaussian 16 at Thu Dec 10 23:05:14 2020.

 ----------------------------------------------------------------------
 # B3LYP/6-311++G(d,p) empiricaldispersion=gd3bj scf=xqc pop=npa geom=c
 heck
 ----------------------------------------------------------------------

 ------------------------------------
 CID_81991233_JID_6374_Energie_kation
 ------------------------------------
 Structure from the checkpoint file:  "JID_6374.chk"
 Charge =  1 Multiplicity = 2

 SCF Done:  E(UB3LYP) =  -1144.99490243     A.U. after   33 cycles
 SCF Done:  E(UB3LYP) =  -1144.99490243     a.u. after    2 cycles
 Normal termination of Gaussian 16 at Thu Dec 10 23:42:59 2020.
 Gaussian 16:  ES64L-G16RevA.03 25-Dec-2016

 ----------------------------------------------------------------------
 # B3LYP/6-311++G(d,p) empiricaldispersion=gd3bj scf=xqc pop=npa geom=c
 heck
 ----------------------------------------------------------------------

 -----------------------------------
 CID_81991233_JID_6374_Energie_anion
 -----------------------------------
 Structure from the checkpoint file:  "JID_6374.chk"
 Charge = -1 Multiplicity = 2

                         Standard orientation:
 ---------------------------------------------------------------------
 Center     Atomic      Atomic             Coordinates (Angstroms)
 Number     Number       Type             X           Y           Z
 ---------------------------------------------------------------------
      1          6           0       -2.576459    1.955747    0.101779
      2          6           0       -4.048979    1.643927    0.051623
      3          6           0       -3.068917    0.583976    0.496585
      4          6           0       -2.816401   -0.595897   -0.402881
      5         16           0       -1.210665   -1.385788   -0.105792
      6          8           0       -1.104300   -1.602308    1.346622
      7          8           0       -1.078408   -2.497205   -1.053825
      8          7           0       -0.102815   -0.208465   -0.598522
      9          6           0        0.631622    0.561188    0.427380
     10          6           0        1.709912   -0.258411    1.178785
     11          6           0        2.877386   -0.756762    0.364481
     12          8           0        4.047295   -0.552865    0.595796
     13          8           0        2.476188   -1.509803   -0.700760
     14          6           0        1.105012    1.853311   -0.221615
     15          6           0        2.405468    2.540074    0.118440
     16          6           0        2.216086    1.921032   -1.243263
     17          1           0       -2.212110    2.613638    0.885492
     18          1           0       -2.041349    2.040292   -0.838988
     19          1           0       -4.699471    2.078987    0.804338
     20          1           0       -4.512543    1.530297   -0.924766
     21          1           0       -3.057071    0.341356    1.555379
     22          1           0       -3.541332   -1.400614   -0.238335
     23          1           0       -2.827067   -0.326369   -1.462549
     24          1           0        0.522420   -0.645685   -1.274125
     25          1           0       -0.105949    0.826265    1.189089
     26          1           0        2.118641    0.337766    1.996514
     27          1           0        1.201632   -1.125933    1.611544
     28          1           0        3.291219   -1.810822   -1.145683
     29          1           0        0.270233    2.517322   -0.430474
     30          1           0        2.398086    3.622533    0.206669
     31          1           0        3.100263    2.044111    0.788419
     32          1           0        2.783214    1.024976   -1.471100
     33          1           0        2.066952    2.572093   -2.099653
 ---------------------------------------------------------------------

 SCF Done:  E(UB3LYP) =  -1145.33047723     A.U. after   33 cycles
 SCF Done:  E(UB3LYP) =  -1145.33047723     a.u. after    1 cycles

 The electronic state is 2-A.
 Alpha  occ. eigenvalues --  -88.97056 -19.08824 -19.03586 -19.02884 -19.02718
 Alpha  occ. eigenvalues --  -14.24965 -10.22712 -10.14305 -10.12527 -10.10457
 Alpha  occ. eigenvalues --  -10.10175 -10.09600 -10.09006 -10.08683 -10.08539
 Alpha  occ. eigenvalues --  -10.08337  -8.03291  -5.99579  -5.99542  -5.99337
 Alpha  occ. eigenvalues --   -1.02947  -1.02763  -0.94067  -0.91984  -0.84274
 Alpha  occ. eigenvalues --   -0.78619  -0.77314  -0.70204  -0.67741  -0.61217
 Alpha  occ. eigenvalues --   -0.54747  -0.53028  -0.51834  -0.51401  -0.49580
 Alpha  occ. eigenvalues --   -0.48401  -0.45155  -0.43100  -0.42081  -0.41245
 Alpha  occ. eigenvalues --   -0.40293  -0.39739  -0.39552  -0.38576  -0.37202
 Alpha  occ. eigenvalues --   -0.35870  -0.35154  -0.34363  -0.33395  -0.32705
 Alpha  occ. eigenvalues --   -0.30061  -0.29132  -0.28337  -0.28074  -0.26829
 Alpha  occ. eigenvalues --   -0.26314  -0.24830  -0.24340  -0.23698  -0.22268
 Alpha  occ. eigenvalues --   -0.21561  -0.21275  -0.21104  -0.20202  -0.19519
 Alpha  occ. eigenvalues --   -0.18348   0.03936
 Alpha virt. eigenvalues --    0.05597   0.06492   0.06751   0.07232   0.08220
 Alpha virt. eigenvalues --    0.08603   0.08987   0.09495   0.10505   0.11150
 Alpha virt. eigenvalues --    0.11215   0.12004   0.12274   0.12694   0.13247

  Beta  occ. eigenvalues --  -88.97053 -19.08776 -19.03570 -19.02875 -19.02714
  Beta  occ. eigenvalues --  -14.24955 -10.22704 -10.14302 -10.12509 -10.10450
  Beta  occ. eigenvalues --  -10.10160 -10.09592 -10.08973 -10.08655 -10.08525
  Beta  occ. eigenvalues --  -10.08312  -8.03287  -5.99576  -5.99539  -5.99334
  Beta  occ. eigenvalues --   -1.02903  -1.02727  -0.94012  -0.91967  -0.84257
  Beta  occ. eigenvalues --   -0.78595  -0.77293  -0.70172  -0.67707  -0.61180
  Beta  occ. eigenvalues --   -0.54708  -0.52958  -0.51745  -0.51332  -0.49533
  Beta  occ. eigenvalues --   -0.48362  -0.45133  -0.43066  -0.42045  -0.41215
  Beta  occ. eigenvalues --   -0.40268  -0.39688  -0.39503  -0.38544  -0.37167
  Beta  occ. eigenvalues --   -0.35852  -0.35114  -0.34336  -0.33368  -0.32679
  Beta  occ. eigenvalues --   -0.30026  -0.29100  -0.28300  -0.28049  -0.26803
  Beta  occ. eigenvalues --   -0.26300  -0.24781  -0.24316  -0.23689  -0.22251
  Beta  occ. eigenvalues --   -0.21530  -0.21253  -0.21072  -0.20167  -0.19491
  Beta  occ. eigenvalues --   -0.18332
  Beta virt. eigenvalues --    0.06227   0.06825   0.07020   0.07351   0.07719
  Beta virt. eigenvalues --    0.08575   0.08974   0.09298   0.09967   0.10762
  Beta virt. eigenvalues --    0.11394   0.11483   0.12285   0.12377   0.12877

 Mulliken charges and spin densities:
               1          2
     1  C    0.366234  -0.725236
     2  C    1.664382  -2.243142
     3  C   -1.955969   2.376169
     4  C    0.403571  -1.320016
     5  S    0.406783  -0.001113
     6  O   -0.198161   0.011040
     7  O   -0.159016   0.003922
     8  N   -0.020067   0.014971
     9  C    0.637300  -0.920841
    10  C   -1.419115   0.628608
    11  C    0.581789  -0.757455
    12  O   -0.253096   0.054612
    13  O   -0.214293   0.075187
    14  C   -0.063841   0.142718
    15  C    0.495088  -0.843105
    16  C   -0.099657  -0.371514
    17  H   -0.196205   0.359566
    18  H    0.011559   0.153169
    19  H   -0.365827   0.536213
    20  H   -0.220949   0.355486
    21  H   -0.138275   0.383763
    22  H    0.212849   0.026809
    23  H   -0.092133   0.345867
    24  H    0.329254  -0.026511
    25  H    0.115358   0.134522
    26  H    0.004665   0.218548
    27  H    0.257691  -0.016985
    28  H   -0.238333   0.556736
    29  H   -0.297658   0.592323
    30  H   -0.165545   0.323787
    31  H    0.172875  -0.005060
    32  H   -0.156533   0.348435
    33  H   -0.404724   0.588525
 Sum of Mulliken charges =  -1.00000   1.00000

 Dipole moment (field-independent basis, Debye):
    X=              0.1041    Y=             -2.4742    Z=              1.5429  Tot=              2.9177
 Quadrupole moment (field-independent basis, Debye-Ang):
   XX=           -177.8464   YY=           -165.8039   ZZ=           -139.7367
   XY=             12.1333   XZ=              6.4613   YZ=              0.1737

 Summary of Natural Population Analysis:

                                       Natural Population
                Natural  -----------------------------------------------
    Atom  No    Charge         Core      Valence    Rydberg      Total
 -----------------------------------------------------------------------
      C    1   -0.19815      0.99962     2.18775    0.01078     3.19815
      C    2   -0.19081      0.99962     2.18174    0.00945     3.19081
      C    3   -0.13520      0.99958     2.12390    0.01172     3.13520
      C    4   -0.28025      0.99955     2.26782    0.01289     3.28025
      S    5    1.09523      4.99930     1.80717    0.09830     6.90477
      O    6   -0.47109      0.99991     3.46590    0.00528     4.47109
      O    7   -0.46403      0.99991     3.45889    0.00523     4.46403
      N    8   -0.44065      0.99974     2.92886    0.01206     3.94065
      C    9   -0.01205      0.99955     1.99741    0.01509     3.01205
      C   10   -0.25285      0.99954     2.24481    0.00850     3.25285
      C   11    0.40546      0.99971     1.56851    0.02632     2.59454
      O   12   -0.30135      0.99987     3.29551    0.00598     4.30135
      O   13   -0.35327      0.99988     3.34606    0.00733     4.35327
      C   14   -0.11974      0.99957     2.10694    0.01322     3.11974
      C   15   -0.19742      0.99961     2.18919    0.00861     3.19742
      C   16   -0.19813      0.99961     2.18938    0.00914     3.19813
      H   17    0.10756      0.00000     0.39074    0.00170     0.39244
      H   18    0.10741      0.00000     0.39065    0.00194     0.39259
      H   19    0.10693      0.00000     0.39150    0.00157     0.39307
      H   20    0.10251      0.00000     0.39633    0.00116     0.39749
      H   21    0.11294      0.00000     0.38582    0.00124     0.38706
      H   22    0.11564      0.00000     0.38336    0.00100     0.38436
      H   23    0.11723      0.00000     0.38154    0.00123     0.38277
      H   24    0.20842      0.00000     0.28877    0.00280     0.29158
      H   25    0.11151      0.00000     0.38638    0.00211     0.38849
      H   26    0.11487      0.00000     0.38419    0.00094     0.38513
      H   27    0.13197      0.00000     0.36661    0.00142     0.36803
      H   28    0.24605      0.00000     0.24510    0.00885     0.25395
      H   29    0.11079      0.00000     0.38711    0.00211     0.38921
      H   30    0.10488      0.00000     0.39424    0.00087     0.39512
      H   31    0.10640      0.00000     0.39248    0.00112     0.39360
      H   32    0.10287      0.00000     0.39565    0.00148     0.39713
      H   33    0.10633      0.00000     0.39240    0.00127     0.39367
 =======================================================================
   * Total *    0.00000     19.99455    45.71273    0.29272    66.00000

 Normal termination of Gaussian 16 at Fri Dec 11 00:03:23 2020.
