 Gaussian 16, Revision A.03,

 -----------------------------------------------------------
 # opt freq B3LYP/6-31G(d) empiricaldispersion=gd3bj scf=xqc
 -----------------------------------------------------------

 ------------------------------
 CID_65191165_JID_7882_neutraal
 ------------------------------
 Symbolic Z-matrix:
 Charge =  0 Multiplicity = 1

 SCF Done:  E(RB3LYP) =  -761.191169682     A.U. after   16 cycles
 SCF Done:  E(RB3LYP) =  -761.196912320     A.U. after   14 cycles
 SCF Done:  E(RB3LYP) =  -761.198224491     A.U. after   14 cycles
 SCF Done:  E(RB3LYP) =  -761.199288585     A.U. after   15 cycles
 SCF Done:  E(RB3LYP) =  -761.199809739     A.U. after   14 cycles
 SCF Done:  E(RB3LYP) =  -761.199863692     A.U. after   13 cycles
 SCF Done:  E(RB3LYP) =  -761.200091773     A.U. after   12 cycles
 SCF Done:  E(RB3LYP) =  -761.200132247     A.U. after   12 cycles
 SCF Done:  E(RB3LYP) =  -761.200173174     A.U. after   13 cycles
 SCF Done:  E(RB3LYP) =  -761.200209292     A.U. after   13 cycles
 SCF Done:  E(RB3LYP) =  -761.200850962     A.U. after   10 cycles
 SCF Done:  E(RB3LYP) =  -761.200858171     A.U. after   11 cycles
 SCF Done:  E(RB3LYP) =  -761.200859539     A.U. after    9 cycles
 SCF Done:  E(RB3LYP) =  -761.200860441     A.U. after    8 cycles
 SCF Done:  E(RB3LYP) =  -761.200860473     A.U. after    7 cycles
 Optimization completed.
    -- Stationary point found.
 Normal termination of Gaussian 16 at Mon Dec 14 13:29:00 2020.

 --------------------------------------------------------------------
 #N Geom=AllCheck Guess=TCheck SCRF=Check GenChk RB3LYP/6-31G(d) Freq
 --------------------------------------------------------------------

 Structure from the checkpoint file:  "JID_7882.chk"
 ------------------------------
 CID_65191165_JID_7882_neutraal
 ------------------------------
 Charge =  0 Multiplicity = 1

 SCF Done:  E(RB3LYP) =  -761.200860473     A.U. after    1 cycles

  Exact polarizability: 212.536  16.035 142.266  -5.966  16.875 105.881
 Approx polarizability: 297.874  36.857 237.207  -9.022  45.019 164.543

                      1                      2                      3
                      A                      A                      A
 Frequencies --     25.7089                33.5655                52.6748
 Red. masses --      4.3941                 4.4491                 2.7197
 Frc consts  --      0.0017                 0.0030                 0.0044
 IR Inten    --      1.6997                 0.1914                 1.1267

                      4                      5                      6
                      A                      A                      A
 Frequencies --     73.3433                77.1524               101.6469
 Red. masses --      5.7760                 6.2491                 6.9531
 Frc consts  --      0.0183                 0.0219                 0.0423
 IR Inten    --      5.4081                 1.6275                 5.2464

                      7                      8                      9
                      A                      A                      A
 Frequencies --    114.6690               148.0256               203.1196
 Red. masses --      3.4542                 6.1636                 3.9311
 Frc consts  --      0.0268                 0.0796                 0.0956
 IR Inten    --      0.9035                 4.1116                 1.8794

                     10                     11                     12
                      A                      A                      A
 Frequencies --    214.1347               225.6771               255.5194
 Red. masses --      1.3183                 4.6949                 1.9156
 Frc consts  --      0.0356                 0.1409                 0.0737
 IR Inten    --      0.9838                 1.3279                 5.6307

                     13                     14                     15
                      A                      A                      A
 Frequencies --    259.8930               282.0240               300.1459
 Red. masses --      1.8467                 1.3029                 1.8413
 Frc consts  --      0.0735                 0.0611                 0.0977
 IR Inten    --      1.4320                27.9794                 9.2938

                     16                     17                     18
                      A                      A                      A
 Frequencies --    340.1400               374.5424               382.8117
 Red. masses --      6.6198                 2.2127                 3.1001
 Frc consts  --      0.4512                 0.1829                 0.2677
 IR Inten    --      2.4010                10.1704                 1.7087

                     19                     20                     21
                      A                      A                      A
 Frequencies --    402.3918               409.5748               416.1397
 Red. masses --      2.5034                 3.2879                 4.7997
 Frc consts  --      0.2388                 0.3250                 0.4897
 IR Inten    --      0.2985                 6.7112                 5.9133

                     22                     23                     24
                      A                      A                      A
 Frequencies --    461.2395               531.6384               556.6305
 Red. masses --      2.9635                 6.7371                 6.9744
 Frc consts  --      0.3715                 1.1219                 1.2732
 IR Inten    --      0.8048                19.3033                13.2951

                     25                     26                     27
                      A                      A                      A
 Frequencies --    571.9919               581.4218               620.1213
 Red. masses --      6.0649                 5.0801                 4.6017
 Frc consts  --      1.1691                 1.0118                 1.0426
 IR Inten    --      5.8170                 2.1818                 6.5642

                     28                     29                     30
                      A                      A                      A
 Frequencies --    662.5863               684.8637               712.9935
 Red. masses --      5.2005                 3.4637                 3.6253
 Frc consts  --      1.3452                 0.9572                 1.0858
 IR Inten    --      3.1788                27.5427                18.3716

                     31                     32                     33
                      A                      A                      A
 Frequencies --    781.1077               802.1521               817.8612
 Red. masses --      1.4081                 4.1841                 2.4001
 Frc consts  --      0.5062                 1.5862                 0.9459
 IR Inten    --     86.6880                19.2718                17.2000

                     34                     35                     36
                      A                      A                      A
 Frequencies --    839.1997               881.0292               889.2531
 Red. masses --      4.3769                 1.3529                 1.5841
 Frc consts  --      1.8161                 0.6187                 0.7380
 IR Inten    --      5.0627                77.3977                20.1941

                     37                     38                     39
                      A                      A                      A
 Frequencies --    913.7540               941.6411               950.8701
 Red. masses --      2.3403                 1.2329                 1.4108
 Frc consts  --      1.1513                 0.6441                 0.7516
 IR Inten    --     11.2694                 5.5205                 2.4125

                     40                     41                     42
                      A                      A                      A
 Frequencies --    966.6520               973.5504               990.5437
 Red. masses --      1.9351                 1.5915                 1.6189
 Frc consts  --      1.0653                 0.8888                 0.9358
 IR Inten    --     27.1259                36.2991                 6.8245

                     43                     44                     45
                      A                      A                      A
 Frequencies --   1009.5501              1049.3726              1088.3459
 Red. masses --      1.3364                 3.1351                 1.9436
 Frc consts  --      0.8025                 2.0341                 1.3564
 IR Inten    --      1.0839                16.8294                 0.8987

                     46                     47                     48
                      A                      A                      A
 Frequencies --   1106.8116              1135.0716              1156.0114
 Red. masses --      1.8336                 2.3032                 1.4086
 Frc consts  --      1.3235                 1.7484                 1.1091
 IR Inten    --     12.1406                 2.5362                 7.0525

                     49                     50                     51
                      A                      A                      A
 Frequencies --   1181.5742              1201.0485              1205.7684
 Red. masses --      2.4413                 2.3034                 2.3589
 Frc consts  --      2.0081                 1.9577                 2.0206
 IR Inten    --      2.9523                 3.0816                12.5920

                     52                     53                     54
                      A                      A                      A
 Frequencies --   1238.2432              1240.7201              1307.1387
 Red. masses --      1.5763                 3.1003                 3.2729
 Frc consts  --      1.4239                 2.8119                 3.2948
 IR Inten    --      2.5899                 0.5737                51.2001

                     55                     56                     57
                      A                      A                      A
 Frequencies --   1319.1255              1322.2893              1330.8062
 Red. masses --      1.8088                 1.3755                 1.4820
 Frc consts  --      1.8544                 1.4169                 1.5464
 IR Inten    --      3.2856                 6.5363                 1.5520

                     58                     59                     60
                      A                      A                      A
 Frequencies --   1362.6919              1375.2229              1408.3717
 Red. masses --      1.2665                 1.3595                 2.4982
 Frc consts  --      1.3856                 1.5149                 2.9195
 IR Inten    --      6.8116                 1.2661                91.1348

                     61                     62                     63
                      A                      A                      A
 Frequencies --   1411.9711              1429.6389              1433.0204
 Red. masses --      1.4602                 1.3964                 1.5079
 Frc consts  --      1.7153                 1.6816                 1.8244
 IR Inten    --      1.6357                17.6308                50.6235

                     64                     65                     66
                      A                      A                      A
 Frequencies --   1443.1702              1451.6767              1500.6518
 Red. masses --      2.0868                 1.2419                 1.8200
 Frc consts  --      2.5607                 1.5419                 2.4148
 IR Inten    --     85.4374                 6.6921                96.2281

                     67                     68                     69
                      A                      A                      A
 Frequencies --   1517.5628              1522.1485              1529.1952
 Red. masses --      1.0572                 1.0624                 2.5494
 Frc consts  --      1.4346                 1.4502                 3.5125
 IR Inten    --      7.8094                 2.2463                10.2909

                     70                     71                     72
                      A                      A                      A
 Frequencies --   1533.6863              1538.0782              1548.9340
 Red. masses --      1.0939                 1.0657                 1.0534
 Frc consts  --      1.5159                 1.4854                 1.4890
 IR Inten    --      2.6039                10.0342                12.5290

                     73                     74                     75
                      A                      A                      A
 Frequencies --   1597.8550              1651.3460              1697.8244
 Red. masses --      6.5880                 5.8640                 1.0888
 Frc consts  --      9.9101                 9.4215                 1.8492
 IR Inten    --     25.5886                27.1018                35.0405

                     76                     77                     78
                      A                      A                      A
 Frequencies --   1745.7635              2353.6975              3019.7230
 Red. masses --      8.4642                12.6779                 1.0697
 Frc consts  --     15.1988                41.3808                 5.7470
 IR Inten    --    394.1242                25.0715                46.8754

                     79                     80                     81
                      A                      A                      A
 Frequencies --   3024.2155              3044.3345              3052.7283
 Red. masses --      1.0831                 1.0374                 1.0372
 Frc consts  --      5.8361                 5.6645                 5.6952
 IR Inten    --     21.7982                36.6019                21.4865

                     82                     83                     84
                      A                      A                      A
 Frequencies --   3100.8472              3107.7521              3114.9011
 Red. masses --      1.0940                 1.1008                 1.1017
 Frc consts  --      6.1977                 6.2642                 6.2980
 IR Inten    --     29.0962                11.3287                56.3356

                     85                     86                     87
                      A                      A                      A
 Frequencies --   3118.1233              3134.6903              3154.3267
 Red. masses --      1.1018                 1.1000                 1.0853
 Frc consts  --      6.3114                 6.3686                 6.3621
 IR Inten    --     44.0895                24.5919                11.7967

                     88                     89                     90
                      A                      A                      A
 Frequencies --   3194.6632              3221.9939              3255.5054
 Red. masses --      1.0919                 1.0918                 1.0934
 Frc consts  --      6.5658                 6.6777                 6.8275
 IR Inten    --      9.0157                 2.5821                 1.2437

                     91                     92                     93
                      A                      A                      A
 Frequencies --   3488.9574              3530.6991              3573.3220
 Red. masses --      1.0502                 1.0745                 1.0929
 Frc consts  --      7.5319                 7.8919                 8.2216
 IR Inten    --      0.2706               104.4187                 0.3473

 - Thermochemistry -
 -------------------
 Temperature   298.150 Kelvin.  Pressure   1.00000 Atm.
 Atom     1 has atomic number  6 and mass  12.00000

 Molecular mass:   232.13241 amu.
 Principal axes and moments of inertia in atomic units:
                           1         2         3
     Eigenvalues --  2144.384807181.767138134.19106
           X            0.99971  -0.02340  -0.00538
           Y            0.02329   0.99956  -0.01842
           Z            0.00581   0.01829   0.99982
 This molecule is an asymmetric top.
 Rotational symmetry number  1.
 Warning -- assumption of classical behavior for rotation
           may cause significant error
 Rotational temperatures (Kelvin)      0.04039     0.01206     0.01065
 Rotational constants (GHZ):           0.84161     0.25129     0.22187
 Zero-point vibrational energy     723173.5 (Joules/Mol)
                                  172.84262 (Kcal/Mol)
 Warning -- explicit consideration of  27 degrees of freedom as
           vibrations may cause significant error
 Vibrational temperatures:     36.99    48.29    75.79   105.52   111.01
          (Kelvin)            146.25   164.98   212.98   292.24   308.09
                              324.70   367.64   373.93   405.77   431.84
                              489.39   538.88   550.78   578.95   589.29
                              598.73   663.62   764.91   800.87   822.97
                              836.54   892.22   953.31   985.37  1025.84
                             1123.84  1154.12  1176.72  1207.42  1267.60
                             1279.44  1314.69  1354.81  1368.09  1390.80
                             1400.72  1425.17  1452.52  1509.81  1565.89
                             1592.46  1633.11  1663.24  1700.02  1728.04
                             1734.83  1781.56  1785.12  1880.68  1897.93
                             1902.48  1914.73  1960.61  1978.64  2026.33
                             2031.51  2056.93  2061.80  2076.40  2088.64
                             2159.10  2183.43  2190.03  2200.17  2206.63
                             2212.95  2228.57  2298.96  2375.92  2442.79
                             2511.76  3386.45  4344.71  4351.17  4380.12
                             4392.20  4461.43  4471.36  4481.65  4486.28
                             4510.12  4538.37  4596.41  4635.73  4683.95
                             5019.83  5079.89  5141.21

 Zero-point correction=                           0.275442 (Hartree/Particle)
 Thermal correction to Energy=                    0.292426
 Thermal correction to Enthalpy=                  0.293371
 Thermal correction to Gibbs Free Energy=         0.229439
 Sum of electronic and zero-point Energies=           -760.925418
 Sum of electronic and thermal Energies=              -760.908434
 Sum of electronic and thermal Enthalpies=            -760.907490
 Sum of electronic and thermal Free Energies=         -760.971422

                     E (Thermal)             CV                S
                      KCal/Mol        Cal/Mol-Kelvin    Cal/Mol-Kelvin
 Total                  183.500             63.189            134.556
 Electronic               0.000              0.000              0.000
 Translational            0.889              2.981             42.228
 Rotational               0.889              2.981             33.193
 Vibrational            181.723             57.228             59.135
 Vibration     1          0.593              1.985              6.136
 Vibration     2          0.594              1.983              5.607
 Vibration     3          0.596              1.977              4.714
 Vibration     4          0.599              1.967              4.062
 Vibration     5          0.599              1.964              3.962
 Vibration     6          0.604              1.948              3.422
 Vibration     7          0.608              1.937              3.188
 Vibration     8          0.617              1.905              2.697
 Vibration     9          0.639              1.835              2.105
 Vibration    10          0.644              1.819              2.008
 Vibration    11          0.650              1.802              1.913
 Vibration    12          0.666              1.753              1.692
 Vibration    13          0.668              1.746              1.662
 Vibration    14          0.681              1.707              1.521
 Vibration    15          0.693              1.673              1.416
 Vibration    16          0.720              1.595              1.211
 Vibration    17          0.746              1.524              1.061
 Vibration    18          0.752              1.507              1.028
 Vibration    19          0.768              1.465              0.954
 Vibration    20          0.774              1.449              0.928
 Vibration    21          0.779              1.435              0.905
 Vibration    22          0.819              1.336              0.763
 Vibration    23          0.887              1.180              0.584
 Vibration    24          0.912              1.125              0.531
 Vibration    25          0.928              1.092              0.500
 Vibration    26          0.938              1.071              0.483
 Vibration    27          0.980              0.989              0.416

 Optimization completed.
    -- Stationary point found.
 Normal termination of Gaussian 16 at Mon Dec 14 13:40:42 2020.

 ----------------------------------------------------------------------
 # B3LYP/6-311++G(d,p) empiricaldispersion=gd3bj scf=xqc pop=npa geom=c
 heck
 ----------------------------------------------------------------------

 --------------------------------------
 CID_65191165_JID_7882_Energie_neutraal
 --------------------------------------
 Structure from the checkpoint file:  "JID_7882.chk"
 Charge =  0 Multiplicity = 1

 SCF Done:  E(RB3LYP) =  -761.418625069     A.U. after   17 cycles
 Normal termination of Gaussian 16 at Mon Dec 14 13:47:09 2020.

 ----------------------------------------------------------------------
 # B3LYP/6-311++G(d,p) empiricaldispersion=gd3bj scf=xqc pop=npa geom=c
 heck
 ----------------------------------------------------------------------

 ------------------------------------
 CID_65191165_JID_7882_Energie_kation
 ------------------------------------
 Structure from the checkpoint file:  "JID_7882.chk"
 Charge =  1 Multiplicity = 2

 SCF Done:  E(UB3LYP) =  -761.097510402     A.U. after   33 cycles
 SCF Done:  E(UB3LYP) =  -761.098321774     a.u. after    8 cycles
 Normal termination of Gaussian 16 at Mon Dec 14 15:56:38 2020.
 Gaussian 16:  ES64L-G16RevA.03 25-Dec-2016

 ----------------------------------------------------------------------
 # B3LYP/6-311++G(d,p) empiricaldispersion=gd3bj scf=xqc pop=npa geom=c
 heck
 ----------------------------------------------------------------------

 -----------------------------------
 CID_65191165_JID_7882_Energie_anion
 -----------------------------------
 Structure from the checkpoint file:  "JID_7882.chk"
 Charge = -1 Multiplicity = 2

                         Standard orientation:
 ---------------------------------------------------------------------
 Center     Atomic      Atomic             Coordinates (Angstroms)
 Number     Number       Type             X           Y           Z
 ---------------------------------------------------------------------
      1          6           0       -2.875265    2.461694   -0.635010
      2          6           0       -2.362192    1.039736   -0.906466
      3          6           0       -1.173199    1.087102   -1.873884
      4          6           0       -1.990600    0.307345    0.408876
      5          6           0       -3.141032    0.252787    1.428071
      6          7           0       -4.259143   -0.533126    0.888904
      7          7           0       -1.613464   -1.083885    0.153251
      8          6           0       -0.436436   -1.695722   -0.124113
      9          8           0       -0.390771   -2.876619   -0.474173
     10          6           0        0.875876   -0.946972    0.001976
     11          7           0        0.972974    0.151208    0.766703
     12          6           0        2.159555    0.744373    0.876739
     13          6           0        3.311810    0.281664    0.221234
     14          6           0        3.207460   -0.870523   -0.573367
     15          6           0        1.974372   -1.495833   -0.673244
     16          6           0        4.552722    0.976389    0.370142
     17          7           0        5.558197    1.547453    0.494236
     18          1           0       -2.139602    3.039939   -0.061525
     19          1           0       -3.816223    2.470619   -0.074806
     20          1           0       -3.049967    2.992115   -1.577315
     21          1           0       -3.164229    0.463728   -1.390301
     22          1           0       -0.335487    1.643585   -1.436868
     23          1           0       -0.817483    0.085318   -2.130558
     24          1           0       -1.457589    1.586043   -2.806824
     25          1           0       -1.144493    0.815086    0.870479
     26          1           0       -2.769516   -0.264249    2.318350
     27          1           0       -3.413057    1.273106    1.735288
     28          1           0       -4.884763   -0.818883    1.637732
     29          1           0       -4.813162    0.031453    0.248303
     30          1           0       -2.418191   -1.696937    0.042914
     31          1           0        2.211568    1.626945    1.509456
     32          1           0        4.079703   -1.257010   -1.089999
     33          1           0        1.830297   -2.401698   -1.248323
 ---------------------------------------------------------------------

 SCF Done:  E(UB3LYP) =  -761.452537483     A.U. after   28 cycles

 The electronic state is 2-A.
 Alpha  occ. eigenvalues --  -18.93586 -14.22214 -14.19589 -14.16433 -14.15927
 Alpha  occ. eigenvalues --  -10.12096 -10.10759 -10.09690 -10.08113 -10.07798
 Alpha  occ. eigenvalues --  -10.07364 -10.06210 -10.05498 -10.04980 -10.04742
 Alpha  occ. eigenvalues --  -10.04242 -10.03401  -0.89189  -0.81960  -0.80406
 Alpha  occ. eigenvalues --   -0.78065  -0.76163  -0.70294  -0.67121  -0.63469
 Alpha  occ. eigenvalues --   -0.62240  -0.59337  -0.53781  -0.52820  -0.49519
 Alpha  occ. eigenvalues --   -0.47171  -0.46092  -0.42159  -0.41015  -0.39660
 Alpha  occ. eigenvalues --   -0.36743  -0.36032  -0.35722  -0.34946  -0.33760
 Alpha  occ. eigenvalues --   -0.30929  -0.30422  -0.30080  -0.29663  -0.28755
 Alpha  occ. eigenvalues --   -0.28233  -0.27292  -0.26629  -0.25833  -0.24976
 Alpha  occ. eigenvalues --   -0.23978  -0.23537  -0.23176  -0.22439  -0.21344
 Alpha  occ. eigenvalues --   -0.19532  -0.17434  -0.15459  -0.13394  -0.12637
 Alpha  occ. eigenvalues --   -0.12242  -0.10739   0.02681
 Alpha virt. eigenvalues --    0.05222   0.07199   0.08052   0.09084   0.10183
 Alpha virt. eigenvalues --    0.10592   0.10662   0.10937   0.11389   0.12139
 Alpha virt. eigenvalues --    0.12874   0.13352   0.13572   0.14415   0.14552

  Beta  occ. eigenvalues --  -18.93368 -14.22213 -14.19540 -14.16297 -14.15639
  Beta  occ. eigenvalues --  -10.12020 -10.10757 -10.09693 -10.08110 -10.07794
  Beta  occ. eigenvalues --  -10.07377 -10.06235 -10.05495 -10.04651 -10.04285
  Beta  occ. eigenvalues --  -10.04022 -10.03453  -0.88834  -0.81908  -0.79971
  Beta  occ. eigenvalues --   -0.77946  -0.75734  -0.70264  -0.66494  -0.62951
  Beta  occ. eigenvalues --   -0.62162  -0.59328  -0.53409  -0.52340  -0.49348
  Beta  occ. eigenvalues --   -0.47121  -0.45868  -0.42154  -0.40778  -0.39457
  Beta  occ. eigenvalues --   -0.36708  -0.35934  -0.35523  -0.34743  -0.33706
  Beta  occ. eigenvalues --   -0.30874  -0.30318  -0.30027  -0.29561  -0.28270
  Beta  occ. eigenvalues --   -0.27789  -0.26869  -0.26362  -0.25189  -0.24802
  Beta  occ. eigenvalues --   -0.23794  -0.23414  -0.22786  -0.22023  -0.20248
  Beta  occ. eigenvalues --   -0.19364  -0.17394  -0.14110  -0.13066  -0.11677
  Beta  occ. eigenvalues --   -0.11049  -0.10054
  Beta virt. eigenvalues --    0.05178   0.07159   0.07997   0.08828   0.09059
  Beta virt. eigenvalues --    0.10200   0.10615   0.10888   0.10914   0.11346
  Beta virt. eigenvalues --    0.12120   0.12833   0.13332   0.13555   0.14392

 Mulliken charges and spin densities:
               1          2
     1  C   -0.618977  -0.004866
     2  C    0.348541  -0.013739
     3  C   -0.713490   0.003849
     4  C   -0.278693   0.002751
     5  C   -0.792756  -0.001328
     6  N   -0.387597   0.009414
     7  N   -0.030612   0.017092
     8  C   -0.166361   0.009669
     9  O   -0.386061   0.077516
    10  C    0.064456   0.309355
    11  N   -0.004406   0.065014
    12  C   -0.571415   0.011444
    13  C    2.238494   0.245127
    14  C   -0.923690   0.196881
    15  C    0.446742  -0.009592
    16  C   -1.814341  -0.096378
    17  N   -0.315157   0.154169
    18  H    0.164810  -0.000735
    19  H    0.105517   0.008261
    20  H    0.118664   0.005137
    21  H    0.149788  -0.003593
    22  H    0.156081   0.003273
    23  H    0.205950  -0.000985
    24  H    0.131622   0.001135
    25  H    0.290522  -0.000796
    26  H    0.189025   0.009250
    27  H    0.117714   0.004594
    28  H    0.224766   0.004194
    29  H    0.216397   0.004635
    30  H    0.351367  -0.002410
    31  H    0.142323   0.001099
    32  H    0.142759  -0.013016
    33  H    0.198018   0.003579
 Sum of Mulliken charges =  -1.00000   1.00000

 Dipole moment (field-independent basis, Debye):
    X=            -12.4798    Y=              2.8747    Z=             -0.0388  Tot=             12.8067
 Quadrupole moment (field-independent basis, Debye-Ang):
   XX=           -169.9431   YY=           -133.6944   ZZ=           -108.6820
   XY=            -21.1583   XZ=            -10.0316   YZ=             -3.1331

 Summary of Natural Population Analysis:

                                       Natural Population
                Natural  -----------------------------------------------
    Atom  No    Charge         Core      Valence    Rydberg      Total
 -----------------------------------------------------------------------
      C    1   -0.28686      0.99966     2.28235    0.00486     3.28686
      C    2   -0.11446      0.99960     2.10742    0.00744     3.11446
      C    3   -0.28567      0.99965     2.28062    0.00540     3.28567
      C    4   -0.02337      0.99955     2.00941    0.01440     3.02337
      C    5   -0.09022      0.99961     2.08174    0.00887     3.09022
      N    6   -0.42863      0.99977     2.91952    0.00934     3.92863
      N    7   -0.32311      0.99965     2.80884    0.01462     3.82311
      C    8    0.34017      0.99963     1.63894    0.02125     2.65983
      O    9   -0.31788      0.99988     3.31217    0.00583     4.31788
      C   10    0.13979      0.99948     1.84517    0.01556     2.86021
      N   11   -0.23643      0.99968     2.72526    0.01148     3.73643
      C   12    0.04302      0.99957     1.94514    0.01226     2.95698
      C   13   -0.06626      0.99942     2.05628    0.01056     3.06626
      C   14   -0.02788      0.99955     2.02076    0.00757     3.02788
      C   15   -0.11486      0.99954     2.10742    0.00790     3.11486
      C   16    0.14489      0.99965     1.83714    0.01832     2.85511
      N   17   -0.16749      0.99979     2.65643    0.01127     3.66749
      H   18    0.09906      0.00000     0.40004    0.00090     0.40094
      H   19    0.09197      0.00000     0.40721    0.00081     0.40803
      H   20    0.09652      0.00000     0.40254    0.00094     0.40348
      H   21    0.08836      0.00000     0.40981    0.00183     0.41164
      H   22    0.10428      0.00000     0.39478    0.00094     0.39572
      H   23    0.11076      0.00000     0.38855    0.00069     0.38924
      H   24    0.09032      0.00000     0.40881    0.00087     0.40968
      H   25    0.12669      0.00000     0.37207    0.00124     0.37331
      H   26    0.09754      0.00000     0.40144    0.00102     0.40246
      H   27    0.08005      0.00000     0.41866    0.00129     0.41995
      H   28    0.17381      0.00000     0.32468    0.00151     0.32619
      H   29    0.17174      0.00000     0.32676    0.00149     0.32826
      H   30    0.19554      0.00000     0.30268    0.00178     0.30446
      H   31    0.08354      0.00000     0.41533    0.00112     0.41646
      H   32    0.09424      0.00000     0.40489    0.00088     0.40576
      H   33    0.11082      0.00000     0.38816    0.00101     0.38918
 =======================================================================
   * Total *   -0.00000     16.99367    44.80105    0.20527    62.00000

 Normal termination of Gaussian 16 at Mon Dec 14 16:10:27 2020.
