 Gaussian 16, Revision A.03,

 -----------------------------------------------------------
 # opt freq B3LYP/6-31G(d) empiricaldispersion=gd3bj scf=xqc
 -----------------------------------------------------------

 ------------------------------
 CID_54085920_JID_8611_neutraal
 ------------------------------
 Symbolic Z-matrix:
 Charge =  0 Multiplicity = 1

 SCF Done:  E(RB3LYP) =  -894.474887217     A.U. after   19 cycles
 SCF Done:  E(RB3LYP) =  -894.482331664     A.U. after   15 cycles
 SCF Done:  E(RB3LYP) =  -894.475496239     A.U. after   16 cycles
 SCF Done:  E(RB3LYP) =  -894.483687014     A.U. after   15 cycles
 SCF Done:  E(RB3LYP) =  -894.484815082     A.U. after   14 cycles
 SCF Done:  E(RB3LYP) =  -894.484754150     A.U. after   14 cycles
 SCF Done:  E(RB3LYP) =  -894.485448199     A.U. after   13 cycles
 SCF Done:  E(RB3LYP) =  -894.485650046     A.U. after   13 cycles
 SCF Done:  E(RB3LYP) =  -894.485672429     A.U. after   13 cycles
 SCF Done:  E(RB3LYP) =  -894.485706989     A.U. after   11 cycles
 SCF Done:  E(RB3LYP) =  -894.485716579     A.U. after    9 cycles
 SCF Done:  E(RB3LYP) =  -894.485717023     A.U. after    8 cycles
 SCF Done:  E(RB3LYP) =  -894.485717273     A.U. after    8 cycles
 SCF Done:  E(RB3LYP) =  -894.485717401     A.U. after    8 cycles
 SCF Done:  E(RB3LYP) =  -894.485717475     A.U. after    7 cycles
 SCF Done:  E(RB3LYP) =  -894.485717505     A.U. after    7 cycles
 Optimization completed.
    -- Stationary point found.
 Normal termination of Gaussian 16 at Fri Dec 11 21:23:08 2020.

 --------------------------------------------------------------------
 #N Geom=AllCheck Guess=TCheck SCRF=Check GenChk RB3LYP/6-31G(d) Freq
 --------------------------------------------------------------------

 Structure from the checkpoint file:  "JID_8611.chk"
 ------------------------------
 CID_54085920_JID_8611_neutraal
 ------------------------------
 Charge =  0 Multiplicity = 1

 SCF Done:  E(RB3LYP) =  -894.485717505     A.U. after    1 cycles

  Exact polarizability: 206.298  -6.184 159.337   3.462 -12.758 101.406
 Approx polarizability: 296.830 -10.343 278.818  12.426 -31.919 156.003

                      1                      2                      3
                      A                      A                      A
 Frequencies --     28.5394                49.1389                52.1659
 Red. masses --      6.2924                 4.6396                 5.1192
 Frc consts  --      0.0030                 0.0066                 0.0082
 IR Inten    --      2.5092                 0.6090                 0.5630

                      4                      5                      6
                      A                      A                      A
 Frequencies --     62.3730                79.9348               117.3190
 Red. masses --      5.3067                 7.1804                 4.7557
 Frc consts  --      0.0122                 0.0270                 0.0386
 IR Inten    --      2.2547                 2.2427                 0.0454

                      7                      8                      9
                      A                      A                      A
 Frequencies --    119.8994               160.8367               168.1608
 Red. masses --      3.4774                 3.9504                 4.5171
 Frc consts  --      0.0295                 0.0602                 0.0753
 IR Inten    --      4.5194                 1.5188                 3.5071

                     10                     11                     12
                      A                      A                      A
 Frequencies --    194.8275               231.9213               246.8780
 Red. masses --      4.1603                 3.3911                 1.9909
 Frc consts  --      0.0930                 0.1075                 0.0715
 IR Inten    --      2.9804                 1.9316                12.6331

                     13                     14                     15
                      A                      A                      A
 Frequencies --    256.9981               263.4259               280.2487
 Red. masses --      2.4295                 1.2989                 1.5416
 Frc consts  --      0.0945                 0.0531                 0.0713
 IR Inten    --     29.3084                39.0912                59.5283

                     16                     17                     18
                      A                      A                      A
 Frequencies --    315.0656               324.8306               364.1532
 Red. masses --      3.5177                 1.9907                 3.5711
 Frc consts  --      0.2057                 0.1238                 0.2790
 IR Inten    --      5.0043                 6.5701                31.0812

                     19                     20                     21
                      A                      A                      A
 Frequencies --    391.5811               394.3436               401.9760
 Red. masses --      2.8688                 2.0940                 3.0386
 Frc consts  --      0.2592                 0.1919                 0.2893
 IR Inten    --     25.7817               106.6410                50.3817

                     22                     23                     24
                      A                      A                      A
 Frequencies --    414.6109               428.0128               446.3076
 Red. masses --      2.5241                 3.9415                 3.5075
 Frc consts  --      0.2556                 0.4254                 0.4116
 IR Inten    --     60.9123                 7.4060                 2.4189

                     25                     26                     27
                      A                      A                      A
 Frequencies --    497.3592               508.2720               511.3862
 Red. masses --      1.3640                 2.0760                 2.3508
 Frc consts  --      0.1988                 0.3160                 0.3622
 IR Inten    --    125.3803                 2.1089                33.2954

                     28                     29                     30
                      A                      A                      A
 Frequencies --    524.3661               589.8489               603.4851
 Red. masses --      1.1610                 4.5202                 4.1948
 Frc consts  --      0.1881                 0.9266                 0.9001
 IR Inten    --     66.3522                12.7206                 2.8834

                     31                     32                     33
                      A                      A                      A
 Frequencies --    607.9847               631.1279               723.4970
 Red. masses --      3.9253                 3.2451                 4.1682
 Frc consts  --      0.8549                 0.7616                 1.2855
 IR Inten    --      2.2743                 4.3945                 9.1259

                     34                     35                     36
                      A                      A                      A
 Frequencies --    730.9587               778.2370               787.9931
 Red. masses --      4.0462                 7.1301                 7.8133
 Frc consts  --      1.2738                 2.5443                 2.8584
 IR Inten    --      4.0594                15.9615                13.1182

                     37                     38                     39
                      A                      A                      A
 Frequencies --    825.5842               847.1470               894.4708
 Red. masses --      1.5792                 4.1607                 2.2022
 Frc consts  --      0.6342                 1.7593                 1.0381
 IR Inten    --     18.9870                29.2219                 3.7619

                     40                     41                     42
                      A                      A                      A
 Frequencies --    906.1624               932.3533               953.1088
 Red. masses --      3.1911                 1.8999                 2.2362
 Frc consts  --      1.5438                 0.9731                 1.1969
 IR Inten    --      0.3735                 5.2862                30.0943

                     43                     44                     45
                      A                      A                      A
 Frequencies --    960.4379              1011.1196              1036.1520
 Red. masses --      1.3543                 2.5654                 2.2861
 Frc consts  --      0.7361                 1.5453                 1.4461
 IR Inten    --      0.3027                 5.2160                11.7340

                     46                     47                     48
                      A                      A                      A
 Frequencies --   1063.2004              1073.8419              1085.9723
 Red. masses --      1.7158                 1.6471                 1.8451
 Frc consts  --      1.1427                 1.1190                 1.2821
 IR Inten    --      8.0978                11.6809                15.0937

                     49                     50                     51
                      A                      A                      A
 Frequencies --   1096.7448              1106.6149              1129.7325
 Red. masses --      3.3980                 2.8790                 2.1642
 Frc consts  --      2.4081                 2.0772                 1.6274
 IR Inten    --     78.5483                55.7585                 1.2236

                     52                     53                     54
                      A                      A                      A
 Frequencies --   1144.4152              1185.0882              1191.7733
 Red. masses --      2.5323                 2.3360                 1.6007
 Frc consts  --      1.9540                 1.9330                 1.3395
 IR Inten    --     37.3046                29.6996                15.7874

                     55                     56                     57
                      A                      A                      A
 Frequencies --   1219.3056              1237.0711              1241.1267
 Red. masses --      1.5413                 1.5488                 1.3592
 Frc consts  --      1.3501                 1.3965                 1.2336
 IR Inten    --     47.8326                15.7411                33.6782

                     58                     59                     60
                      A                      A                      A
 Frequencies --   1277.9990              1291.4436              1311.8303
 Red. masses --      1.4037                 1.5561                 3.0408
 Frc consts  --      1.3508                 1.5291                 3.0832
 IR Inten    --     27.7008                61.4603               128.8105

                     61                     62                     63
                      A                      A                      A
 Frequencies --   1329.5027              1370.4676              1385.3604
 Red. masses --      1.4020                 2.5087                 1.6668
 Frc consts  --      1.4601                 2.7761                 1.8848
 IR Inten    --     29.3203                59.8105                48.8102

                     64                     65                     66
                      A                      A                      A
 Frequencies --   1394.5758              1401.5158              1406.6800
 Red. masses --      1.5447                 1.2666                 3.0711
 Frc consts  --      1.7700                 1.4658                 3.5805
 IR Inten    --     81.8539                23.0509                57.1202

                     67                     68                     69
                      A                      A                      A
 Frequencies --   1432.6570              1444.9972              1450.3247
 Red. masses --      1.3769                 1.2580                 1.3190
 Frc consts  --      1.6651                 1.5476                 1.6346
 IR Inten    --     10.0869                28.2134                35.8667

                     70                     71                     72
                      A                      A                      A
 Frequencies --   1454.8215              1477.0668              1498.4739
 Red. masses --      3.4367                 1.5031                 1.0844
 Frc consts  --      4.2856                 1.9322                 1.4346
 IR Inten    --     21.4265                 1.3108                 9.3012

                     73                     74                     75
                      A                      A                      A
 Frequencies --   1499.0406              1513.0090              1526.5444
 Red. masses --      1.3790                 1.1341                 1.0850
 Frc consts  --      1.8258                 1.5296                 1.4898
 IR Inten    --      4.2373                24.9168                 7.1098

                     76                     77                     78
                      A                      A                      A
 Frequencies --   1535.8999              1540.2634              1553.3678
 Red. masses --      1.8604                 1.0902                 1.0928
 Frc consts  --      2.5857                 1.5239                 1.5536
 IR Inten    --     68.8224                 5.8535                 1.5772

                     79                     80                     81
                      A                      A                      A
 Frequencies --   1597.9800              1607.7886              1660.0085
 Red. masses --      5.3752                 5.6362                 1.8743
 Frc consts  --      8.0870                 8.5841                 3.0430
 IR Inten    --    306.0562                39.6113                 4.6633

                     82                     83                     84
                      A                      A                      A
 Frequencies --   1678.6158              2978.8967              2999.0415
 Red. masses --      3.2198                 1.0718                 1.0582
 Frc consts  --      5.3454                 5.6038                 5.6074
 IR Inten    --    240.0137                35.1712                58.6847

                     85                     86                     87
                      A                      A                      A
 Frequencies --   3037.6239              3041.3319              3054.6472
 Red. masses --      1.0734                 1.0948                 1.0629
 Frc consts  --      5.8357                 5.9666                 5.8435
 IR Inten    --     74.5553                56.3146                23.2438

                     88                     89                     90
                      A                      A                      A
 Frequencies --   3087.1750              3092.0756              3099.6105
 Red. masses --      1.0406                 1.0998                 1.0899
 Frc consts  --      5.8433                 6.1951                 6.1695
 IR Inten    --      9.7322                44.3198                19.4010

                     91                     92                     93
                      A                      A                      A
 Frequencies --   3124.2239              3146.2887              3184.1914
 Red. masses --      1.1030                 1.0979                 1.1000
 Frc consts  --      6.3434                 6.4037                 6.5710
 IR Inten    --     30.1398                 8.6598                16.9420

                     94                     95                     96
                      A                      A                      A
 Frequencies --   3186.3195              3204.3227              3579.5110
 Red. masses --      1.0873                 1.0951                 1.0460
 Frc consts  --      6.5041                 6.6249                 7.8962
 IR Inten    --     14.8762                13.8069                78.0167

                     97                     98                     99
                      A                      A                      A
 Frequencies --   3669.2176              3700.1278              3758.0497
 Red. masses --      1.0640                 1.1023                 1.0665
 Frc consts  --      8.4402                 8.8914                 8.8741
 IR Inten    --     54.5888                55.2557                23.5392

 - Thermochemistry -
 -------------------
 Temperature   298.150 Kelvin.  Pressure   1.00000 Atm.
 Atom     1 has atomic number  6 and mass  12.00000

 Molecular mass:   255.12191 amu.
 Principal axes and moments of inertia in atomic units:
                           1         2         3
     Eigenvalues --  2332.228527890.475628533.16678
           X            0.99992  -0.01244  -0.00075
           Y            0.01241   0.99955  -0.02748
           Z            0.00109   0.02747   0.99962
 This molecule is an asymmetric top.
 Rotational symmetry number  1.
 Warning -- assumption of classical behavior for rotation
           may cause significant error
 Rotational temperatures (Kelvin)      0.03714     0.01098     0.01015
 Rotational constants (GHZ):           0.77383     0.22872     0.21150
 Zero-point vibrational energy     759702.7 (Joules/Mol)
                                  181.57331 (Kcal/Mol)
 Warning -- explicit consideration of  31 degrees of freedom as
           vibrations may cause significant error
 Vibrational temperatures:     41.06    70.70    75.06    89.74   115.01
          (Kelvin)            168.80   172.51   231.41   241.95   280.31
                              333.68   355.20   369.76   379.01   403.22
                              453.31   467.36   523.94   563.40   567.37
                              578.35   596.53   615.81   642.14   715.59
                              731.29   735.77   754.45   848.66   868.28
                              874.75   908.05  1040.95  1051.69  1119.71
                             1133.75  1187.83  1218.86  1286.94  1303.77
                             1341.45  1371.31  1381.86  1454.78  1490.79
                             1529.71  1545.02  1562.47  1577.97  1592.17
                             1625.43  1646.56  1705.08  1714.70  1754.31
                             1779.87  1785.70  1838.76  1858.10  1887.43
                             1912.86  1971.80  1993.22  2006.48  2016.47
                             2023.90  2061.27  2079.03  2086.69  2093.16
                             2125.17  2155.97  2156.79  2176.88  2196.36
                             2209.82  2216.10  2234.95  2299.14  2313.25
                             2388.38  2415.15  4285.97  4314.95  4370.46
                             4375.80  4394.96  4441.76  4448.81  4459.65
                             4495.06  4526.81  4581.34  4584.40  4610.31
                             5150.12  5279.19  5323.66  5407.00

 Zero-point correction=                           0.289355 (Hartree/Particle)
 Thermal correction to Energy=                    0.307558
 Thermal correction to Enthalpy=                  0.308502
 Thermal correction to Gibbs Free Energy=         0.242798
 Sum of electronic and zero-point Energies=           -894.196362
 Sum of electronic and thermal Energies=              -894.178159
 Sum of electronic and thermal Enthalpies=            -894.177215
 Sum of electronic and thermal Free Energies=         -894.242919

                     E (Thermal)             CV                S
                      KCal/Mol        Cal/Mol-Kelvin    Cal/Mol-Kelvin
 Total                  192.996             68.827            138.286
 Electronic               0.000              0.000              0.000
 Translational            0.889              2.981             42.510
 Rotational               0.889              2.981             33.418
 Vibrational            191.218             62.865             62.358
 Vibration     1          0.593              1.984              5.928
 Vibration     2          0.595              1.978              4.852
 Vibration     3          0.596              1.977              4.734
 Vibration     4          0.597              1.972              4.381
 Vibration     5          0.600              1.963              3.892
 Vibration     6          0.608              1.935              3.144
 Vibration     7          0.609              1.933              3.102
 Vibration     8          0.622              1.890              2.540
 Vibration     9          0.625              1.882              2.456
 Vibration    10          0.635              1.847              2.181
 Vibration    11          0.653              1.792              1.864
 Vibration    12          0.661              1.768              1.753
 Vibration    13          0.667              1.751              1.682
 Vibration    14          0.670              1.740              1.639
 Vibration    15          0.680              1.710              1.532
 Vibration    16          0.702              1.645              1.336
 Vibration    17          0.709              1.626              1.286
 Vibration    18          0.738              1.546              1.104
 Vibration    19          0.759              1.488              0.994
 Vibration    20          0.761              1.482              0.984
 Vibration    21          0.768              1.466              0.955
 Vibration    22          0.778              1.439              0.910
 Vibration    23          0.790              1.409              0.865
 Vibration    24          0.806              1.369              0.807
 Vibration    25          0.853              1.256              0.665
 Vibration    26          0.863              1.232              0.638
 Vibration    27          0.866              1.225              0.630
 Vibration    28          0.879              1.196              0.600
 Vibration    29          0.947              1.053              0.467
 Vibration    30          0.962              1.024              0.444
 Vibration    31          0.967              1.015              0.436

 Optimization completed.
    -- Stationary point found.
 Normal termination of Gaussian 16 at Fri Dec 11 21:39:40 2020.

 ----------------------------------------------------------------------
 # B3LYP/6-311++G(d,p) empiricaldispersion=gd3bj scf=xqc pop=npa geom=c
 heck
 ----------------------------------------------------------------------

 --------------------------------------
 CID_54085920_JID_8611_Energie_neutraal
 --------------------------------------
 Structure from the checkpoint file:  "JID_8611.chk"
 Charge =  0 Multiplicity = 1

 SCF Done:  E(RB3LYP) =  -894.765768908     A.U. after   16 cycles
 Normal termination of Gaussian 16 at Fri Dec 11 21:46:14 2020.

 ----------------------------------------------------------------------
 # B3LYP/6-311++G(d,p) empiricaldispersion=gd3bj scf=xqc pop=npa geom=c
 heck
 ----------------------------------------------------------------------

 ------------------------------------
 CID_54085920_JID_8611_Energie_kation
 ------------------------------------
 Structure from the checkpoint file:  "JID_8611.chk"
 Charge =  1 Multiplicity = 2

 SCF Done:  E(UB3LYP) =  -894.482094690     A.U. after   29 cycles
 Normal termination of Gaussian 16 at Fri Dec 11 22:02:21 2020.
 Gaussian 16:  ES64L-G16RevA.03 25-Dec-2016

 ----------------------------------------------------------------------
 # B3LYP/6-311++G(d,p) empiricaldispersion=gd3bj scf=xqc pop=npa geom=c
 heck
 ----------------------------------------------------------------------

 -----------------------------------
 CID_54085920_JID_8611_Energie_anion
 -----------------------------------
 Structure from the checkpoint file:  "JID_8611.chk"
 Charge = -1 Multiplicity = 2

                         Standard orientation:
 ---------------------------------------------------------------------
 Center     Atomic      Atomic             Coordinates (Angstroms)
 Number     Number       Type             X           Y           Z
 ---------------------------------------------------------------------
      1          6           0       -0.474269   -2.014721    0.030521
      2          6           0       -0.836825   -0.549235   -0.030110
      3          6           0        0.176334    0.415159   -0.138924
      4          6           0       -0.175921    1.766163   -0.294954
      5          6           0       -1.488019    2.181395   -0.354127
      6          6           0       -2.544993    1.256153   -0.234061
      7          6           0       -2.184898   -0.105243   -0.037075
      8          7           0       -3.248481   -1.072379    0.182351
      9          8           0       -4.358551   -0.869011   -0.341502
     10          8           0       -3.020928   -2.055777    0.886485
     11          7           0       -3.834709    1.711145   -0.236691
     12          7           0        1.578723    0.108345   -0.125921
     13          6           0        2.125568   -0.225807   -1.444214
     14          6           0        3.618495    0.024242   -1.606717
     15          8           0        4.336169   -1.046225   -0.998428
     16          6           0        2.094431   -0.630367    1.042025
     17          6           0        3.207360    0.165654    1.734302
     18          8           0        2.796754    1.499375    1.981531
     19          1           0       -0.484239   -2.391055    1.057315
     20          1           0       -1.180419   -2.628045   -0.531940
     21          1           0        0.522041   -2.168401   -0.382046
     22          1           0        0.624713    2.494969   -0.382241
     23          1           0       -1.727701    3.233323   -0.481627
     24          1           0       -4.559100    1.042242   -0.456042
     25          1           0       -3.981757    2.668990   -0.517726
     26          1           0        1.934363   -1.276211   -1.724821
     27          1           0        1.600509    0.401179   -2.171615
     28          1           0        3.845467    0.074441   -2.683213
     29          1           0        3.875483    0.994368   -1.156306
     30          1           0        5.279783   -0.827540   -1.021255
     31          1           0        1.270131   -0.753480    1.749305
     32          1           0        2.462257   -1.624733    0.761125
     33          1           0        3.436833   -0.290567    2.703788
     34          1           0        4.119935    0.130150    1.123725
     35          1           0        2.361840    1.763339    1.150722
 ---------------------------------------------------------------------

 SCF Done:  E(UB3LYP) =  -894.797648572     A.U. after   27 cycles

 The electronic state is 2-A.
 Alpha  occ. eigenvalues --  -19.05207 -19.01427 -18.93911 -18.93824 -14.31329
 Alpha  occ. eigenvalues --  -14.20739 -14.18510 -10.13864 -10.11070 -10.10433
 Alpha  occ. eigenvalues --  -10.09005 -10.08657 -10.06714 -10.06555 -10.05077
 Alpha  occ. eigenvalues --  -10.03750 -10.03657 -10.03464  -1.01913  -0.95258
 Alpha  occ. eigenvalues --   -0.91954  -0.84631  -0.82261  -0.79424  -0.71318
 Alpha  occ. eigenvalues --   -0.66494  -0.64940  -0.63441  -0.60485  -0.56317
 Alpha  occ. eigenvalues --   -0.53669  -0.52409  -0.49474  -0.46425  -0.45057
 Alpha  occ. eigenvalues --   -0.44834  -0.41261  -0.39394  -0.38678  -0.37825
 Alpha  occ. eigenvalues --   -0.37488  -0.36113  -0.34971  -0.34414  -0.33411
 Alpha  occ. eigenvalues --   -0.33085  -0.32365  -0.31663  -0.30134  -0.29961
 Alpha  occ. eigenvalues --   -0.28603  -0.28141  -0.27309  -0.26570  -0.25758
 Alpha  occ. eigenvalues --   -0.24866  -0.24102  -0.23203  -0.22363  -0.20809
 Alpha  occ. eigenvalues --   -0.18411  -0.17298  -0.13294  -0.12713  -0.12569
 Alpha  occ. eigenvalues --   -0.11725  -0.09569  -0.07719   0.03155
 Alpha virt. eigenvalues --    0.04866   0.07490   0.08326   0.08863   0.09131
 Alpha virt. eigenvalues --    0.10572   0.11183   0.11431   0.11688   0.12229
 Alpha virt. eigenvalues --    0.12735   0.13029   0.13773   0.14211   0.14485

  Beta  occ. eigenvalues --  -19.05202 -19.01426 -18.93433 -18.93255 -14.30589
  Beta  occ. eigenvalues --  -14.20737 -14.18462 -10.13860 -10.11069 -10.10436
  Beta  occ. eigenvalues --  -10.09007 -10.08548 -10.06811 -10.06584 -10.04861
  Beta  occ. eigenvalues --  -10.03743 -10.03478 -10.03437  -1.00734  -0.95246
  Beta  occ. eigenvalues --   -0.91950  -0.83661  -0.82268  -0.79260  -0.71088
  Beta  occ. eigenvalues --   -0.66481  -0.64556  -0.63348  -0.60151  -0.56183
  Beta  occ. eigenvalues --   -0.53667  -0.51705  -0.49387  -0.46218  -0.45009
  Beta  occ. eigenvalues --   -0.44567  -0.41155  -0.39140  -0.38530  -0.37692
  Beta  occ. eigenvalues --   -0.37409  -0.36030  -0.34563  -0.33522  -0.32995
  Beta  occ. eigenvalues --   -0.32205  -0.31593  -0.31403  -0.29952  -0.29617
  Beta  occ. eigenvalues --   -0.28096  -0.27936  -0.27216  -0.26458  -0.25673
  Beta  occ. eigenvalues --   -0.24406  -0.23916  -0.23158  -0.22267  -0.20798
  Beta  occ. eigenvalues --   -0.17911  -0.17284  -0.12485  -0.11813  -0.11362
  Beta  occ. eigenvalues --   -0.09767  -0.08938  -0.07209
  Beta virt. eigenvalues --    0.04897   0.07417   0.08267   0.08770   0.09098
  Beta virt. eigenvalues --    0.10098   0.10537   0.11138   0.11445   0.11695
  Beta virt. eigenvalues --    0.12675   0.12955   0.13237   0.13852   0.14301

 Mulliken charges and spin densities:
               1          2
     1  C   -0.728088  -0.019850
     2  C    0.232312   0.135187
     3  C   -0.663487  -0.043338
     4  C   -0.123403   0.185109
     5  C   -0.016364  -0.018138
     6  C   -0.477479   0.062002
     7  C    0.375818  -0.004896
     8  N   -0.367194   0.241577
     9  O   -0.198765   0.176625
    10  O   -0.167203   0.212710
    11  N   -0.283052   0.021082
    12  N    0.208484   0.006062
    13  C   -0.222302   0.054746
    14  C   -0.300373  -0.155246
    15  O   -0.259165   0.000416
    16  C    0.106789   0.008763
    17  C   -0.589727  -0.008639
    18  O   -0.222890  -0.002720
    19  H    0.222060   0.006381
    20  H    0.198932   0.003679
    21  H    0.052374   0.004519
    22  H    0.080898  -0.017121
    23  H    0.105415   0.002368
    24  H    0.263950   0.006110
    25  H    0.207916   0.001183
    26  H    0.151042   0.003098
    27  H    0.149923   0.017041
    28  H    0.094017   0.049676
    29  H    0.132284   0.027061
    30  H    0.192759   0.043889
    31  H    0.168795   0.004191
    32  H    0.150317  -0.008292
    33  H    0.158866   0.001638
    34  H    0.113079   0.000531
    35  H    0.253465   0.002597
 Sum of Mulliken charges =  -1.00000   1.00000

 Dipole moment (field-independent basis, Debye):
    X=             10.1885    Y=              3.6122    Z=             -3.5223  Tot=             11.3693
 Quadrupole moment (field-independent basis, Debye-Ang):
   XX=           -164.2185   YY=           -127.9944   ZZ=           -122.4615
   XY=            -21.8653   XZ=             -1.9323   YZ=             -4.8999

 Summary of Natural Population Analysis:

                                       Natural Population
                Natural  -----------------------------------------------
    Atom  No    Charge         Core      Valence    Rydberg      Total
 -----------------------------------------------------------------------
      C    1   -0.29566      0.99964     2.29089    0.00514     3.29566
      C    2    0.03247      0.99944     1.96079    0.00730     2.96753
      C    3    0.02984      0.99940     1.95741    0.01335     2.97016
      C    4   -0.05133      0.99952     2.04290    0.00891     3.05133
      C    5   -0.13727      0.99954     2.12929    0.00845     3.13727
      C    6    0.11193      0.99949     1.87778    0.01081     2.88807
      C    7    0.01526      0.99937     1.97106    0.01431     2.98474
      N    8    0.31696      0.99970     2.15494    0.02840     3.18304
      O    9   -0.21986      0.99989     3.21215    0.00781     4.21986
      O   10   -0.17692      0.99990     3.16907    0.00795     4.17692
      N   11   -0.39232      0.99969     2.88367    0.00896     3.89232
      N   12   -0.29869      0.99967     2.78216    0.01686     3.79869
      C   13   -0.08876      0.99960     2.07876    0.01040     3.08876
      C   14   -0.01900      0.99959     2.00827    0.01114     3.01900
      O   15   -0.37099      0.99989     3.36396    0.00713     4.37099
      C   16   -0.09900      0.99962     2.09053    0.00885     3.09900
      C   17   -0.01273      0.99961     2.00195    0.01117     3.01273
      O   18   -0.37525      0.99990     3.36909    0.00626     4.37525
      H   19    0.11191      0.00000     0.38700    0.00110     0.38809
      H   20    0.11389      0.00000     0.38492    0.00119     0.38611
      H   21    0.08908      0.00000     0.40991    0.00100     0.41092
      H   22    0.08826      0.00000     0.40993    0.00181     0.41174
      H   23    0.08848      0.00000     0.40977    0.00175     0.41152
      H   24    0.21061      0.00000     0.28755    0.00185     0.28939
      H   25    0.17613      0.00000     0.32247    0.00140     0.32387
      H   26    0.08570      0.00000     0.41209    0.00221     0.41430
      H   27    0.10522      0.00000     0.39354    0.00125     0.39478
      H   28    0.07508      0.00000     0.42295    0.00196     0.42492
      H   29    0.07879      0.00000     0.41894    0.00227     0.42121
      H   30    0.22568      0.00000     0.27112    0.00320     0.27432
      H   31    0.10390      0.00000     0.39514    0.00096     0.39610
      H   32    0.09526      0.00000     0.40371    0.00102     0.40474
      H   33    0.07965      0.00000     0.41927    0.00108     0.42035
      H   34    0.07059      0.00000     0.42643    0.00298     0.42941
      H   35    0.23310      0.00000     0.26396    0.00294     0.26690
 =======================================================================
   * Total *    0.00000     17.99347    49.78336    0.22318    68.00000

 Normal termination of Gaussian 16 at Fri Dec 11 22:17:29 2020.
