 Gaussian 16, Revision A.03,

 -----------------------------------------------------------
 # opt freq B3LYP/6-31G(d) empiricaldispersion=gd3bj scf=xqc
 -----------------------------------------------------------

 -------------------------------
 CID_148014417_JID_4006_neutraal
 -------------------------------
 Symbolic Z-matrix:
 Charge =  0 Multiplicity = 1

 SCF Done:  E(RB3LYP) =  -671.741497644     A.U. after   15 cycles
 SCF Done:  E(RB3LYP) =  -671.750599721     A.U. after   12 cycles
 SCF Done:  E(RB3LYP) =  -671.751659103     A.U. after   12 cycles
 SCF Done:  E(RB3LYP) =  -671.752109414     A.U. after   12 cycles
 SCF Done:  E(RB3LYP) =  -671.752539036     A.U. after   12 cycles
 SCF Done:  E(RB3LYP) =  -671.752581477     A.U. after   11 cycles
 SCF Done:  E(RB3LYP) =  -671.752654444     A.U. after   10 cycles
 SCF Done:  E(RB3LYP) =  -671.752682724     A.U. after   10 cycles
 SCF Done:  E(RB3LYP) =  -671.752703233     A.U. after   11 cycles
 SCF Done:  E(RB3LYP) =  -671.752716261     A.U. after   10 cycles
 SCF Done:  E(RB3LYP) =  -671.752719567     A.U. after   10 cycles
 SCF Done:  E(RB3LYP) =  -671.752720343     A.U. after    8 cycles
 SCF Done:  E(RB3LYP) =  -671.752720549     A.U. after    7 cycles
 SCF Done:  E(RB3LYP) =  -671.752720643     A.U. after    7 cycles
 SCF Done:  E(RB3LYP) =  -671.752720718     A.U. after    7 cycles
 Optimization completed.
    -- Stationary point found.
 Normal termination of Gaussian 16 at Thu Dec 10 09:18:30 2020.

 --------------------------------------------------------------------
 #N Geom=AllCheck Guess=TCheck SCRF=Check GenChk RB3LYP/6-31G(d) Freq
 --------------------------------------------------------------------

 Structure from the checkpoint file:  "JID_4006.chk"
 -------------------------------
 CID_148014417_JID_4006_neutraal
 -------------------------------
 Charge =  0 Multiplicity = 1

 SCF Done:  E(RB3LYP) =  -671.752720718     A.U. after    1 cycles

  Exact polarizability: 133.872   5.964 118.483  -9.445   3.875  94.067
 Approx polarizability: 163.667  20.871 200.100 -10.121   6.670 141.504

                      1                      2                      3
                      A                      A                      A
 Frequencies --     22.6595                43.8375                57.8233
 Red. masses --      5.7285                 4.7093                 3.7396
 Frc consts  --      0.0017                 0.0053                 0.0074
 IR Inten    --      0.3364                 0.8907                 0.2217

                      4                      5                      6
                      A                      A                      A
 Frequencies --     66.8097                85.7129               112.1339
 Red. masses --      4.4986                 3.9377                 5.7873
 Frc consts  --      0.0118                 0.0170                 0.0429
 IR Inten    --      1.4954                 1.5429                 7.2336

                      7                      8                      9
                      A                      A                      A
 Frequencies --    135.7989               168.3949               236.3474
 Red. masses --      4.2779                 3.0770                 2.7557
 Frc consts  --      0.0465                 0.0514                 0.0907
 IR Inten    --      3.8164                 5.1639                 9.6475

                     10                     11                     12
                      A                      A                      A
 Frequencies --    255.9591               277.1211               314.9218
 Red. masses --      3.4789                 1.8492                 1.8097
 Frc consts  --      0.1343                 0.0837                 0.1057
 IR Inten    --      2.4143                20.0198                47.7424

                     13                     14                     15
                      A                      A                      A
 Frequencies --    326.5325               350.2380               383.9419
 Red. masses --      1.6174                 2.6139                 1.9639
 Frc consts  --      0.1016                 0.1889                 0.1706
 IR Inten    --     43.2278                 3.7076                 2.7623

                     16                     17                     18
                      A                      A                      A
 Frequencies --    412.6325               442.6824               494.3696
 Red. masses --      1.3523                 2.0043                 2.3050
 Frc consts  --      0.1357                 0.2314                 0.3319
 IR Inten    --     93.7201                15.5238                 9.8522

                     19                     20                     21
                      A                      A                      A
 Frequencies --    520.6332               542.4947               564.8533
 Red. masses --      2.9372                 4.6506                 2.6468
 Frc consts  --      0.4691                 0.8064                 0.4976
 IR Inten    --      0.8584                 3.9416                 0.5740

                     22                     23                     24
                      A                      A                      A
 Frequencies --    664.5366               701.4118               707.3403
 Red. masses --      2.4896                 2.6084                 4.5950
 Frc consts  --      0.6478                 0.7561                 1.3545
 IR Inten    --      2.4577                11.2537                 6.5170

                     25                     26                     27
                      A                      A                      A
 Frequencies --    732.5312               765.6377               806.4787
 Red. masses --      1.6851                 2.0620                 2.9361
 Frc consts  --      0.5328                 0.7122                 1.1251
 IR Inten    --     12.8347                 4.0961                19.0931

                     28                     29                     30
                      A                      A                      A
 Frequencies --    842.9552               850.8396               860.2440
 Red. masses --      2.3557                 2.0823                 2.4117
 Frc consts  --      0.9862                 0.8881                 1.0515
 IR Inten    --     27.2512                 6.5883                49.3279

                     31                     32                     33
                      A                      A                      A
 Frequencies --    925.3101               952.9074               967.0877
 Red. masses --      1.9648                 1.9992                 1.4195
 Frc consts  --      0.9912                 1.0696                 0.7822
 IR Inten    --      1.5489                 3.1829                12.2362

                     34                     35                     36
                      A                      A                      A
 Frequencies --    974.3549              1011.6363              1020.4316
 Red. masses --      1.8506                 1.9610                 1.6972
 Frc consts  --      1.0352                 1.1824                 1.0412
 IR Inten    --     25.4911                24.7314                13.3437

                     37                     38                     39
                      A                      A                      A
 Frequencies --   1051.0861              1064.2882              1091.3144
 Red. masses --      1.9301                 1.6533                 2.5730
 Frc consts  --      1.2563                 1.1033                 1.8055
 IR Inten    --      8.7167                22.1901                34.9022

                     40                     41                     42
                      A                      A                      A
 Frequencies --   1098.2687              1122.3357              1131.0682
 Red. masses --      2.8414                 2.3091                 1.9425
 Frc consts  --      2.0193                 1.7137                 1.4642
 IR Inten    --     99.5394                11.8331                 8.4591

                     43                     44                     45
                      A                      A                      A
 Frequencies --   1149.8637              1168.0646              1187.2980
 Red. masses --      1.8831                 1.4729                 1.4747
 Frc consts  --      1.4670                 1.1840                 1.2249
 IR Inten    --     16.9239                29.0266                10.7467

                     46                     47                     48
                      A                      A                      A
 Frequencies --   1234.9775              1249.7717              1264.3287
 Red. masses --      1.4852                 1.3933                 1.5457
 Frc consts  --      1.3346                 1.2822                 1.4558
 IR Inten    --      6.3855                18.2926                48.9519

                     49                     50                     51
                      A                      A                      A
 Frequencies --   1293.2143              1308.0361              1339.8352
 Red. masses --      1.3047                 1.3437                 1.2902
 Frc consts  --      1.2856                 1.3545                 1.3646
 IR Inten    --     15.7917                 4.1414                 3.7686

                     52                     53                     54
                      A                      A                      A
 Frequencies --   1352.6544              1370.6189              1384.1022
 Red. masses --      1.4809                 1.6566                 1.4719
 Frc consts  --      1.5964                 1.8336                 1.6614
 IR Inten    --      0.2555                41.4359                10.1784

                     55                     56                     57
                      A                      A                      A
 Frequencies --   1394.2466              1408.1292              1413.9672
 Red. masses --      1.4420                 1.2517                 1.3572
 Frc consts  --      1.6516                 1.4623                 1.5987
 IR Inten    --     13.0751                42.0943                 5.6102

                     58                     59                     60
                      A                      A                      A
 Frequencies --   1419.8558              1429.9820              1442.8801
 Red. masses --      1.4443                 1.3651                 1.3874
 Frc consts  --      1.7156                 1.6447                 1.7019
 IR Inten    --     17.1257                12.3525                32.0954

                     61                     62                     63
                      A                      A                      A
 Frequencies --   1443.8422              1449.9386              1503.7823
 Red. masses --      2.1396                 1.2902                 1.0886
 Frc consts  --      2.6280                 1.5981                 1.4504
 IR Inten    --     98.9501               115.0425                 6.8955

                     64                     65                     66
                      A                      A                      A
 Frequencies --   1509.9841              1522.2903              1525.5491
 Red. masses --      1.1055                 1.0837                 1.0864
 Frc consts  --      1.4851                 1.4797                 1.4897
 IR Inten    --     11.0458                 8.4001                 4.7567

                     67                     68                     69
                      A                      A                      A
 Frequencies --   1540.6684              1543.2250              1674.9253
 Red. masses --      1.0821                 1.0930                 6.6670
 Frc consts  --      1.5134                 1.5336                11.0198
 IR Inten    --      3.7171                 3.4132                 2.2994

                     70                     71                     72
                      A                      A                      A
 Frequencies --   1812.8793              3002.6910              3030.4796
 Red. masses --     11.1898                 1.0717                 1.0650
 Frc consts  --     21.6676                 5.6932                 5.7628
 IR Inten    --    314.8252                47.8975                24.7289

                     73                     74                     75
                      A                      A                      A
 Frequencies --   3039.1659              3041.0743              3050.3421
 Red. masses --      1.0680                 1.0614                 1.0691
 Frc consts  --      5.8119                 5.7832                 5.8610
 IR Inten    --     16.2810                22.6724                 1.9688

                     76                     77                     78
                      A                      A                      A
 Frequencies --   3064.3272              3075.8403              3077.1155
 Red. masses --      1.0904                 1.0707                 1.0840
 Frc consts  --      6.0324                 5.9685                 6.0472
 IR Inten    --     45.7640                31.6535                55.8400

                     79                     80                     81
                      A                      A                      A
 Frequencies --   3083.2163              3086.0532              3096.9893
 Red. masses --      1.0853                 1.1011                 1.0987
 Frc consts  --      6.0786                 6.1788                 6.2088
 IR Inten    --     23.9624                54.1477                49.8020

                     82                     83                     84
                      A                      A                      A
 Frequencies --   3103.5391              3125.1640              3238.5845
 Red. masses --      1.0945                 1.1057                 1.0893
 Frc consts  --      6.2112                 6.3624                 6.7315
 IR Inten    --     42.5439                13.3128                 2.4481

                     85                     86                     87
                      A                      A                      A
 Frequencies --   3265.5695              3709.9732              3754.1847
 Red. masses --      1.1054                 1.0657                 1.0660
 Frc consts  --      6.9450                 8.6420                 8.8519
 IR Inten    --      3.6192                17.9999                 6.6760

 - Thermochemistry -
 -------------------
 Temperature   298.150 Kelvin.  Pressure   1.00000 Atm.
 Atom     1 has atomic number  6 and mass  12.00000

 Molecular mass:   199.12084 amu.
 Principal axes and moments of inertia in atomic units:
                           1         2         3
     Eigenvalues --  1317.248385671.531126263.59684
           X            0.99994  -0.00963  -0.00539
           Y            0.00970   0.99987   0.01325
           Z            0.00526  -0.01330   0.99990
 This molecule is an asymmetric top.
 Rotational symmetry number  1.
 Warning -- assumption of classical behavior for rotation
           may cause significant error
 Rotational temperatures (Kelvin)      0.06575     0.01527     0.01383
 Rotational constants (GHZ):           1.37008     0.31821     0.28813
 Zero-point vibrational energy     707837.5 (Joules/Mol)
                                  169.17721 (Kcal/Mol)
 Warning -- explicit consideration of  21 degrees of freedom as
           vibrations may cause significant error
 Vibrational temperatures:     32.60    63.07    83.19    96.12   123.32
          (Kelvin)            161.34   195.38   242.28   340.05   368.27
                              398.72   453.10   469.81   503.91   552.41
                              593.69   636.92   711.29   749.07   780.53
                              812.70   956.12  1009.18  1017.70  1053.95
                             1101.58  1160.34  1212.82  1224.17  1237.70
                             1331.31  1371.02  1391.42  1401.88  1455.52
                             1468.17  1512.28  1531.27  1570.16  1580.16
                             1614.79  1627.35  1654.40  1680.58  1708.26
                             1776.86  1798.14  1819.09  1860.65  1881.97
                             1927.72  1946.17  1972.01  1991.41  2006.01
                             2025.98  2034.38  2042.86  2057.43  2075.98
                             2077.37  2086.14  2163.61  2172.53  2190.24
                             2194.92  2216.68  2220.36  2409.84  2608.33
                             4320.20  4360.18  4372.68  4375.43  4388.76
                             4408.88  4425.45  4427.28  4436.06  4440.14
                             4455.88  4465.30  4496.41  4659.60  4698.43
                             5337.82  5401.43

 Zero-point correction=                           0.269601 (Hartree/Particle)
 Thermal correction to Energy=                    0.284287
 Thermal correction to Enthalpy=                  0.285231
 Thermal correction to Gibbs Free Energy=         0.226192
 Sum of electronic and zero-point Energies=           -671.483120
 Sum of electronic and thermal Energies=              -671.468434
 Sum of electronic and thermal Enthalpies=            -671.467490
 Sum of electronic and thermal Free Energies=         -671.526529

                     E (Thermal)             CV                S
                      KCal/Mol        Cal/Mol-Kelvin    Cal/Mol-Kelvin
 Total                  178.393             54.486            124.258
 Electronic               0.000              0.000              0.000
 Translational            0.889              2.981             41.771
 Rotational               0.889              2.981             32.215
 Vibrational            176.615             48.525             50.272
 Vibration     1          0.593              1.985              6.386
 Vibration     2          0.595              1.980              5.078
 Vibration     3          0.596              1.974              4.530
 Vibration     4          0.598              1.970              4.245
 Vibration     5          0.601              1.959              3.756
 Vibration     6          0.607              1.939              3.232
 Vibration     7          0.614              1.918              2.862
 Vibration     8          0.625              1.881              2.453
 Vibration     9          0.655              1.785              1.830
 Vibration    10          0.666              1.753              1.689
 Vibration    11          0.678              1.716              1.551
 Vibration    12          0.702              1.645              1.336
 Vibration    13          0.710              1.622              1.277
 Vibration    14          0.727              1.575              1.165
 Vibration    15          0.753              1.504              1.024
 Vibration    16          0.776              1.443              0.917
 Vibration    17          0.802              1.377              0.818
 Vibration    18          0.850              1.263              0.672
 Vibration    19          0.876              1.204              0.608
 Vibration    20          0.898              1.156              0.560
 Vibration    21          0.921              1.107              0.514

 Optimization completed.
    -- Stationary point found.
 Normal termination of Gaussian 16 at Thu Dec 10 09:27:21 2020.

 ----------------------------------------------------------------------
 # B3LYP/6-311++G(d,p) empiricaldispersion=gd3bj scf=xqc pop=npa geom=c
 heck
 ----------------------------------------------------------------------

 ---------------------------------------
 CID_148014417_JID_4006_Energie_neutraal
 ---------------------------------------
 Structure from the checkpoint file:  "JID_4006.chk"
 Charge =  0 Multiplicity = 1

 SCF Done:  E(RB3LYP) =  -671.965960414     A.U. after   14 cycles
 Normal termination of Gaussian 16 at Thu Dec 10 09:30:45 2020.

 ----------------------------------------------------------------------
 # B3LYP/6-311++G(d,p) empiricaldispersion=gd3bj scf=xqc pop=npa geom=c
 heck
 ----------------------------------------------------------------------

 -------------------------------------
 CID_148014417_JID_4006_Energie_kation
 -------------------------------------
 Structure from the checkpoint file:  "JID_4006.chk"
 Charge =  1 Multiplicity = 2

 SCF Done:  E(UB3LYP) =  -671.638324660     A.U. after   29 cycles
 Normal termination of Gaussian 16 at Thu Dec 10 09:40:27 2020.
 Gaussian 16:  ES64L-G16RevA.03 25-Dec-2016

 ----------------------------------------------------------------------
 # B3LYP/6-311++G(d,p) empiricaldispersion=gd3bj scf=xqc pop=npa geom=c
 heck
 ----------------------------------------------------------------------

 ------------------------------------
 CID_148014417_JID_4006_Energie_anion
 ------------------------------------
 Structure from the checkpoint file:  "JID_4006.chk"
 Charge = -1 Multiplicity = 2

                         Standard orientation:
 ---------------------------------------------------------------------
 Center     Atomic      Atomic             Coordinates (Angstroms)
 Number     Number       Type             X           Y           Z
 ---------------------------------------------------------------------
      1          6           0        3.103447   -1.189672   -0.840049
      2          6           0        3.630497    0.035695   -0.809693
      3          6           0        2.696162    0.955076   -0.081067
      4          8           0        2.831083    2.146878    0.146000
      5          7           0        1.626419    0.172879    0.304722
      6          6           0        1.758608   -1.202134   -0.140307
      7          8           0        1.653122   -2.146091    0.908306
      8          6           0        0.500397    0.692589    1.062724
      9          6           0       -0.568222    1.373417    0.198171
     10          6           0       -1.227957    0.462141   -0.845513
     11          6           0       -1.914114   -0.793838   -0.280141
     12          6           0       -3.005249   -0.527201    0.768839
     13          6           0       -4.136362    0.379396    0.277497
     14          8           0       -4.805220   -0.135990   -0.869646
     15          1           0        3.518954   -2.091707   -1.273715
     16          1           0        4.573356    0.380117   -1.214945
     17          1           0        0.953565   -1.479416   -0.829791
     18          1           0        2.362830   -1.945038    1.542254
     19          1           0        0.083118   -0.139650    1.637649
     20          1           0        0.902211    1.422439    1.772221
     21          1           0       -1.329282    1.788652    0.871488
     22          1           0       -0.101103    2.226299   -0.306987
     23          1           0       -1.955910    1.060376   -1.410482
     24          1           0       -0.473341    0.154972   -1.581286
     25          1           0       -2.356108   -1.358837   -1.112057
     26          1           0       -1.165701   -1.463614    0.160662
     27          1           0       -3.437093   -1.486995    1.077082
     28          1           0       -2.565750   -0.076057    1.668871
     29          1           0       -4.905741    0.463182    1.051384
     30          1           0       -3.759270    1.396723    0.087213
     31          1           0       -4.184785   -0.092786   -1.612660
 ---------------------------------------------------------------------

 SCF Done:  E(UB3LYP) =  -671.968232037     A.U. after   31 cycles

 The electronic state is 2-A.
 Alpha  occ. eigenvalues --  -19.03162 -19.00537 -18.94539 -14.20008 -10.13183
 Alpha  occ. eigenvalues --  -10.12471 -10.11990 -10.08714 -10.07319 -10.06647
 Alpha  occ. eigenvalues --  -10.06603 -10.06082 -10.03216 -10.02788  -0.93208
 Alpha  occ. eigenvalues --   -0.92067  -0.89459  -0.80756  -0.71208  -0.68041
 Alpha  occ. eigenvalues --   -0.64425  -0.59997  -0.56523  -0.55682  -0.51040
 Alpha  occ. eigenvalues --   -0.46297  -0.45530  -0.42433  -0.42110  -0.40203
 Alpha  occ. eigenvalues --   -0.38120  -0.37142  -0.35523  -0.33279  -0.33118
 Alpha  occ. eigenvalues --   -0.32664  -0.31464  -0.30520  -0.28845  -0.28681
 Alpha  occ. eigenvalues --   -0.27470  -0.27040  -0.26096  -0.25852  -0.24310
 Alpha  occ. eigenvalues --   -0.23006  -0.22749  -0.22210  -0.21950  -0.18521
 Alpha  occ. eigenvalues --   -0.17741  -0.14832  -0.12204  -0.11623   0.04565
 Alpha virt. eigenvalues --    0.06299   0.07406   0.08610   0.08865   0.09640
 Alpha virt. eigenvalues --    0.10273   0.10944   0.11288   0.11710   0.11842
 Alpha virt. eigenvalues --    0.12744   0.13253   0.14481   0.14899   0.15440

  Beta  occ. eigenvalues --  -19.03135 -19.00420 -18.94320 -14.20010 -10.13191
  Beta  occ. eigenvalues --  -10.12463 -10.11864 -10.08706 -10.07316 -10.06626
  Beta  occ. eigenvalues --  -10.06589 -10.06078 -10.02912 -10.02594  -0.93148
  Beta  occ. eigenvalues --   -0.91808  -0.89102  -0.80597  -0.71150  -0.67811
  Beta  occ. eigenvalues --   -0.64245  -0.59875  -0.56244  -0.55552  -0.50978
  Beta  occ. eigenvalues --   -0.46180  -0.44975  -0.42324  -0.42044  -0.40086
  Beta  occ. eigenvalues --   -0.38073  -0.37052  -0.35394  -0.33179  -0.33033
  Beta  occ. eigenvalues --   -0.32399  -0.31361  -0.30419  -0.28717  -0.28543
  Beta  occ. eigenvalues --   -0.27291  -0.26937  -0.25857  -0.25440  -0.24121
  Beta  occ. eigenvalues --   -0.22861  -0.22566  -0.22189  -0.21912  -0.18492
  Beta  occ. eigenvalues --   -0.17491  -0.13182  -0.11919  -0.11142
  Beta virt. eigenvalues --    0.06681   0.07581   0.08325   0.08824   0.09576
  Beta virt. eigenvalues --    0.09903   0.10815   0.11016   0.11424   0.11685
  Beta virt. eigenvalues --    0.12002   0.12687   0.13399   0.14391   0.14920

 Mulliken charges and spin densities:
               1          2
     1  C   -0.832204   0.718802
     2  C    0.318798  -0.202632
     3  C   -0.266227   0.223337
     4  O   -0.409196   0.072363
     5  N   -0.042743   0.135926
     6  C    0.742796  -1.100118
     7  O   -0.186744   0.062481
     8  C   -0.433315  -0.018581
     9  C   -0.333442   0.085074
    10  C    0.130192  -0.197278
    11  C    0.133295  -0.455783
    12  C   -0.549360   0.375168
    13  C    0.080643  -0.636193
    14  O   -0.235673  -0.004116
    15  H   -0.047005   0.160513
    16  H    0.107147   0.012902
    17  H    0.256757  -0.096144
    18  H   -0.174095   0.422856
    19  H    0.086848   0.061168
    20  H    0.147074   0.057094
    21  H    0.071811   0.022429
    22  H    0.229075  -0.026832
    23  H   -0.127762   0.257018
    24  H    0.063428   0.123231
    25  H   -0.064310   0.229664
    26  H   -0.037787   0.232117
    27  H    0.059288   0.104804
    28  H    0.098095   0.023853
    29  H    0.088596   0.073488
    30  H    0.097479   0.059410
    31  H    0.028542   0.223980
 Sum of Mulliken charges =  -1.00000   1.00000

 Dipole moment (field-independent basis, Debye):
    X=             -3.4846    Y=              0.7905    Z=              0.8322  Tot=              3.6688
 Quadrupole moment (field-independent basis, Debye-Ang):
   XX=           -157.8034   YY=           -121.0880   ZZ=           -102.5164
   XY=             -7.8312   XZ=            -10.8107   YZ=              4.2657

 Summary of Natural Population Analysis:

                                       Natural Population
                Natural  -----------------------------------------------
    Atom  No    Charge         Core      Valence    Rydberg      Total
 -----------------------------------------------------------------------
      C    1   -0.04320      0.99952     2.03383    0.00985     3.04320
      C    2   -0.10852      0.99948     2.09970    0.00933     3.10852
      C    3    0.34747      0.99964     1.62946    0.02343     2.65253
      O    4   -0.31100      0.99988     3.30551    0.00561     4.31100
      N    5   -0.27864      0.99962     2.76784    0.01118     3.77864
      C    6    0.14387      0.99957     1.84086    0.01570     2.85613
      O    7   -0.36545      0.99990     3.35875    0.00680     4.36545
      C    8   -0.08904      0.99962     2.07681    0.01262     3.08904
      C    9   -0.19555      0.99962     2.18878    0.00715     3.19555
      C   10   -0.19659      0.99963     2.18691    0.01006     3.19659
      C   11   -0.20259      0.99962     2.19261    0.01035     3.20259
      C   12   -0.20376      0.99963     2.19707    0.00706     3.20376
      C   13   -0.01116      0.99960     1.99934    0.01222     3.01116
      O   14   -0.37152      0.99990     3.36466    0.00696     4.37152
      H   15    0.09340      0.00000     0.40580    0.00080     0.40660
      H   16    0.09610      0.00000     0.40290    0.00100     0.40390
      H   17    0.08583      0.00000     0.41188    0.00229     0.41417
      H   18    0.23056      0.00000     0.26341    0.00603     0.26944
      H   19    0.09838      0.00000     0.40036    0.00127     0.40162
      H   20    0.10389      0.00000     0.39493    0.00118     0.39611
      H   21    0.08934      0.00000     0.40951    0.00116     0.41066
      H   22    0.10589      0.00000     0.39301    0.00110     0.39411
      H   23    0.09173      0.00000     0.40714    0.00112     0.40827
      H   24    0.10272      0.00000     0.39617    0.00111     0.39728
      H   25    0.09621      0.00000     0.40255    0.00124     0.40379
      H   26    0.10804      0.00000     0.39066    0.00130     0.39196
      H   27    0.09893      0.00000     0.39998    0.00110     0.40107
      H   28    0.09685      0.00000     0.40196    0.00119     0.40315
      H   29    0.08314      0.00000     0.41563    0.00123     0.41686
      H   30    0.07528      0.00000     0.42339    0.00132     0.42472
      H   31    0.22939      0.00000     0.26699    0.00362     0.27061
 =======================================================================
   * Total *   -0.00000     13.99522    39.82841    0.17637    54.00000

 Normal termination of Gaussian 16 at Thu Dec 10 09:50:46 2020.
