 Gaussian 16, Revision A.03,

 -----------------------------------------------------------
 # opt freq B3LYP/6-31G(d) empiricaldispersion=gd3bj scf=xqc
 -----------------------------------------------------------

 ------------------------------
 CID_148578993_JID_617_neutraal
 ------------------------------
 Symbolic Z-matrix:
 Charge =  0 Multiplicity = 1

 SCF Done:  E(RB3LYP) =  -749.601554983     A.U. after   13 cycles
 SCF Done:  E(RB3LYP) =  -749.605032829     A.U. after   11 cycles
 SCF Done:  E(RB3LYP) =  -749.605317826     A.U. after   11 cycles
 SCF Done:  E(RB3LYP) =  -749.605396190     A.U. after   10 cycles
 SCF Done:  E(RB3LYP) =  -749.605398814     A.U. after    8 cycles
 SCF Done:  E(RB3LYP) =  -749.605399073     A.U. after    7 cycles
 Optimization completed.
    -- Stationary point found.

 1\1\GINC-NODE318\FOpt\RB3LYP\6-31G(d)\C9H14S1\VSC10255\08-Dec-2020\0\\
 # opt freq B3LYP/6-31G(d) empiricaldispersion=gd3bj scf=xqc\\CID_14857
 8993_JID_617_neutraal\\0,1\C,2.1083465741,-0.6847785032,-0.340178882\C
 ,1.2998226904,-1.3727982331,-1.4805923975\C,-0.180792549,-0.9668174706
 ,-1.3084619951\C,-0.4696394561,-1.1734442668,0.204530817\C,-0.08311588
 57,0.2343009785,0.6937930106\C,1.3407090005,0.5872275339,0.0764388854\
 C,0.9751702924,1.2839625665,-1.2617293674\C,-0.3848551069,0.605104652,
 -1.5032519237\C,-1.0702566732,1.0331292809,-0.1886598499\S,-1.33218801

 Normal termination of Gaussian 16 at Tue Dec  8 12:17:15 2020.

 --------------------------------------------------------------------
 #N Geom=AllCheck Guess=TCheck SCRF=Check GenChk RB3LYP/6-31G(d) Freq
 --------------------------------------------------------------------

 Structure from the checkpoint file:  "JID_617.chk"
 ------------------------------
 CID_148578993_JID_617_neutraal
 ------------------------------
 Charge =  0 Multiplicity = 1

 SCF Done:  E(RB3LYP) =  -749.605399073     A.U. after    1 cycles

  Exact polarizability: 111.510  -0.317  95.289  -0.891  -1.406  91.971
 Approx polarizability: 156.045  -1.033 138.277  -2.030  -3.459 143.924

                      1                      2                      3
                      A                      A                      A
 Frequencies --    185.6944               209.6267               249.4484
 Red. masses --      3.4059                 1.7672                 1.6703
 Frc consts  --      0.0692                 0.0458                 0.0612
 IR Inten    --      1.0656                 5.4418                13.3684

                      4                      5                      6
                      A                      A                      A
 Frequencies --    340.2464               354.7943               374.4479
 Red. masses --      2.5136                 2.1287                 5.8822
 Frc consts  --      0.1714                 0.1579                 0.4859
 IR Inten    --      0.4296                 0.1532                 0.8292

                      7                      8                      9
                      A                      A                      A
 Frequencies --    426.4347               488.9667               516.0043
 Red. masses --      2.2635                 2.0192                 3.8490
 Frc consts  --      0.2425                 0.2844                 0.6038
 IR Inten    --      0.0358                 0.0396                 0.4652

                     10                     11                     12
                      A                      A                      A
 Frequencies --    546.8573               611.1135               633.1283
 Red. masses --      2.4801                 2.5940                 3.7452
 Frc consts  --      0.4370                 0.5708                 0.8845
 IR Inten    --      0.3992                 0.0272                 1.2651

                     13                     14                     15
                      A                      A                      A
 Frequencies --    756.7092               788.7778               820.7280
 Red. masses --      3.7059                 2.7583                 1.8731
 Frc consts  --      1.2503                 1.0111                 0.7434
 IR Inten    --      0.7948                 0.4577                 0.3898

                     16                     17                     18
                      A                      A                      A
 Frequencies --    849.4418               866.9584               889.5523
 Red. masses --      2.2062                 1.7887                 2.3455
 Frc consts  --      0.9379                 0.7921                 1.0935
 IR Inten    --      2.1668                 3.4923                 3.5878

                     19                     20                     21
                      A                      A                      A
 Frequencies --    899.7251               919.3402               936.6407
 Red. masses --      1.9663                 2.1768                 2.5626
 Frc consts  --      0.9378                 1.0840                 1.3246
 IR Inten    --      1.1512                 0.8523                 0.5015

                     22                     23                     24
                      A                      A                      A
 Frequencies --    946.0647               963.2724               979.8028
 Red. masses --      2.0204                 1.8035                 1.9548
 Frc consts  --      1.0655                 0.9860                 1.1057
 IR Inten    --      1.0253                 3.2919                 0.2388

                     25                     26                     27
                      A                      A                      A
 Frequencies --    989.2201               997.0380              1043.2039
 Red. masses --      1.6873                 1.7912                 1.9636
 Frc consts  --      0.9728                 1.0491                 1.2590
 IR Inten    --      0.8666                 0.4913                 7.6728

                     28                     29                     30
                      A                      A                      A
 Frequencies --   1058.8234              1066.2353              1099.7187
 Red. masses --      2.2043                 1.5372                 1.4444
 Frc consts  --      1.4560                 1.0296                 1.0292
 IR Inten    --      8.4145                 2.3280                 5.2111

                     31                     32                     33
                      A                      A                      A
 Frequencies --   1117.1387              1140.4808              1163.1822
 Red. masses --      1.4815                 1.2084                 1.1795
 Frc consts  --      1.0894                 0.9261                 0.9403
 IR Inten    --      2.3271                 0.5965                 1.7564

                     34                     35                     36
                      A                      A                      A
 Frequencies --   1193.7056              1219.8398              1231.2681
 Red. masses --      1.7176                 1.7790                 1.4523
 Frc consts  --      1.4420                 1.5596                 1.2972
 IR Inten    --      1.0063                 0.5445                 2.4711

                     37                     38                     39
                      A                      A                      A
 Frequencies --   1240.0029              1251.7926              1287.1752
 Red. masses --      1.3720                 1.7059                 1.3915
 Frc consts  --      1.2430                 1.5750                 1.3584
 IR Inten    --      0.5908                 0.3466                 2.3541

                     40                     41                     42
                      A                      A                      A
 Frequencies --   1299.2852              1320.5116              1323.6535
 Red. masses --      1.4273                 1.6266                 1.4543
 Frc consts  --      1.4196                 1.6711                 1.5013
 IR Inten    --      2.1327                 1.5220                 0.4001

                     43                     44                     45
                      A                      A                      A
 Frequencies --   1331.9644              1335.6328              1347.9238
 Red. masses --      1.4641                 1.4998                 1.5796
 Frc consts  --      1.5304                 1.5764                 1.6910
 IR Inten    --      0.2243                 0.4101                 1.0845

                     46                     47                     48
                      A                      A                      A
 Frequencies --   1367.0782              1378.1212              1521.4513
 Red. masses --      1.4420                 1.4532                 1.0959
 Frc consts  --      1.5878                 1.6262                 1.4947
 IR Inten    --      1.8308                 1.2792                 0.2335

                     49                     50                     51
                      A                      A                      A
 Frequencies --   1523.4550              1545.4884              1553.0765
 Red. masses --      1.0803                 1.0970                 1.0853
 Frc consts  --      1.4773                 1.5438                 1.5423
 IR Inten    --      1.0718                 6.5265                 7.0740

                     52                     53                     54
                      A                      A                      A
 Frequencies --   1574.5134              2662.2415              3057.3013
 Red. masses --      1.0884                 1.0385                 1.0607
 Frc consts  --      1.5897                 4.3365                 5.8414
 IR Inten    --      0.2749                25.5633                25.2804

                     55                     56                     57
                      A                      A                      A
 Frequencies --   3063.8017              3069.6815              3074.9678
 Red. masses --      1.0630                 1.0649                 1.0624
 Frc consts  --      5.8793                 5.9120                 5.9189
 IR Inten    --     17.0255                29.9854                32.2377

                     58                     59                     60
                      A                      A                      A
 Frequencies --   3080.8811              3092.2063              3097.1707
 Red. masses --      1.0615                 1.1012                 1.0889
 Frc consts  --      5.9363                 6.2039                 6.1541
 IR Inten    --     11.4003                11.6399                52.6903

                     61                     62                     63
                      A                      A                      A
 Frequencies --   3107.2972              3116.5167              3116.8602
 Red. masses --      1.1028                 1.0886                 1.1039
 Frc consts  --      6.2735                 6.2295                 6.3187
 IR Inten    --     24.4317                69.0003                37.8683

                     64                     65                     66
                      A                      A                      A
 Frequencies --   3121.9217              3127.6561              3130.0908
 Red. masses --      1.1048                 1.1034                 1.0892
 Frc consts  --      6.3441                 6.3597                 6.2873
 IR Inten    --     70.0238                35.2243                15.3536

 - Thermochemistry -
 -------------------
 Temperature   298.150 Kelvin.  Pressure   1.00000 Atm.
 Atom     1 has atomic number  6 and mass  12.00000

 Molecular mass:   154.08162 amu.
 Principal axes and moments of inertia in atomic units:
                           1         2         3
     Eigenvalues --   936.827921611.540751842.72739
           X            0.99998   0.00566  -0.00191
           Y           -0.00568   0.99995  -0.00766
           Z            0.00187   0.00767   0.99997
 This molecule is an asymmetric top.
 Rotational symmetry number  1.
 Warning -- assumption of classical behavior for rotation
           may cause significant error
 Rotational temperatures (Kelvin)      0.09245     0.05375     0.04700
 Rotational constants (GHZ):           1.92644     1.11989     0.97939
 Zero-point vibrational energy     562205.1 (Joules/Mol)
                                  134.37024 (Kcal/Mol)
 Warning -- explicit consideration of  11 degrees of freedom as
           vibrations may cause significant error
 Vibrational temperatures:    267.17   301.61   358.90   489.54   510.47
          (Kelvin)            538.75   613.54   703.51   742.42   786.81
                              879.26   910.93  1088.74  1134.88  1180.84
                             1222.16  1247.36  1279.87  1294.50  1322.73
                             1347.62  1361.18  1385.93  1409.72  1423.27
                             1434.52  1500.94  1523.41  1534.07  1582.25
                             1607.31  1640.90  1673.56  1717.48  1755.08
                             1771.52  1784.09  1801.05  1851.96  1869.38
                             1899.92  1904.44  1916.40  1921.68  1939.36
                             1966.92  1982.81  2189.03  2191.91  2223.61
                             2234.53  2265.37  3830.37  4398.77  4408.13
                             4416.59  4424.19  4432.70  4449.00  4456.14
                             4470.71  4483.97  4484.47  4491.75  4500.00
                             4503.50

 Zero-point correction=                           0.214133 (Hartree/Particle)
 Thermal correction to Energy=                    0.222009
 Thermal correction to Enthalpy=                  0.222953
 Thermal correction to Gibbs Free Energy=         0.181914
 Sum of electronic and zero-point Energies=           -749.391266
 Sum of electronic and thermal Energies=              -749.383390
 Sum of electronic and thermal Enthalpies=            -749.382446
 Sum of electronic and thermal Free Energies=         -749.423485

                     E (Thermal)             CV                S
                      KCal/Mol        Cal/Mol-Kelvin    Cal/Mol-Kelvin
 Total                  139.312             34.664             86.372
 Electronic               0.000              0.000              0.000
 Translational            0.889              2.981             41.007
 Rotational               0.889              2.981             29.410
 Vibrational            137.535             28.702             15.956
 Vibration     1          0.632              1.859              2.270
 Vibration     2          0.642              1.826              2.047
 Vibration     3          0.662              1.764              1.734
 Vibration     4          0.720              1.595              1.211
 Vibration     5          0.731              1.565              1.145
 Vibration     6          0.746              1.525              1.062
 Vibration     7          0.788              1.413              0.870
 Vibration     8          0.845              1.275              0.686
 Vibration     9          0.871              1.215              0.619
 Vibration    10          0.902              1.147              0.551
 Vibration    11          0.970              1.008              0.431

 Optimization completed.
    -- Stationary point found.

 1\1\GINC-NODE318\Freq\RB3LYP\6-31G(d)\C9H14S1\VSC10255\08-Dec-2020\0\\
 #N Geom=AllCheck Guess=TCheck SCRF=Check GenChk RB3LYP/6-31G(d) Freq\\
 CID_148578993_JID_617_neutraal\\0,1\C,2.1083465741,-0.6847785032,-0.34
 0178882\C,1.2998226904,-1.3727982331,-1.4805923975\C,-0.180792549,-0.9
 668174706,-1.3084619951\C,-0.4696394561,-1.1734442668,0.204530817\C,-0
 .0831158857,0.2343009785,0.6937930106\C,1.3407090005,0.5872275339,0.07
 64388854\C,0.9751702924,1.2839625665,-1.2617293674\C,-0.3848551069,0.6
 05104652,-1.5032519237\C,-1.0702566732,1.0331292809,-0.1886598499\S,-1

 Normal termination of Gaussian 16 at Tue Dec  8 12:23:01 2020.

 ----------------------------------------------------------------------
 # B3LYP/6-311++G(d,p) empiricaldispersion=gd3bj scf=xqc pop=npa geom=c
 heck
 ----------------------------------------------------------------------

 --------------------------------------
 CID_148578993_JID_617_Energie_neutraal
 --------------------------------------
 Structure from the checkpoint file:  "JID_617.chk"
 Charge =  0 Multiplicity = 1

 SCF Done:  E(RB3LYP) =  -749.724996317     A.U. after   13 cycles
 Normal termination of Gaussian 16 at Tue Dec  8 12:25:36 2020.

 ----------------------------------------------------------------------
 # B3LYP/6-311++G(d,p) empiricaldispersion=gd3bj scf=xqc pop=npa geom=c
 heck
 ----------------------------------------------------------------------

 ------------------------------------
 CID_148578993_JID_617_Energie_kation
 ------------------------------------
 Structure from the checkpoint file:  "JID_617.chk"
 Charge =  1 Multiplicity = 2

 SCF Done:  E(UB3LYP) =  -749.407085894     A.U. after   22 cycles
 Normal termination of Gaussian 16 at Tue Dec  8 12:30:42 2020.
 Gaussian 16:  ES64L-G16RevA.03 25-Dec-2016

 -----------------------------------
 CID_148578993_JID_617_Energie_anion
 -----------------------------------
 Structure from the checkpoint file:  "JID_617.chk"
 Charge = -1 Multiplicity = 2

                         Standard orientation:
 ---------------------------------------------------------------------
 Center     Atomic      Atomic             Coordinates (Angstroms)
 Number     Number       Type             X           Y           Z
 ---------------------------------------------------------------------
      1          6           0       -1.246442    1.701328    0.290272
      2          6           0        0.248162    1.617199   -0.141822
      3          6           0        0.694161    0.146691    0.017434
      4          6           0        0.173445   -0.270107    1.421147
      5          6           0       -1.210117   -0.792815    0.993295
      6          6           0       -1.878485    0.312172    0.063107
      7          6           0       -1.414880   -0.104943   -1.358455
      8          6           0       -0.109521   -0.820339   -0.967184
      9          6           0       -0.720504   -1.864012   -0.008758
     10         16           0        2.514978   -0.072155   -0.073168
     11          1           0       -1.332905    2.010298    1.337502
     12          1           0       -1.776214    2.453020   -0.305723
     13          1           0        0.384049    1.951136   -1.176454
     14          1           0        0.876600    2.256333    0.485025
     15          1           0        0.761914   -1.072663    1.877006
     16          1           0        0.168464    0.572643    2.116729
     17          1           0       -1.848107   -1.133102    1.812829
     18          1           0       -2.964976    0.339397    0.183112
     19          1           0       -2.098757   -0.805291   -1.849201
     20          1           0       -1.292907    0.754073   -2.024854
     21          1           0        0.494208   -1.197453   -1.794664
     22          1           0       -1.514081   -2.449206   -0.483470
     23          1           0        0.003536   -2.553660    0.435063
     24          1           0        2.684616    0.477915   -1.296427
 ---------------------------------------------------------------------

 SCF Done:  E(UB3LYP) =  -749.709226481     A.U. after   27 cycles

 The electronic state is 2-A.
 Alpha  occ. eigenvalues --  -88.73132 -10.10490 -10.06746 -10.06604 -10.06234
 Alpha  occ. eigenvalues --  -10.06094 -10.06078 -10.05664 -10.05401 -10.05013
 Alpha  occ. eigenvalues --   -7.81844  -5.78211  -5.77869  -5.77240  -0.78749
 Alpha  occ. eigenvalues --   -0.67759  -0.66293  -0.63028  -0.58447  -0.55460
 Alpha  occ. eigenvalues --   -0.50281  -0.48294  -0.44096  -0.40333  -0.39394
 Alpha  occ. eigenvalues --   -0.37690  -0.35859  -0.32514  -0.30029  -0.28444
 Alpha  occ. eigenvalues --   -0.27154  -0.26899  -0.25770  -0.25055  -0.24497
 Alpha  occ. eigenvalues --   -0.22621  -0.22246  -0.21636  -0.18939  -0.18357
 Alpha  occ. eigenvalues --   -0.18228  -0.13085   0.04785
 Alpha virt. eigenvalues --    0.07319   0.07978   0.08053   0.09745   0.09883
 Alpha virt. eigenvalues --    0.10568   0.10737   0.11026   0.11464   0.12783
 Alpha virt. eigenvalues --    0.13288   0.13639   0.14033   0.14617   0.15499

  Beta  occ. eigenvalues --  -88.73116 -10.10488 -10.06738 -10.06591 -10.06222
  Beta  occ. eigenvalues --  -10.06076 -10.06054 -10.05643 -10.05385 -10.04986
  Beta  occ. eigenvalues --   -7.81829  -5.78166  -5.77860  -5.77231  -0.78717
  Beta  occ. eigenvalues --   -0.67722  -0.66255  -0.62988  -0.58383  -0.55405
  Beta  occ. eigenvalues --   -0.50228  -0.48229  -0.44051  -0.40277  -0.39343
  Beta  occ. eigenvalues --   -0.37628  -0.35806  -0.32473  -0.29957  -0.28413
  Beta  occ. eigenvalues --   -0.27108  -0.26866  -0.25743  -0.25018  -0.24438
  Beta  occ. eigenvalues --   -0.22589  -0.22213  -0.21588  -0.18892  -0.18326
  Beta  occ. eigenvalues --   -0.18183  -0.13048
  Beta virt. eigenvalues --    0.07233   0.08305   0.08715   0.08914   0.10409
  Beta virt. eigenvalues --    0.10481   0.10960   0.11296   0.11561   0.11854
  Beta virt. eigenvalues --    0.13230   0.13831   0.14064   0.14597   0.14952

 Mulliken charges and spin densities:
               1          2
     1  C    0.905678  -1.500136
     2  C   -0.625991  -0.264991
     3  C    1.208199   0.213491
     4  C    0.462983  -1.454659
     5  C   -0.627618   0.837463
     6  C   -0.309838   0.578971
     7  C    1.101885  -1.945314
     8  C   -1.371831   1.474746
     9  C    0.999049  -1.694926
    10  S    0.520554  -0.810821
    11  H    0.027491   0.098841
    12  H   -0.400756   0.556705
    13  H   -0.152449   0.323478
    14  H   -0.027728   0.175478
    15  H    0.013090   0.130320
    16  H   -0.013803   0.179654
    17  H   -0.635767   0.889822
    18  H   -0.781018   1.044343
    19  H   -0.359426   0.511749
    20  H   -0.122924   0.276234
    21  H   -0.232530   0.491981
    22  H   -0.287055   0.440294
    23  H    0.009358   0.097721
    24  H   -0.299555   0.349556
 Sum of Mulliken charges =  -1.00000   1.00000

 Dipole moment (field-independent basis, Debye):
    X=              4.3118    Y=              0.0833    Z=              1.1723  Tot=              4.4691
 Quadrupole moment (field-independent basis, Debye-Ang):
   XX=           -123.8683   YY=           -107.8870   ZZ=           -108.8656
   XY=             -0.7488   XZ=              0.1040   YZ=              2.1717

 Summary of Natural Population Analysis:

                                       Natural Population
                Natural  -----------------------------------------------
    Atom  No    Charge         Core      Valence    Rydberg      Total
 -----------------------------------------------------------------------
      C    1   -0.19104      0.99962     2.18214    0.00928     3.19104
      C    2   -0.19897      0.99956     2.18733    0.01208     3.19897
      C    3   -0.08844      0.99949     2.07116    0.01779     3.08844
      C    4   -0.19540      0.99957     2.18360    0.01222     3.19540
      C    5   -0.10699      0.99960     2.09367    0.01372     3.10699
      C    6   -0.10991      0.99961     2.09700    0.01330     3.10991
      C    7   -0.19215      0.99961     2.18198    0.01056     3.19215
      C    8   -0.10931      0.99955     2.09515    0.01461     3.10931
      C    9   -0.18974      0.99961     2.18079    0.00934     3.18974
      S   10   -0.01292      4.99954     2.99894    0.01444     8.01292
      H   11    0.09715      0.00000     0.40152    0.00133     0.40285
      H   12    0.10354      0.00000     0.39504    0.00142     0.39646
      H   13    0.10139      0.00000     0.39712    0.00149     0.39861
      H   14    0.10466      0.00000     0.39421    0.00112     0.39534
      H   15    0.10321      0.00000     0.39573    0.00106     0.39679
      H   16    0.10317      0.00000     0.39573    0.00110     0.39683
      H   17    0.10461      0.00000     0.39339    0.00200     0.39539
      H   18    0.10664      0.00000     0.39041    0.00295     0.39336
      H   19    0.10298      0.00000     0.39511    0.00192     0.39702
      H   20    0.10093      0.00000     0.39722    0.00185     0.39907
      H   21    0.10644      0.00000     0.39223    0.00133     0.39356
      H   22    0.10127      0.00000     0.39731    0.00142     0.39873
      H   23    0.09874      0.00000     0.39998    0.00128     0.40126
      H   24    0.06012      0.00000     0.43689    0.00299     0.43988
 =======================================================================
   * Total *   -0.00000     13.99575    27.85365    0.15060    42.00000

 Normal termination of Gaussian 16 at Tue Dec  8 12:40:12 2020.
