 Gaussian 16, Revision A.03,

 -----------------------------------------------------------
 # opt freq B3LYP/6-31G(d) empiricaldispersion=gd3bj scf=xqc
 -----------------------------------------------------------

 ------------------------------
 CID_84768088_JID_3259_neutraal
 ------------------------------
 Symbolic Z-matrix:
 Charge =  0 Multiplicity = 1

 SCF Done:  E(RB3LYP) =  -644.801685962     A.U. after   15 cycles
 SCF Done:  E(RB3LYP) =  -644.805214021     A.U. after   12 cycles
 SCF Done:  E(RB3LYP) =  -644.803440329     A.U. after   12 cycles
 SCF Done:  E(RB3LYP) =  -644.805942873     A.U. after   12 cycles
 SCF Done:  E(RB3LYP) =  -644.806147471     A.U. after   12 cycles
 SCF Done:  E(RB3LYP) =  -644.806263744     A.U. after   10 cycles
 SCF Done:  E(RB3LYP) =  -644.806282165     A.U. after   10 cycles
 SCF Done:  E(RB3LYP) =  -644.806285602     A.U. after    9 cycles
 SCF Done:  E(RB3LYP) =  -644.806285923     A.U. after    8 cycles
 Optimization completed.
    -- Stationary point found.
 Normal termination of Gaussian 16 at Wed Dec  9 22:26:34 2020.

 --------------------------------------------------------------------
 #N Geom=AllCheck Guess=TCheck SCRF=Check GenChk RB3LYP/6-31G(d) Freq
 --------------------------------------------------------------------

 Structure from the checkpoint file:  "JID_3259.chk"
 ------------------------------
 CID_84768088_JID_3259_neutraal
 ------------------------------
 Charge =  0 Multiplicity = 1

 SCF Done:  E(RB3LYP) =  -644.806285923     A.U. after    1 cycles

  Exact polarizability: 152.808   3.970 108.355  -6.210   1.787  49.143
 Approx polarizability: 227.446  -1.325 195.557 -12.538   6.422  76.302

                      1                      2                      3
                      A                      A                      A
 Frequencies --     66.5571               112.7513               139.4845
 Red. masses --      6.7611                 4.9229                 2.5555
 Frc consts  --      0.0176                 0.0369                 0.0293
 IR Inten    --      0.8910                 0.4228                 7.3844

                      4                      5                      6
                      A                      A                      A
 Frequencies --    200.1341               212.2645               270.3759
 Red. masses --      6.2498                 6.7019                 4.7116
 Frc consts  --      0.1475                 0.1779                 0.2029
 IR Inten    --      8.2380                 1.6248                 0.0160

                      7                      8                      9
                      A                      A                      A
 Frequencies --    288.3587               302.5198               331.1927
 Red. masses --      1.3257                 3.9506                 4.9120
 Frc consts  --      0.0649                 0.2130                 0.3174
 IR Inten    --     89.5192                 8.9705                 1.4008

                     10                     11                     12
                      A                      A                      A
 Frequencies --    337.1778               391.1765               515.7052
 Red. masses --      4.6944                 5.3399                 8.2050
 Frc consts  --      0.3144                 0.4814                 1.2857
 IR Inten    --      4.2209                 8.3109                 0.7863

                     13                     14                     15
                      A                      A                      A
 Frequencies --    532.6682               555.8750               622.3117
 Red. masses --      4.6145                 4.8726                 4.6188
 Frc consts  --      0.7714                 0.8871                 1.0539
 IR Inten    --      8.3723                 5.5207                 6.2528

                     16                     17                     18
                      A                      A                      A
 Frequencies --    644.0850               664.2881               702.9744
 Red. masses --      3.7986                 5.0592                 7.6197
 Frc consts  --      0.9284                 1.3154                 2.2185
 IR Inten    --      8.2995                10.7267                 4.3731

                     19                     20                     21
                      A                      A                      A
 Frequencies --    763.0666               779.4644               793.5393
 Red. masses --      4.7286                 1.2024                 1.5422
 Frc consts  --      1.6222                 0.4304                 0.5722
 IR Inten    --      1.7750                41.5307                50.7471

                     22                     23                     24
                      A                      A                      A
 Frequencies --    818.2589               845.8004               924.3242
 Red. masses --      4.3337                 1.4655                 1.3198
 Frc consts  --      1.7096                 0.6177                 0.6644
 IR Inten    --      9.2885                 3.6643                 7.3511

                     25                     26                     27
                      A                      A                      A
 Frequencies --    929.3659               946.7486               973.4456
 Red. masses --      9.8084                 1.6574                 3.4134
 Frc consts  --      4.9914                 0.8753                 1.9057
 IR Inten    --      3.6548                43.8680                 0.5823

                     28                     29                     30
                      A                      A                      A
 Frequencies --   1014.9226              1053.8434              1077.8941
 Red. masses --      3.6577                 4.6138                 4.4787
 Frc consts  --      2.2199                 3.0190                 3.0658
 IR Inten    --     21.7438                27.9114                60.4092

                     31                     32                     33
                      A                      A                      A
 Frequencies --   1100.6762              1126.5576              1168.2527
 Red. masses --      3.6438                 1.4453                 1.4917
 Frc consts  --      2.6009                 1.0807                 1.1995
 IR Inten    --    103.2104                31.7949                 1.7487

                     34                     35                     36
                      A                      A                      A
 Frequencies --   1254.6111              1267.5025              1282.8526
 Red. masses --      1.4095                 1.7244                 4.4480
 Frc consts  --      1.3072                 1.6322                 4.3129
 IR Inten    --     16.1434                15.7794                26.4463

                     37                     38                     39
                      A                      A                      A
 Frequencies --   1308.7789              1351.9360              1365.0084
 Red. masses --      1.7491                 2.9778                 2.1836
 Frc consts  --      1.7652                 3.2067                 2.3972
 IR Inten    --     14.3102                39.7001                 9.0599

                     40                     41                     42
                      A                      A                      A
 Frequencies --   1389.9088              1410.3152              1440.6949
 Red. masses --      1.7867                 1.2893                 2.4283
 Frc consts  --      2.0337                 1.5109                 2.9696
 IR Inten    --     71.0703                33.2324                74.9405

                     43                     44                     45
                      A                      A                      A
 Frequencies --   1498.0345              1520.2091              1530.7263
 Red. masses --      1.1440                 1.8868                 2.7749
 Frc consts  --      1.5126                 2.5691                 3.8308
 IR Inten    --      3.2129                70.5450                79.1055

                     46                     47                     48
                      A                      A                      A
 Frequencies --   1539.5526              1580.8171              1660.9155
 Red. masses --      1.2269                 6.7827                 7.8901
 Frc consts  --      1.7134                 9.9866                12.8241
 IR Inten    --     27.2582                23.5921                45.5720

                     49                     50                     51
                      A                      A                      A
 Frequencies --   1690.3120              3040.0395              3079.9495
 Red. masses --      5.4630                 1.0574                 1.1073
 Frc consts  --      9.1963                 5.7578                 6.1890
 IR Inten    --     57.3554                35.1027                20.0089

                     52                     53                     54
                      A                      A                      A
 Frequencies --   3190.0253              3237.5282              3294.0654
 Red. masses --      1.0892                 1.0940                 1.0989
 Frc consts  --      6.5305                 6.7559                 7.0253
 IR Inten    --      9.5351                 3.9113                 0.2714

                     55                     56                     57
                      A                      A                      A
 Frequencies --   3384.6607              3458.7805              3740.6503
 Red. masses --      1.0664                 1.0759                 1.0684
 Frc consts  --      7.1975                 7.5837                 8.8079
 IR Inten    --    562.8015                 0.7827                38.4230

 - Thermochemistry -
 -------------------
 Temperature   298.150 Kelvin.  Pressure   1.00000 Atm.
 Atom     1 has atomic number  6 and mass  12.00000

 Molecular mass:   180.05349 amu.
 Principal axes and moments of inertia in atomic units:
                           1         2         3
     Eigenvalues --   887.083843750.241574541.73227
           X            1.00000  -0.00008  -0.00195
           Y            0.00007   0.99999  -0.00416
           Z            0.00195   0.00416   0.99999
 This molecule is an asymmetric top.
 Rotational symmetry number  1.
 Warning -- assumption of classical behavior for rotation
           may cause significant error
 Rotational temperatures (Kelvin)      0.09764     0.02310     0.01907
 Rotational constants (GHZ):           2.03447     0.48123     0.39737
 Zero-point vibrational energy     423023.1 (Joules/Mol)
                                  101.10494 (Kcal/Mol)
 Warning -- explicit consideration of  14 degrees of freedom as
           vibrations may cause significant error
 Vibrational temperatures:     95.76   162.22   200.69   287.95   305.40
          (Kelvin)            389.01   414.88   435.26   476.51   485.12
                              562.82   741.98   766.39   799.78   895.37
                              926.69   955.76  1011.42  1097.88  1121.48
                             1141.73  1177.29  1216.92  1329.90  1337.15
                             1362.16  1400.57  1460.25  1516.25  1550.85
                             1583.63  1620.87  1680.86  1805.11  1823.65
                             1845.74  1883.04  1945.13  1963.94  1999.77
                             2029.13  2072.84  2155.34  2187.24  2202.37
                             2215.07  2274.44  2389.69  2431.98  4373.94
                             4431.36  4589.73  4658.08  4739.43  4869.77
                             4976.41  5381.96

 Zero-point correction=                           0.161121 (Hartree/Particle)
 Thermal correction to Energy=                    0.171590
 Thermal correction to Enthalpy=                  0.172534
 Thermal correction to Gibbs Free Energy=         0.124866
 Sum of electronic and zero-point Energies=           -644.645165
 Sum of electronic and thermal Energies=              -644.634696
 Sum of electronic and thermal Enthalpies=            -644.633752
 Sum of electronic and thermal Free Energies=         -644.681420

                     E (Thermal)             CV                S
                      KCal/Mol        Cal/Mol-Kelvin    Cal/Mol-Kelvin
 Total                  107.674             40.790            100.325
 Electronic               0.000              0.000              0.000
 Translational            0.889              2.981             41.471
 Rotational               0.889              2.981             31.092
 Vibrational            105.897             34.828             27.763
 Vibration     1          0.598              1.970              4.253
 Vibration     2          0.607              1.939              3.221
 Vibration     3          0.615              1.914              2.811
 Vibration     4          0.638              1.840              2.132
 Vibration     5          0.643              1.822              2.024
 Vibration     6          0.674              1.728              1.594
 Vibration     7          0.685              1.695              1.484
 Vibration     8          0.694              1.669              1.403
 Vibration     9          0.714              1.613              1.254
 Vibration    10          0.718              1.601              1.225
 Vibration    11          0.759              1.489              0.996
 Vibration    12          0.871              1.215              0.620
 Vibration    13          0.888              1.178              0.581
 Vibration    14          0.911              1.127              0.532

 Optimization completed.
    -- Stationary point found.
 Normal termination of Gaussian 16 at Wed Dec  9 22:31:35 2020.

 ----------------------------------------------------------------------
 # B3LYP/6-311++G(d,p) empiricaldispersion=gd3bj scf=xqc pop=npa geom=c
 heck
 ----------------------------------------------------------------------

 --------------------------------------
 CID_84768088_JID_3259_Energie_neutraal
 --------------------------------------
 Structure from the checkpoint file:  "JID_3259.chk"
 Charge =  0 Multiplicity = 1

 SCF Done:  E(RB3LYP) =  -645.001727947     A.U. after   15 cycles
 Normal termination of Gaussian 16 at Wed Dec  9 22:33:48 2020.

 ----------------------------------------------------------------------
 # B3LYP/6-311++G(d,p) empiricaldispersion=gd3bj scf=xqc pop=npa geom=c
 heck
 ----------------------------------------------------------------------

 ------------------------------------
 CID_84768088_JID_3259_Energie_kation
 ------------------------------------
 Structure from the checkpoint file:  "JID_3259.chk"
 Charge =  1 Multiplicity = 2

 SCF Done:  E(UB3LYP) =  -644.702153445     A.U. after   23 cycles
 Normal termination of Gaussian 16 at Wed Dec  9 22:38:26 2020.
 Gaussian 16:  ES64L-G16RevA.03 25-Dec-2016

 ----------------------------------------------------------------------
 # B3LYP/6-311++G(d,p) empiricaldispersion=gd3bj scf=xqc pop=npa geom=c
 heck
 ----------------------------------------------------------------------

 -----------------------------------
 CID_84768088_JID_3259_Energie_anion
 -----------------------------------
 Structure from the checkpoint file:  "JID_3259.chk"
 Charge = -1 Multiplicity = 2

                         Standard orientation:
 ---------------------------------------------------------------------
 Center     Atomic      Atomic             Coordinates (Angstroms)
 Number     Number       Type             X           Y           Z
 ---------------------------------------------------------------------
      1          6           0        0.088921    1.859488   -0.065877
      2          6           0       -1.297654    1.925760    0.061898
      3          6           0       -1.944067    0.697555    0.055006
      4          6           0       -1.295857   -0.538483   -0.055111
      5          6           0        0.101314   -0.586744   -0.178642
      6          6           0        0.789372    0.645511   -0.199631
      7          6           0        2.282567    0.653320   -0.436133
      8          7           0        2.933792   -0.338331    0.442282
      9          8           0        4.355714   -0.230811    0.264730
     10          8           0        0.724267   -1.780592   -0.278377
     11          7           0       -2.250508   -1.561199   -0.004341
     12          6           0       -3.367756   -0.931196    0.122897
     13          8           0       -3.289863    0.440730    0.171774
     14          1           0        0.661281    2.783189   -0.077209
     15          1           0       -1.829515    2.864199    0.161183
     16          1           0        2.519374    0.347849   -1.463064
     17          1           0        2.700053    1.657263   -0.286135
     18          1           0        2.782407   -0.052906    1.411453
     19          1           0        4.606687   -1.119766   -0.032853
     20          1           0        1.677160   -1.622234   -0.067497
     21          1           0       -4.362399   -1.346761    0.197078
 ---------------------------------------------------------------------

 SCF Done:  E(UB3LYP) =  -644.991704277     A.U. after   33 cycles
 SCF Done:  E(UB3LYP) =  -644.991704277     a.u. after    1 cycles

 The electronic state is 2-A.
 Alpha  occ. eigenvalues --  -19.08191 -19.03810 -19.02001 -14.25388 -14.19832
 Alpha  occ. eigenvalues --  -10.13957 -10.12076 -10.11673 -10.09468 -10.08308
 Alpha  occ. eigenvalues --  -10.06730 -10.06512 -10.06114  -1.01522  -0.95443
 Alpha  occ. eigenvalues --   -0.93717  -0.81184  -0.75277  -0.72909  -0.64584
 Alpha  occ. eigenvalues --   -0.62904  -0.56939  -0.51914  -0.49982  -0.49115
 Alpha  occ. eigenvalues --   -0.43517  -0.41109  -0.41052  -0.39151  -0.36629
 Alpha  occ. eigenvalues --   -0.36505  -0.35277  -0.33695  -0.32788  -0.30459
 Alpha  occ. eigenvalues --   -0.29726  -0.28133  -0.27510  -0.25860  -0.24023
 Alpha  occ. eigenvalues --   -0.22299  -0.21057  -0.18847  -0.18185  -0.15241
 Alpha  occ. eigenvalues --   -0.13153  -0.10727   0.05124
 Alpha virt. eigenvalues --    0.07116   0.07790   0.08263   0.09648   0.10142
 Alpha virt. eigenvalues --    0.10500   0.11862   0.12503   0.13051   0.13988
 Alpha virt. eigenvalues --    0.14423   0.14756   0.15121   0.16225   0.17866

  Beta  occ. eigenvalues --  -19.08125 -19.03734 -19.01948 -14.25351 -14.19805
  Beta  occ. eigenvalues --  -10.13730 -10.12098 -10.11526 -10.09448 -10.08287
  Beta  occ. eigenvalues --  -10.06771 -10.06417 -10.06048  -1.01378  -0.95310
  Beta  occ. eigenvalues --   -0.93588  -0.81042  -0.75162  -0.72767  -0.64447
  Beta  occ. eigenvalues --   -0.62693  -0.56789  -0.51645  -0.49891  -0.49008
  Beta  occ. eigenvalues --   -0.43373  -0.41000  -0.40936  -0.39018  -0.36532
  Beta  occ. eigenvalues --   -0.36095  -0.35167  -0.33599  -0.32699  -0.30322
  Beta  occ. eigenvalues --   -0.29579  -0.27967  -0.27345  -0.25799  -0.23902
  Beta  occ. eigenvalues --   -0.21824  -0.20707  -0.18758  -0.18128  -0.15166
  Beta  occ. eigenvalues --   -0.12726  -0.10145
  Beta virt. eigenvalues --    0.07650   0.08233   0.08652   0.08911   0.10058
  Beta virt. eigenvalues --    0.10515   0.10790   0.12038   0.12668   0.13663
  Beta virt. eigenvalues --    0.14228   0.14450   0.14790   0.15361   0.16330

 Mulliken charges and spin densities:
               1          2
     1  C   -0.812094   0.263952
     2  C   -0.495476  -0.195768
     3  C    0.158004  -0.080195
     4  C    0.206747  -0.071050
     5  C   -0.349505  -0.418040
     6  C    0.304025   0.781379
     7  C    0.722983  -1.168979
     8  N   -0.081174  -0.369917
     9  O   -0.201602   0.112540
    10  O   -0.320947   0.045403
    11  N   -0.126315  -0.001147
    12  C    0.237635   0.275403
    13  O   -0.120320   0.002325
    14  H   -0.029888   0.137206
    15  H    0.084581   0.059285
    16  H   -0.033288   0.224909
    17  H   -0.069269   0.244764
    18  H   -0.039213   0.289464
    19  H   -0.374650   0.665575
    20  H    0.189894   0.175736
    21  H    0.149874   0.027154
 Sum of Mulliken charges =  -1.00000   1.00000

 Dipole moment (field-independent basis, Debye):
    X=             -7.3299    Y=              3.8793    Z=             -0.0999  Tot=              8.2937
 Quadrupole moment (field-independent basis, Debye-Ang):
   XX=           -145.6585   YY=           -103.0800   ZZ=            -90.1943
   XY=              7.7373   XZ=             -3.5199   YZ=             -2.0496

 Summary of Natural Population Analysis:

                                       Natural Population
                Natural  -----------------------------------------------
    Atom  No    Charge         Core      Valence    Rydberg      Total
 -----------------------------------------------------------------------
      C    1   -0.07125      0.99955     2.06275    0.00895     3.07125
      C    2   -0.13731      0.99952     2.12755    0.01023     3.13731
      C    3    0.13873      0.99936     1.84903    0.01288     2.86127
      C    4    0.01863      0.99940     1.96951    0.01246     2.98137
      C    5    0.19172      0.99932     1.79385    0.01510     2.80828
      C    6   -0.08288      0.99948     2.07344    0.00995     3.08288
      C    7   -0.09699      0.99960     2.08338    0.01401     3.09699
      N    8   -0.19555      0.99973     2.67946    0.01636     3.69555
      O    9   -0.29368      0.99991     3.28627    0.00750     4.29368
      O   10   -0.34127      0.99987     3.33448    0.00692     4.34127
      N   11   -0.23967      0.99970     2.72955    0.01041     3.73967
      C   12    0.21992      0.99965     1.76134    0.01909     2.78008
      O   13   -0.24290      0.99986     3.23595    0.00709     4.24290
      H   14    0.09655      0.00000     0.40243    0.00102     0.40345
      H   15    0.10199      0.00000     0.39690    0.00111     0.39801
      H   16    0.09881      0.00000     0.39966    0.00153     0.40119
      H   17    0.09365      0.00000     0.40471    0.00164     0.40635
      H   18    0.17245      0.00000     0.32447    0.00308     0.32755
      H   19    0.24039      0.00000     0.22440    0.03522     0.25961
      H   20    0.24736      0.00000     0.24815    0.00449     0.25264
      H   21    0.08130      0.00000     0.41780    0.00090     0.41870
 =======================================================================
   * Total *    0.00000     12.99496    33.80509    0.19995    47.00000

 Normal termination of Gaussian 16 at Wed Dec  9 22:45:08 2020.
