 Gaussian 16, Revision A.03,

 -----------------------------------------------------------
 # opt freq B3LYP/6-31G(d) empiricaldispersion=gd3bj scf=xqc
 -----------------------------------------------------------

 -------------------------------
 CID_112737436_JID_8084_neutraal
 -------------------------------
 Symbolic Z-matrix:
 Charge =  0 Multiplicity = 1

 SCF Done:  E(RB3LYP) =  -909.525753985     A.U. after   16 cycles
 SCF Done:  E(RB3LYP) =  -909.505429394     A.U. after   15 cycles
 SCF Done:  E(RB3LYP) =  -909.530943963     A.U. after   15 cycles
 SCF Done:  E(RB3LYP) =  -909.522748256     A.U. after   15 cycles
 SCF Done:  E(RB3LYP) =  -909.532698581     A.U. after   14 cycles
 SCF Done:  E(RB3LYP) =  -909.533078189     A.U. after   14 cycles
 SCF Done:  E(RB3LYP) =  -909.533253295     A.U. after   13 cycles
 SCF Done:  E(RB3LYP) =  -909.533332501     A.U. after   12 cycles
 SCF Done:  E(RB3LYP) =  -909.533357575     A.U. after   12 cycles
 SCF Done:  E(RB3LYP) =  -909.533372241     A.U. after   11 cycles
 SCF Done:  E(RB3LYP) =  -909.533386760     A.U. after   10 cycles
 SCF Done:  E(RB3LYP) =  -909.533388523     A.U. after    9 cycles
 SCF Done:  E(RB3LYP) =  -909.533389317     A.U. after    9 cycles
 SCF Done:  E(RB3LYP) =  -909.533389521     A.U. after    9 cycles
 SCF Done:  E(RB3LYP) =  -909.533389670     A.U. after    8 cycles
 SCF Done:  E(RB3LYP) =  -909.533389801     A.U. after    8 cycles
 Optimization completed.
    -- Stationary point found.
 Normal termination of Gaussian 16 at Fri Dec 11 18:44:41 2020.

 --------------------------------------------------------------------
 #N Geom=AllCheck Guess=TCheck SCRF=Check GenChk RB3LYP/6-31G(d) Freq
 --------------------------------------------------------------------

 Structure from the checkpoint file:  "JID_8084.chk"
 -------------------------------
 CID_112737436_JID_8084_neutraal
 -------------------------------
 Charge =  0 Multiplicity = 1

 SCF Done:  E(RB3LYP) =  -909.533389801     A.U. after    2 cycles

  Exact polarizability: 191.413   5.441 137.631  23.063 -15.517  96.001
 Approx polarizability: 296.505   1.911 263.227  66.906 -43.913 170.998

                      1                      2                      3
                      A                      A                      A
 Frequencies --     30.5772                42.6400                61.3249
 Red. masses --      7.6664                 7.8017                 6.7640
 Frc consts  --      0.0042                 0.0084                 0.0150
 IR Inten    --      1.3470                 0.2625                 0.4389

                      4                      5                      6
                      A                      A                      A
 Frequencies --     68.4701                98.3980               113.8306
 Red. masses --      7.2669                 6.4627                 8.0509
 Frc consts  --      0.0201                 0.0369                 0.0615
 IR Inten    --      0.5016                 3.5856                 0.0374

                      7                      8                      9
                      A                      A                      A
 Frequencies --    167.5801               202.0217               232.8731
 Red. masses --      6.4445                 4.5905                 6.0766
 Frc consts  --      0.1066                 0.1104                 0.1942
 IR Inten    --      0.9917                 4.0771                11.1620

                     10                     11                     12
                      A                      A                      A
 Frequencies --    239.4970               286.4513               298.8393
 Red. masses --      8.3425                 6.9811                 7.4681
 Frc consts  --      0.2819                 0.3375                 0.3929
 IR Inten    --      2.5371                 8.2562                 1.4880

                     13                     14                     15
                      A                      A                      A
 Frequencies --    351.2617               385.3553               401.6481
 Red. masses --      9.1845                10.8683                 1.1097
 Frc consts  --      0.6677                 0.9509                 0.1055
 IR Inten    --      4.5262                 1.0163               110.6969

                     16                     17                     18
                      A                      A                      A
 Frequencies --    437.2231               451.4471               469.4815
 Red. masses --      4.9042                 1.4393                 3.2699
 Frc consts  --      0.5524                 0.1728                 0.4246
 IR Inten    --      7.7315                99.9958                 1.9979

                     19                     20                     21
                      A                      A                      A
 Frequencies --    491.8277               535.4913               610.3036
 Red. masses --      4.3779                 7.7461                 3.1098
 Frc consts  --      0.6239                 1.3087                 0.6825
 IR Inten    --     20.7910                 8.8134                 4.4328

                     22                     23                     24
                      A                      A                      A
 Frequencies --    625.0284               633.4197               644.0560
 Red. masses --      6.3632                 4.3774                 6.9080
 Frc consts  --      1.4646                 1.0348                 1.6883
 IR Inten    --     20.3486                 5.7997                28.3381

                     25                     26                     27
                      A                      A                      A
 Frequencies --    663.9343               685.8375               702.2474
 Red. masses --      5.2858                 5.5542                 5.6995
 Frc consts  --      1.3728                 1.5393                 1.6560
 IR Inten    --      7.5183                 6.9859                 0.3917

                     28                     29                     30
                      A                      A                      A
 Frequencies --    756.7418               758.6020               767.1056
 Red. masses --      4.4014                 3.3312                 1.4655
 Frc consts  --      1.4850                 1.1295                 0.5081
 IR Inten    --     40.0642                 0.8827                63.4839

                     31                     32                     33
                      A                      A                      A
 Frequencies --    812.8284               826.4962               834.8655
 Red. masses --      1.9752                 3.1688                 1.5135
 Frc consts  --      0.7689                 1.2753                 0.6215
 IR Inten    --     20.0903                 4.0425                 4.7772

                     34                     35                     36
                      A                      A                      A
 Frequencies --    853.8336               874.5109               882.7181
 Red. masses --      7.8414                 1.5817                 1.3560
 Frc consts  --      3.3681                 0.7127                 0.6225
 IR Inten    --     21.7090                20.4619                 4.3326

                     37                     38                     39
                      A                      A                      A
 Frequencies --    911.2945               947.4971               960.9478
 Red. masses --      6.3444                 4.1922                 1.3272
 Frc consts  --      3.1042                 2.2174                 0.7221
 IR Inten    --      6.1006                 9.0794                 2.3102

                     40                     41                     42
                      A                      A                      A
 Frequencies --   1007.0920              1054.2785              1119.8060
 Red. masses --      3.0013                 1.3292                 2.8671
 Frc consts  --      1.7935                 0.8705                 2.1183
 IR Inten    --      8.4468                26.2484                54.4181

                     43                     44                     45
                      A                      A                      A
 Frequencies --   1126.0901              1162.8799              1190.2115
 Red. masses --      2.1941                 3.6632                 1.5661
 Frc consts  --      1.6393                 2.9187                 1.3072
 IR Inten    --     22.2291               126.3623                 7.1992

                     46                     47                     48
                      A                      A                      A
 Frequencies --   1205.0979              1220.4001              1256.3595
 Red. masses --      1.4370                 2.2784                 1.7747
 Frc consts  --      1.2296                 1.9993                 1.6504
 IR Inten    --    158.8294                97.8070                12.4583

                     49                     50                     51
                      A                      A                      A
 Frequencies --   1272.0297              1290.7932              1341.0563
 Red. masses --      1.7721                 1.7767                 5.0687
 Frc consts  --      1.6894                 1.7442                 5.3708
 IR Inten    --      8.3064                12.0954               274.3371

                     52                     53                     54
                      A                      A                      A
 Frequencies --   1355.8048              1392.5656              1400.1732
 Red. masses --      6.3798                 6.2175                 5.6714
 Frc consts  --      6.9096                 7.1039                 6.5509
 IR Inten    --    183.6820                52.5927               198.4764

                     55                     56                     57
                      A                      A                      A
 Frequencies --   1442.9304              1455.7502              1512.5995
 Red. masses --      2.9934                 1.7697                 4.7191
 Frc consts  --      3.6720                 2.2096                 6.3615
 IR Inten    --     54.5936                14.3912               239.8907

                     58                     59                     60
                      A                      A                      A
 Frequencies --   1527.4549              1543.4666              1617.0831
 Red. masses --      3.8138                 2.8538                 8.0897
 Frc consts  --      5.2426                 4.0056                12.4637
 IR Inten    --     33.5103                30.8593                80.9272

                     61                     62                     63
                      A                      A                      A
 Frequencies --   1619.5191              1647.2994              1682.1872
 Red. masses --      5.6995                 7.9769                 6.6613
 Frc consts  --      8.8076                12.7535                11.1060
 IR Inten    --     50.1192               200.2885               236.8482

                     64                     65                     66
                      A                      A                      A
 Frequencies --   1792.2272              3193.4576              3221.8798
 Red. masses --      9.1353                 1.0909                 1.0913
 Frc consts  --     17.2886                 6.5548                 6.6746
 IR Inten    --    358.5880                10.2345                 0.7013

                     67                     68                     69
                      A                      A                      A
 Frequencies --   3252.9921              3273.3168              3287.9578
 Red. masses --      1.0919                 1.0910                 1.0976
 Frc consts  --      6.8080                 6.8871                 6.9910
 IR Inten    --      1.8965                 3.0837                 0.6204

                     70                     71                     72
                      A                      A                      A
 Frequencies --   3306.2441              3593.4028              3747.8644
 Red. masses --      1.1052                 1.0755                 1.0660
 Frc consts  --      7.1178                 8.1823                 8.8226
 IR Inten    --      0.4973                49.9768                77.9814

 - Thermochemistry -
 -------------------
 Temperature   298.150 Kelvin.  Pressure   1.00000 Atm.
 Atom     1 has atomic number  6 and mass  12.00000

 Molecular mass:   248.04332 amu.
 Principal axes and moments of inertia in atomic units:
                           1         2         3
     Eigenvalues --  2492.460195738.528036249.45423
           X            0.99998   0.00403  -0.00481
           Y           -0.00427   0.99869  -0.05097
           Z            0.00460   0.05099   0.99869
 This molecule is an asymmetric top.
 Rotational symmetry number  1.
 Warning -- assumption of classical behavior for rotation
           may cause significant error
 Rotational temperatures (Kelvin)      0.03475     0.01509     0.01386
 Rotational constants (GHZ):           0.72408     0.31450     0.28878
 Zero-point vibrational energy     485868.0 (Joules/Mol)
                                  116.12523 (Kcal/Mol)
 Warning -- explicit consideration of  21 degrees of freedom as
           vibrations may cause significant error
 Vibrational temperatures:     43.99    61.35    88.23    98.51   141.57
          (Kelvin)            163.78   241.11   290.66   335.05   344.58
                              412.14   429.96   505.39   554.44   577.88
                              629.07   649.53   675.48   707.63   770.45
                              878.09   899.28   911.35   926.65   955.25
                              986.77  1010.38  1088.78  1091.46  1103.69
                             1169.48  1189.14  1201.19  1228.48  1258.23
                             1270.03  1311.15  1363.24  1382.59  1448.98
                             1516.87  1611.15  1620.19  1673.12  1712.45
                             1733.87  1755.88  1807.62  1830.17  1857.16
                             1929.48  1950.70  2003.59  2014.54  2076.05
                             2094.50  2176.29  2197.67  2220.70  2326.62
                             2330.13  2370.10  2420.29  2578.62  4594.67
                             4635.57  4680.33  4709.57  4730.64  4756.95
                             5170.11  5392.34

 Zero-point correction=                           0.185057 (Hartree/Particle)
 Thermal correction to Energy=                    0.199954
 Thermal correction to Enthalpy=                  0.200898
 Thermal correction to Gibbs Free Energy=         0.141579
 Sum of electronic and zero-point Energies=           -909.348332
 Sum of electronic and thermal Energies=              -909.333436
 Sum of electronic and thermal Enthalpies=            -909.332492
 Sum of electronic and thermal Free Energies=         -909.391811

                     E (Thermal)             CV                S
                      KCal/Mol        Cal/Mol-Kelvin    Cal/Mol-Kelvin
 Total                  125.473             56.485            124.847
 Electronic               0.000              0.000              0.000
 Translational            0.889              2.981             42.426
 Rotational               0.889              2.981             32.858
 Vibrational            123.696             50.524             49.564
 Vibration     1          0.594              1.984              5.792
 Vibration     2          0.595              1.980              5.132
 Vibration     3          0.597              1.973              4.414
 Vibration     4          0.598              1.969              4.197
 Vibration     5          0.604              1.950              3.486
 Vibration     6          0.607              1.938              3.203
 Vibration     7          0.624              1.882              2.462
 Vibration     8          0.639              1.837              2.115
 Vibration     9          0.654              1.791              1.857
 Vibration    10          0.657              1.780              1.807
 Vibration    11          0.684              1.699              1.495
 Vibration    12          0.692              1.676              1.423
 Vibration    13          0.728              1.573              1.161
 Vibration    14          0.754              1.501              1.018
 Vibration    15          0.767              1.467              0.957
 Vibration    16          0.798              1.389              0.835
 Vibration    17          0.810              1.358              0.791
 Vibration    18          0.827              1.318              0.739
 Vibration    19          0.848              1.268              0.679
 Vibration    20          0.890              1.172              0.575
 Vibration    21          0.969              1.010              0.432

 Optimization completed.
    -- Stationary point found.
 Normal termination of Gaussian 16 at Fri Dec 11 18:55:32 2020.

 ----------------------------------------------------------------------
 # B3LYP/6-311++G(d,p) empiricaldispersion=gd3bj scf=xqc pop=npa geom=c
 heck
 ----------------------------------------------------------------------

 ---------------------------------------
 CID_112737436_JID_8084_Energie_neutraal
 ---------------------------------------
 Structure from the checkpoint file:  "JID_8084.chk"
 Charge =  0 Multiplicity = 1

 SCF Done:  E(RB3LYP) =  -909.800642037     A.U. after   16 cycles
 Normal termination of Gaussian 16 at Fri Dec 11 19:00:10 2020.

 ----------------------------------------------------------------------
 # B3LYP/6-311++G(d,p) empiricaldispersion=gd3bj scf=xqc pop=npa geom=c
 heck
 ----------------------------------------------------------------------

 -------------------------------------
 CID_112737436_JID_8084_Energie_kation
 -------------------------------------
 Structure from the checkpoint file:  "JID_8084.chk"
 Charge =  1 Multiplicity = 2

 SCF Done:  E(UB3LYP) =  -909.488340111     A.U. after   28 cycles
 Normal termination of Gaussian 16 at Fri Dec 11 19:11:46 2020.
 Gaussian 16:  ES64L-G16RevA.03 25-Dec-2016

 ----------------------------------------------------------------------
 # B3LYP/6-311++G(d,p) empiricaldispersion=gd3bj scf=xqc pop=npa geom=c
 heck
 ----------------------------------------------------------------------

 ------------------------------------
 CID_112737436_JID_8084_Energie_anion
 ------------------------------------
 Structure from the checkpoint file:  "JID_8084.chk"
 Charge = -1 Multiplicity = 2

                         Standard orientation:
 ---------------------------------------------------------------------
 Center     Atomic      Atomic             Coordinates (Angstroms)
 Number     Number       Type             X           Y           Z
 ---------------------------------------------------------------------
      1          6           0       -2.471979   -0.860298    2.080531
      2          6           0       -3.542344   -0.632544    1.263734
      3          8           0       -3.215536    0.229772    0.272531
      4          6           0       -1.899888    0.558367    0.439710
      5          6           0       -1.400644   -0.084323    1.544586
      6          6           0       -1.367999    1.552042   -0.506079
      7          8           0       -2.074935    2.355380   -1.088910
      8          7           0        0.019611    1.627828   -0.627523
      9          6           0        1.028250    0.696984   -0.348188
     10          6           0        0.946409   -0.699510   -0.560700
     11          6           0        2.000073   -1.534899   -0.184567
     12          6           0        3.171849   -1.019172    0.343576
     13          6           0        3.285604    0.367121    0.513597
     14          6           0        2.215498    1.202552    0.190975
     15          8           0        4.397971    0.957760    1.018874
     16          7           0       -0.176309   -1.348452   -1.234739
     17          8           0       -0.856974   -0.680774   -2.012888
     18          8           0       -0.354449   -2.546775   -1.010042
     19          1           0       -2.446670   -1.499657    2.951122
     20          1           0       -4.558017   -0.996858    1.249945
     21          1           0       -0.397322   -0.003907    1.935246
     22          1           0        0.309008    2.481208   -1.090137
     23          1           0        1.883150   -2.599300   -0.343121
     24          1           0        3.992078   -1.680140    0.610295
     25          1           0        2.299686    2.264554    0.394218
     26          1           0        5.057378    0.277647    1.228696
 ---------------------------------------------------------------------

 SCF Done:  E(UB3LYP) =  -909.842522861     A.U. after   27 cycles

 The electronic state is 2-A.
 Alpha  occ. eigenvalues --  -19.07471 -19.05703 -18.96160 -18.95394 -18.95156
 Alpha  occ. eigenvalues --  -14.33065 -14.21978 -10.15180 -10.11878 -10.11651
 Alpha  occ. eigenvalues --  -10.11085 -10.10136 -10.07678 -10.06723 -10.06273
 Alpha  occ. eigenvalues --  -10.06215 -10.05880 -10.05815  -1.03403  -1.00342
 Alpha  occ. eigenvalues --   -0.97001  -0.91603  -0.86153  -0.81519  -0.73563
 Alpha  occ. eigenvalues --   -0.69381  -0.65444  -0.65016  -0.63420  -0.55995
 Alpha  occ. eigenvalues --   -0.52318  -0.51250  -0.49544  -0.47245  -0.46183
 Alpha  occ. eigenvalues --   -0.44227  -0.41393  -0.38620  -0.37916  -0.37307
 Alpha  occ. eigenvalues --   -0.35620  -0.34748  -0.33853  -0.32568  -0.32429
 Alpha  occ. eigenvalues --   -0.31874  -0.31453  -0.30788  -0.30092  -0.29261
 Alpha  occ. eigenvalues --   -0.28465  -0.27480  -0.26333  -0.24528  -0.23327
 Alpha  occ. eigenvalues --   -0.18193  -0.17503  -0.14659  -0.14045  -0.13133
 Alpha  occ. eigenvalues --   -0.13005  -0.12188  -0.10844  -0.10418   0.02020
 Alpha virt. eigenvalues --    0.06370   0.07529   0.08381   0.09482   0.09782
 Alpha virt. eigenvalues --    0.09882   0.10455   0.11933   0.12876   0.13186
 Alpha virt. eigenvalues --    0.13684   0.13914   0.14813   0.15499   0.16169

  Beta  occ. eigenvalues --  -19.07424 -19.05638 -18.95985 -18.95054 -18.94636
  Beta  occ. eigenvalues --  -14.32432 -14.22030 -10.15085 -10.11632 -10.11623
  Beta  occ. eigenvalues --  -10.11079 -10.09903 -10.07651 -10.06735 -10.06277
  Beta  occ. eigenvalues --  -10.06235 -10.05912 -10.05776  -1.02403  -1.00264
  Beta  occ. eigenvalues --   -0.96829  -0.91330  -0.85337  -0.81351  -0.73375
  Beta  occ. eigenvalues --   -0.69331  -0.65203  -0.64697  -0.63277  -0.55390
  Beta  occ. eigenvalues --   -0.51983  -0.51083  -0.49494  -0.46895  -0.46072
  Beta  occ. eigenvalues --   -0.44180  -0.41298  -0.38187  -0.37627  -0.36882
  Beta  occ. eigenvalues --   -0.34851  -0.34057  -0.32688  -0.32261  -0.32076
  Beta  occ. eigenvalues --   -0.31591  -0.30871  -0.30454  -0.29972  -0.29161
  Beta  occ. eigenvalues --   -0.28257  -0.26988  -0.26276  -0.24430  -0.22593
  Beta  occ. eigenvalues --   -0.17696  -0.17325  -0.14141  -0.12887  -0.12495
  Beta  occ. eigenvalues --   -0.12249  -0.10834  -0.10639  -0.09691
  Beta virt. eigenvalues --    0.06363   0.07515   0.08310   0.09142   0.09494
  Beta virt. eigenvalues --    0.09873   0.10200   0.10673   0.12136   0.12877
  Beta virt. eigenvalues --    0.13652   0.14057   0.14823   0.15010   0.15778

 Mulliken charges and spin densities:
               1          2
     1  C   -0.912556  -0.008053
     2  C    0.304372   0.025082
     3  O    0.042740   0.005452
     4  C   -0.423028   0.004075
     5  C    0.810863   0.074556
     6  C   -0.351355  -0.005364
     7  O   -0.370170   0.063935
     8  N   -0.247884  -0.032123
     9  C    0.223968   0.174488
    10  C    0.330389  -0.038570
    11  C   -0.273897   0.123416
    12  C   -0.069768  -0.051429
    13  C   -0.660039   0.153558
    14  C   -0.173847  -0.078362
    15  O   -0.252537   0.013329
    16  N   -0.235973   0.210301
    17  O   -0.104512   0.134518
    18  O   -0.180164   0.193720
    19  H    0.126493   0.006509
    20  H    0.160017   0.000553
    21  H    0.208399   0.010314
    22  H    0.306359   0.007924
    23  H    0.217158   0.000752
    24  H    0.111661   0.002835
    25  H    0.167323   0.009047
    26  H    0.245988  -0.000462
 Sum of Mulliken charges =  -1.00000   1.00000

 Dipole moment (field-independent basis, Debye):
    X=              4.7988    Y=              0.4287    Z=              6.0164  Tot=              7.7078
 Quadrupole moment (field-independent basis, Debye-Ang):
   XX=           -119.2225   YY=           -127.6800   ZZ=           -118.9003
   XY=              2.1147   XZ=             -8.3847   YZ=             -6.6225

 Summary of Natural Population Analysis:

                                       Natural Population
                Natural  -----------------------------------------------
    Atom  No    Charge         Core      Valence    Rydberg      Total
 -----------------------------------------------------------------------
      C    1   -0.15743      0.99958     2.14956    0.00829     3.15743
      C    2    0.06861      0.99954     1.91811    0.01374     2.93139
      O    3   -0.21175      0.99986     3.20315    0.00875     4.21175
      C    4    0.11233      0.99942     1.87333    0.01491     2.88767
      C    5   -0.12392      0.99953     2.11708    0.00731     3.12392
      C    6    0.34180      0.99961     1.63750    0.02109     2.65820
      O    7   -0.29017      0.99988     3.28452    0.00577     4.29017
      N    8   -0.31789      0.99965     2.80717    0.01107     3.81789
      C    9    0.12468      0.99945     1.86257    0.01329     2.87532
      C   10    0.02228      0.99937     1.96413    0.01422     2.97772
      C   11   -0.05968      0.99954     2.05127    0.00886     3.05968
      C   12   -0.17461      0.99953     2.16607    0.00902     3.17461
      C   13    0.20162      0.99940     1.78723    0.01174     2.79838
      C   14   -0.16339      0.99950     2.15598    0.00792     3.16339
      O   15   -0.33727      0.99987     3.33133    0.00607     4.33727
      N   16    0.30705      0.99971     2.16563    0.02762     3.19295
      O   17   -0.19992      0.99990     3.19179    0.00823     4.19992
      O   18   -0.18405      0.99990     3.17641    0.00774     4.18405
      H   19    0.10383      0.00000     0.39531    0.00086     0.39617
      H   20    0.09057      0.00000     0.40851    0.00091     0.40943
      H   21    0.11387      0.00000     0.38532    0.00080     0.38613
      H   22    0.19597      0.00000     0.30243    0.00160     0.30403
      H   23    0.11530      0.00000     0.38358    0.00112     0.38470
      H   24    0.09250      0.00000     0.40634    0.00116     0.40750
      H   25    0.10165      0.00000     0.39693    0.00142     0.39835
      H   26    0.22799      0.00000     0.26965    0.00236     0.27201
 =======================================================================
   * Total *    0.00000     17.99323    45.79092    0.21586    64.00000

 Normal termination of Gaussian 16 at Fri Dec 11 19:23:01 2020.
