 Gaussian 16, Revision A.03,

 -----------------------------------------------------------
 # opt freq B3LYP/6-31G(d) empiricaldispersion=gd3bj scf=xqc
 -----------------------------------------------------------

 -------------------------------
 CID_104758685_JID_5363_neutraal
 -------------------------------
 Symbolic Z-matrix:
 Charge =  0 Multiplicity = 1

 SCF Done:  E(RB3LYP) =  -670.131902252     A.U. after   14 cycles
 SCF Done:  E(RB3LYP) =  -670.137748045     A.U. after   12 cycles
 SCF Done:  E(RB3LYP) =  -670.138016845     A.U. after   12 cycles
 SCF Done:  E(RB3LYP) =  -670.138593700     A.U. after   12 cycles
 SCF Done:  E(RB3LYP) =  -670.137808829     A.U. after   12 cycles
 SCF Done:  E(RB3LYP) =  -670.138852975     A.U. after   11 cycles
 SCF Done:  E(RB3LYP) =  -670.139187139     A.U. after   11 cycles
 SCF Done:  E(RB3LYP) =  -670.139282779     A.U. after   11 cycles
 SCF Done:  E(RB3LYP) =  -670.139344680     A.U. after   11 cycles
 SCF Done:  E(RB3LYP) =  -670.139419309     A.U. after   11 cycles
 SCF Done:  E(RB3LYP) =  -670.149116373     A.U. after    9 cycles
 SCF Done:  E(RB3LYP) =  -670.149118029     A.U. after    9 cycles
 SCF Done:  E(RB3LYP) =  -670.149122659     A.U. after    9 cycles
 SCF Done:  E(RB3LYP) =  -670.149123347     A.U. after    8 cycles
 SCF Done:  E(RB3LYP) =  -670.149123403     A.U. after    7 cycles
 Optimization completed.
    -- Stationary point found.
 Normal termination of Gaussian 16 at Thu Dec 10 16:03:24 2020.

 --------------------------------------------------------------------
 #N Geom=AllCheck Guess=TCheck SCRF=Check GenChk RB3LYP/6-31G(d) Freq
 --------------------------------------------------------------------

 Structure from the checkpoint file:  "JID_5363.chk"
 -------------------------------
 CID_104758685_JID_5363_neutraal
 -------------------------------
 Charge =  0 Multiplicity = 1

 SCF Done:  E(RB3LYP) =  -670.149123403     A.U. after    1 cycles

  Exact polarizability: 196.694   9.437 143.006   0.982  -0.137  91.584
 Approx polarizability: 251.514  13.871 234.019   3.840  -2.120 132.641

                      1                      2                      3
                      A                      A                      A
 Frequencies --     16.7421                26.6232                41.3625
 Red. masses --      2.8400                 4.1091                 3.4224
 Frc consts  --      0.0005                 0.0017                 0.0034
 IR Inten    --      0.2754                 0.2820                 0.9100

                      4                      5                      6
                      A                      A                      A
 Frequencies --     65.4734                78.3769               105.9668
 Red. masses --      2.8889                 1.1947                 3.3034
 Frc consts  --      0.0073                 0.0043                 0.0219
 IR Inten    --      0.7996                 0.2440                 0.7532

                      7                      8                      9
                      A                      A                      A
 Frequencies --    143.9387               188.7337               209.3637
 Red. masses --      3.8237                 3.9055                 2.0676
 Frc consts  --      0.0467                 0.0820                 0.0534
 IR Inten    --      3.8088                 2.0638                 1.5856

                     10                     11                     12
                      A                      A                      A
 Frequencies --    213.7873               222.6606               265.0606
 Red. masses --      1.0807                 2.7362                 1.3111
 Frc consts  --      0.0291                 0.0799                 0.0543
 IR Inten    --      0.2715                 3.0376                 1.6905

                     13                     14                     15
                      A                      A                      A
 Frequencies --    271.8936               300.9085               324.1528
 Red. masses --      2.3242                 2.5944                 2.8675
 Frc consts  --      0.1012                 0.1384                 0.1775
 IR Inten    --      1.0700                 0.5996                 6.7815

                     16                     17                     18
                      A                      A                      A
 Frequencies --    354.0006               399.2509               417.4073
 Red. masses --      2.3787                 3.2306                 2.6346
 Frc consts  --      0.1756                 0.3034                 0.2705
 IR Inten    --      1.0461                 8.2550                15.6686

                     19                     20                     21
                      A                      A                      A
 Frequencies --    422.9568               468.7313               477.2597
 Red. masses --      1.3636                 3.4197                 3.2606
 Frc consts  --      0.1437                 0.4427                 0.4376
 IR Inten    --     30.5299                 4.6897                 2.0126

                     22                     23                     24
                      A                      A                      A
 Frequencies --    490.9524               506.6671               563.9382
 Red. masses --      2.7047                 3.2874                 3.3907
 Frc consts  --      0.3841                 0.4972                 0.6353
 IR Inten    --      2.7099                 3.9689                13.1343

                     25                     26                     27
                      A                      A                      A
 Frequencies --    594.5904               611.6516               726.8531
 Red. masses --      4.6662                 3.3811                 5.5866
 Frc consts  --      0.9720                 0.7453                 1.7390
 IR Inten    --      6.1315                 2.3126                22.5885

                     28                     29                     30
                      A                      A                      A
 Frequencies --    753.3188               784.7339               817.1537
 Red. masses --      2.7658                 1.9372                 2.7836
 Frc consts  --      0.9248                 0.7028                 1.0951
 IR Inten    --     84.0732               109.2990                70.9119

                     31                     32                     33
                      A                      A                      A
 Frequencies --    823.3664               866.8140               883.3837
 Red. masses --      2.4974                 1.5617                 1.3759
 Frc consts  --      0.9975                 0.6914                 0.6326
 IR Inten    --      2.5648                50.6744                33.6357

                     34                     35                     36
                      A                      A                      A
 Frequencies --    902.2499               911.5946               940.7248
 Red. masses --      2.1953                 1.3818                 1.2355
 Frc consts  --      1.0529                 0.6765                 0.6442
 IR Inten    --     12.1395                 1.5671                 0.5180

                     37                     38                     39
                      A                      A                      A
 Frequencies --    953.7612               957.3765               998.8950
 Red. masses --      1.6708                 1.5543                 2.3639
 Frc consts  --      0.8955                 0.8394                 1.3897
 IR Inten    --     12.5842                 8.5956                 7.4325

                     40                     41                     42
                      A                      A                      A
 Frequencies --   1016.3971              1031.2086              1076.2812
 Red. masses --      2.7027                 1.6024                 1.4876
 Frc consts  --      1.6450                 1.0039                 1.0153
 IR Inten    --      8.2768                 0.2344                 4.3165

                     43                     44                     45
                      A                      A                      A
 Frequencies --   1121.4014              1133.2836              1137.1993
 Red. masses --      2.4752                 1.6899                 2.5052
 Frc consts  --      1.8339                 1.2787                 1.9088
 IR Inten    --     31.5754                 5.5515               132.1446

                     46                     47                     48
                      A                      A                      A
 Frequencies --   1142.6219              1163.9667              1187.3034
 Red. masses --      2.7510                 2.1305                 2.2308
 Frc consts  --      2.1161                 1.7007                 1.8528
 IR Inten    --     55.0333                97.8368                43.3389

                     49                     50                     51
                      A                      A                      A
 Frequencies --   1207.8929              1214.9816              1254.4000
 Red. masses --      1.7602                 1.9226                 1.4953
 Frc consts  --      1.5131                 1.6721                 1.3862
 IR Inten    --     12.7535                44.3763                52.6947

                     52                     53                     54
                      A                      A                      A
 Frequencies --   1277.0425              1305.0738              1320.4517
 Red. masses --      1.4304                 1.9770                 2.5242
 Frc consts  --      1.3744                 1.9839                 2.5931
 IR Inten    --     11.1187                97.6331                54.3166

                     55                     56                     57
                      A                      A                      A
 Frequencies --   1339.9489              1359.0375              1382.1828
 Red. masses --      2.2321                 1.8996                 1.2366
 Frc consts  --      2.3613                 2.0672                 1.3919
 IR Inten    --      3.0586                 3.0809                66.1905

                     58                     59                     60
                      A                      A                      A
 Frequencies --   1386.9788              1407.5448              1428.3290
 Red. masses --      1.3252                 1.3975                 1.3419
 Frc consts  --      1.5020                 1.6312                 1.6129
 IR Inten    --     15.4857                 9.6538                16.4706

                     61                     62                     63
                      A                      A                      A
 Frequencies --   1443.0699              1444.7705              1456.4232
 Red. masses --      1.2466                 1.2497                 1.4643
 Frc consts  --      1.5296                 1.5369                 1.8300
 IR Inten    --     15.7579                 0.2123                 1.4758

                     64                     65                     66
                      A                      A                      A
 Frequencies --   1472.0240              1494.6568              1511.4458
 Red. masses --      3.5337                 1.4520                 1.0480
 Frc consts  --      4.5114                 1.9112                 1.4106
 IR Inten    --    110.7447                10.3172                 1.3421

                     67                     68                     69
                      A                      A                      A
 Frequencies --   1515.2879              1515.7422              1525.7005
 Red. masses --      1.0448                 1.0500                 1.0554
 Frc consts  --      1.4134                 1.4214                 1.4474
 IR Inten    --      5.3667                 0.1761                 3.8110

                     70                     71                     72
                      A                      A                      A
 Frequencies --   1528.6427              1535.8798              1537.5298
 Red. masses --      1.2549                 1.0669                 1.1972
 Frc consts  --      1.7276                 1.4829                 1.6675
 IR Inten    --     69.8106                 4.8493                44.1816

                     73                     74                     75
                      A                      A                      A
 Frequencies --   1541.5194              1545.4650              1633.0330
 Red. masses --      2.0106                 1.1008                 3.5609
 Frc consts  --      2.8150                 1.5490                 5.5951
 IR Inten    --     80.1873                25.7308                 2.1842

                     76                     77                     78
                      A                      A                      A
 Frequencies --   1657.1367              1682.8819              2980.9463
 Red. masses --      2.7617                 1.6443                 1.0808
 Frc consts  --      4.4683                 2.7438                 5.6586
 IR Inten    --     11.0214                86.3058                23.1915

                     79                     80                     81
                      A                      A                      A
 Frequencies --   2994.0914              3009.8488              3038.7442
 Red. masses --      1.0632                 1.0728                 1.0964
 Frc consts  --      5.6155                 5.7260                 5.9651
 IR Inten    --     81.1133                26.4606                63.1048

                     82                     83                     84
                      A                      A                      A
 Frequencies --   3040.6555              3053.6272              3058.9084
 Red. masses --      1.0379                 1.0373                 1.0359
 Frc consts  --      5.6536                 5.6990                 5.7108
 IR Inten    --     46.1123                30.9078                14.5840

                     85                     86                     87
                      A                      A                      A
 Frequencies --   3091.0425              3115.1651              3121.2165
 Red. masses --      1.1010                 1.0925                 1.1025
 Frc consts  --      6.1978                 6.2465                 6.3281
 IR Inten    --     23.6963                10.4294                 9.4139

                     88                     89                     90
                      A                      A                      A
 Frequencies --   3123.7054              3127.1196              3130.6734
 Red. masses --      1.1003                 1.1023                 1.1024
 Frc consts  --      6.3258                 6.3511                 6.3660
 IR Inten    --     15.7152                35.8365                53.3854

                     91                     92                     93
                      A                      A                      A
 Frequencies --   3137.3381              3163.1208              3166.6318
 Red. masses --      1.1030                 1.0900                 1.0904
 Frc consts  --      6.3969                 6.4256                 6.4419
 IR Inten    --     26.9225                30.4150                26.9609

                     94                     95                     96
                      A                      A                      A
 Frequencies --   3501.3566              3522.5355              3609.9876
 Red. masses --      1.0489                 1.0730                 1.0961
 Frc consts  --      7.5761                 7.8441                 8.4160
 IR Inten    --      9.4557                20.8376                10.0585

 - Thermochemistry -
 -------------------
 Temperature   298.150 Kelvin.  Pressure   1.00000 Atm.
 Atom     1 has atomic number  6 and mass  12.00000

 Molecular mass:   209.15281 amu.
 Principal axes and moments of inertia in atomic units:
                           1         2         3
     Eigenvalues --  1223.731647900.492818616.46003
           X            0.99999  -0.00088   0.00378
           Y            0.00086   0.99998   0.00646
           Z           -0.00379  -0.00646   0.99997
 This molecule is an asymmetric top.
 Rotational symmetry number  1.
 Warning -- assumption of classical behavior for rotation
           may cause significant error
 Rotational temperatures (Kelvin)      0.07078     0.01096     0.01005
 Rotational constants (GHZ):           1.47479     0.22843     0.20945
 Zero-point vibrational energy     783698.3 (Joules/Mol)
                                  187.30839 (Kcal/Mol)
 Warning -- explicit consideration of  26 degrees of freedom as
           vibrations may cause significant error
 Vibrational temperatures:     24.09    38.30    59.51    94.20   112.77
          (Kelvin)            152.46   207.10   271.55   301.23   307.59
                              320.36   381.36   391.19   432.94   466.38
                              509.33   574.43   600.56   608.54   674.40
                              686.67   706.37   728.98   811.38   855.48
                              880.03  1045.78  1083.86  1129.06  1175.70
                             1184.64  1247.15  1270.99  1298.14  1311.58
                             1353.49  1372.25  1377.45  1437.19  1462.37
                             1483.68  1548.53  1613.45  1630.54  1636.18
                             1643.98  1674.69  1708.26  1737.89  1748.09
                             1804.80  1837.38  1877.71  1899.84  1927.89
                             1955.35  1988.65  1995.55  2025.14  2055.05
                             2076.26  2078.70  2095.47  2117.91  2150.48
                             2174.63  2180.16  2180.81  2195.14  2199.38
                             2209.79  2212.16  2217.90  2223.58  2349.57
                             2384.25  2421.29  4288.92  4307.83  4330.50
                             4372.08  4374.83  4393.49  4401.09  4447.32
                             4482.03  4490.73  4494.32  4499.23  4504.34
                             4513.93  4551.03  4556.08  5037.67  5068.14
                             5193.97

 Zero-point correction=                           0.298495 (Hartree/Particle)
 Thermal correction to Energy=                    0.314776
 Thermal correction to Enthalpy=                  0.315720
 Thermal correction to Gibbs Free Energy=         0.252681
 Sum of electronic and zero-point Energies=           -669.850628
 Sum of electronic and thermal Energies=              -669.834347
 Sum of electronic and thermal Enthalpies=            -669.833403
 Sum of electronic and thermal Free Energies=         -669.896442

                     E (Thermal)             CV                S
                      KCal/Mol        Cal/Mol-Kelvin    Cal/Mol-Kelvin
 Total                  197.525             60.413            132.678
 Electronic               0.000              0.000              0.000
 Translational            0.889              2.981             41.918
 Rotational               0.889              2.981             32.788
 Vibrational            195.748             54.452             57.972
 Vibration     1          0.593              1.986              6.987
 Vibration     2          0.593              1.984              6.066
 Vibration     3          0.594              1.981              5.193
 Vibration     4          0.597              1.971              4.285
 Vibration     5          0.600              1.964              3.931
 Vibration     6          0.605              1.944              3.341
 Vibration     7          0.616              1.909              2.751
 Vibration     8          0.633              1.855              2.240
 Vibration     9          0.642              1.826              2.049
 Vibration    10          0.644              1.820              2.011
 Vibration    11          0.648              1.807              1.937
 Vibration    12          0.671              1.737              1.628
 Vibration    13          0.675              1.725              1.584
 Vibration    14          0.693              1.672              1.412
 Vibration    15          0.709              1.627              1.289
 Vibration    16          0.730              1.567              1.148
 Vibration    17          0.765              1.472              0.965
 Vibration    18          0.780              1.432              0.901
 Vibration    19          0.785              1.420              0.882
 Vibration    20          0.826              1.319              0.741
 Vibration    21          0.834              1.300              0.717
 Vibration    22          0.847              1.270              0.681
 Vibration    23          0.862              1.235              0.642
 Vibration    24          0.920              1.109              0.516
 Vibration    25          0.952              1.043              0.459
 Vibration    26          0.971              1.007              0.430

                           ! Non-Optimized Parameters !
 Normal termination of Gaussian 16 at Thu Dec 10 16:12:46 2020.

 ----------------------------------------------------------------------
 # B3LYP/6-311++G(d,p) empiricaldispersion=gd3bj scf=xqc pop=npa geom=c
 heck
 ----------------------------------------------------------------------

 ---------------------------------------
 CID_104758685_JID_5363_Energie_neutraal
 ---------------------------------------
 Structure from the checkpoint file:  "JID_5363.chk"
 Charge =  0 Multiplicity = 1

 SCF Done:  E(RB3LYP) =  -670.343713887     A.U. after   16 cycles
 Normal termination of Gaussian 16 at Thu Dec 10 16:18:29 2020.

 ----------------------------------------------------------------------
 # B3LYP/6-311++G(d,p) empiricaldispersion=gd3bj scf=xqc pop=npa geom=c
 heck
 ----------------------------------------------------------------------

 -------------------------------------
 CID_104758685_JID_5363_Energie_kation
 -------------------------------------
 Structure from the checkpoint file:  "JID_5363.chk"
 Charge =  1 Multiplicity = 2

 SCF Done:  E(UB3LYP) =  -670.072752259     A.U. after   24 cycles
 Normal termination of Gaussian 16 at Thu Dec 10 16:31:17 2020.
 Gaussian 16:  ES64L-G16RevA.03 25-Dec-2016

 ----------------------------------------------------------------------
 # B3LYP/6-311++G(d,p) empiricaldispersion=gd3bj scf=xqc pop=npa geom=c
 heck
 ----------------------------------------------------------------------

 ------------------------------------
 CID_104758685_JID_5363_Energie_anion
 ------------------------------------
 Structure from the checkpoint file:  "JID_5363.chk"
 Charge = -1 Multiplicity = 2

                         Standard orientation:
 ---------------------------------------------------------------------
 Center     Atomic      Atomic             Coordinates (Angstroms)
 Number     Number       Type             X           Y           Z
 ---------------------------------------------------------------------
      1          6           0       -5.340471   -0.987479   -0.042601
      2          6           0       -3.880836   -0.622625    0.042962
      3          6           0       -3.462067    0.714724    0.064090
      4          6           0       -2.107971    1.025847    0.141346
      5          6           0       -1.187811   -0.053488    0.154982
      6          7           0       -1.575839   -1.324622    0.162369
      7          6           0       -2.888641   -1.598078    0.120042
      8          7           0        0.192806    0.230394    0.234229
      9          6           0        0.808323    0.778601   -0.986689
     10          6           0        2.285164    1.015607   -0.735373
     11          8           0        2.869247   -0.242747   -0.446910
     12          6           0        4.243044   -0.201373   -0.055109
     13          6           0        4.390201    0.224135    1.406786
     14          6           0        4.801094   -1.596495   -0.306483
     15          7           0       -1.623139    2.338390    0.190048
     16          1           0       -5.922906   -0.510172    0.755086
     17          1           0       -5.779122   -0.669397   -0.996861
     18          1           0       -5.481049   -2.069566    0.042620
     19          1           0       -4.197610    1.517554    0.046902
     20          1           0       -3.157929   -2.652854    0.139711
     21          1           0        0.683260   -0.628770    0.474279
     22          1           0        0.691682    0.093687   -1.840841
     23          1           0        0.319377    1.722630   -1.244260
     24          1           0        2.758493    1.464311   -1.624197
     25          1           0        2.404996    1.713338    0.106461
     26          1           0        4.770726    0.521442   -0.699873
     27          1           0        3.866907   -0.486257    2.056134
     28          1           0        5.446653    0.247818    1.696711
     29          1           0        3.972541    1.220281    1.584174
     30          1           0        4.684113   -1.870812   -1.359102
     31          1           0        5.863502   -1.643426   -0.044704
     32          1           0        4.261117   -2.331065    0.301122
     33          1           0       -2.301199    3.008967    0.535166
     34          1           0       -0.754511    2.388876    0.716501
 ---------------------------------------------------------------------

 SCF Done:  E(UB3LYP) =  -670.331281786     A.U. after   33 cycles
 SCF Done:  E(UB3LYP) =  -670.331281786     a.u. after    1 cycles

 The electronic state is 2-A.
 Alpha  occ. eigenvalues --  -19.03280 -14.21701 -14.21280 -14.20379 -10.13449
 Alpha  occ. eigenvalues --  -10.12855 -10.12383 -10.11546 -10.10247 -10.09423
 Alpha  occ. eigenvalues --  -10.08513 -10.08075 -10.07669 -10.07245 -10.06912
 Alpha  occ. eigenvalues --   -0.94761  -0.86806  -0.81013  -0.79938  -0.70992
 Alpha  occ. eigenvalues --   -0.69848  -0.65348  -0.63450  -0.60332  -0.58780
 Alpha  occ. eigenvalues --   -0.53759  -0.52490  -0.50041  -0.48929  -0.43540
 Alpha  occ. eigenvalues --   -0.42429  -0.41671  -0.39480  -0.38438  -0.37410
 Alpha  occ. eigenvalues --   -0.36552  -0.34659  -0.34157  -0.33645  -0.32691
 Alpha  occ. eigenvalues --   -0.31205  -0.30860  -0.30206  -0.29824  -0.29666
 Alpha  occ. eigenvalues --   -0.28833  -0.28349  -0.27637  -0.26626  -0.25544
 Alpha  occ. eigenvalues --   -0.23153  -0.22831  -0.18644  -0.17216  -0.16469
 Alpha  occ. eigenvalues --   -0.14936  -0.10795   0.04118
 Alpha virt. eigenvalues --    0.05469   0.06523   0.07005   0.07563   0.07683
 Alpha virt. eigenvalues --    0.08326   0.09146   0.09319   0.09439   0.09981
 Alpha virt. eigenvalues --    0.10773   0.10905   0.11245   0.11445   0.12350

  Beta  occ. eigenvalues --  -19.03273 -14.21648 -14.21281 -14.20341 -10.13437
  Beta  occ. eigenvalues --  -10.12844 -10.12365 -10.11540 -10.10240 -10.09421
  Beta  occ. eigenvalues --  -10.08504 -10.08058 -10.07624 -10.07226 -10.06885
  Beta  occ. eigenvalues --   -0.94749  -0.86766  -0.80941  -0.79917  -0.70946
  Beta  occ. eigenvalues --   -0.69812  -0.65295  -0.63412  -0.60286  -0.58744
  Beta  occ. eigenvalues --   -0.53683  -0.52448  -0.49998  -0.48881  -0.43496
  Beta  occ. eigenvalues --   -0.42395  -0.41633  -0.39402  -0.38411  -0.37366
  Beta  occ. eigenvalues --   -0.36502  -0.34623  -0.34124  -0.33597  -0.32666
  Beta  occ. eigenvalues --   -0.31174  -0.30816  -0.30180  -0.29784  -0.29615
  Beta  occ. eigenvalues --   -0.28790  -0.28318  -0.27607  -0.26596  -0.25505
  Beta  occ. eigenvalues --   -0.23064  -0.22783  -0.18582  -0.17198  -0.16416
  Beta  occ. eigenvalues --   -0.14824  -0.10726
  Beta virt. eigenvalues --    0.06175   0.06346   0.07135   0.07504   0.07912
  Beta virt. eigenvalues --    0.08295   0.08578   0.09313   0.09469   0.09799
  Beta virt. eigenvalues --    0.10275   0.10898   0.11048   0.11587   0.11689

 Mulliken charges and spin densities:
               1          2
     1  C    1.195492  -1.779832
     2  C    0.399145   0.072648
     3  C   -0.257255   0.094798
     4  C   -0.218240   0.597309
     5  C   -0.077593  -0.702372
     6  N   -0.056262   0.047997
     7  C   -0.741808   0.142210
     8  N    0.096632  -0.000399
     9  C    0.102581  -0.475768
    10  C   -0.180191  -0.159525
    11  O   -0.057224   0.017423
    12  C   -0.632757   0.587209
    13  C    0.707307  -1.129151
    14  C    0.026850  -0.503386
    15  N   -0.320809  -0.011809
    16  H   -0.113767   0.269914
    17  H    0.086802   0.062439
    18  H   -0.010673   0.138880
    19  H   -0.589013   0.763630
    20  H    0.069414   0.083259
    21  H    0.466852  -0.147563
    22  H    0.138331   0.012259
    23  H    0.123808   0.078230
    24  H   -0.014027   0.146543
    25  H   -0.003976   0.150369
    26  H   -0.169107   0.283722
    27  H    0.043028   0.103041
    28  H   -0.224566   0.370737
    29  H   -0.233598   0.370523
    30  H   -0.015300   0.158388
    31  H   -0.152189   0.288479
    32  H    0.074050   0.071259
    33  H   -0.435127   0.698905
    34  H   -0.026812   0.299635
 Sum of Mulliken charges =  -1.00000   1.00000

 Dipole moment (field-independent basis, Debye):
    X=             -0.1048    Y=             -4.0967    Z=             -2.4715  Tot=              4.7857
 Quadrupole moment (field-independent basis, Debye-Ang):
   XX=           -198.7623   YY=           -139.0244   ZZ=           -119.6202
   XY=             11.2654   XZ=              2.1330   YZ=             -6.4789

 Summary of Natural Population Analysis:

                                       Natural Population
                Natural  -----------------------------------------------
    Atom  No    Charge         Core      Valence    Rydberg      Total
 -----------------------------------------------------------------------
      C    1   -0.29222      0.99964     2.28685    0.00573     3.29222
      C    2   -0.03805      0.99952     2.02934    0.00919     3.03805
      C    3   -0.10171      0.99948     2.09214    0.01009     3.10171
      C    4    0.06620      0.99944     1.92267    0.01169     2.93380
      C    5    0.17943      0.99948     1.80463    0.01645     2.82057
      N    6   -0.23940      0.99967     2.73005    0.00968     3.73940
      C    7    0.00652      0.99953     1.98046    0.01349     2.99348
      N    8   -0.33867      0.99970     2.82801    0.01096     3.83867
      C    9   -0.09692      0.99960     2.08672    0.01060     3.09692
      C   10   -0.01112      0.99957     1.99919    0.01236     3.01112
      O   11   -0.31225      0.99987     3.30215    0.01023     4.31225
      C   12    0.06540      0.99958     1.92233    0.01269     2.93460
      C   13   -0.29823      0.99964     2.29276    0.00582     3.29823
      C   14   -0.29006      0.99964     2.28394    0.00648     3.29006
      N   15   -0.39992      0.99972     2.88905    0.01115     3.89992
      H   16    0.10500      0.00000     0.39382    0.00118     0.39500
      H   17    0.10158      0.00000     0.39752    0.00090     0.39842
      H   18    0.09995      0.00000     0.39920    0.00085     0.40005
      H   19    0.10124      0.00000     0.39728    0.00148     0.39876
      H   20    0.08568      0.00000     0.41317    0.00115     0.41432
      H   21    0.19060      0.00000     0.30567    0.00373     0.30940
      H   22    0.08593      0.00000     0.41271    0.00137     0.41407
      H   23    0.10425      0.00000     0.39418    0.00157     0.39575
      H   24    0.08014      0.00000     0.41866    0.00121     0.41986
      H   25    0.08438      0.00000     0.41365    0.00197     0.41562
      H   26    0.07643      0.00000     0.42108    0.00249     0.42357
      H   27    0.09962      0.00000     0.39943    0.00095     0.40038
      H   28    0.10127      0.00000     0.39757    0.00116     0.39873
      H   29    0.10263      0.00000     0.39608    0.00129     0.39737
      H   30    0.10208      0.00000     0.39695    0.00097     0.39792
      H   31    0.10009      0.00000     0.39904    0.00087     0.39991
      H   32    0.09966      0.00000     0.39934    0.00100     0.40034
      H   33    0.18869      0.00000     0.30426    0.00705     0.31131
      H   34    0.19178      0.00000     0.30526    0.00296     0.30822
 =======================================================================
   * Total *   -0.00000     14.99410    41.81516    0.19075    57.00000

 Normal termination of Gaussian 16 at Thu Dec 10 16:45:29 2020.
