 Gaussian 16, Revision A.03,

 -----------------------------------------------------------
 # opt freq B3LYP/6-31G(d) empiricaldispersion=gd3bj scf=xqc
 -----------------------------------------------------------

 ------------------------------
 CID_19818777_JID_3217_neutraal
 ------------------------------
 Symbolic Z-matrix:
 Charge =  0 Multiplicity = 1

 SCF Done:  E(RB3LYP) =  -972.685495421     A.U. after   14 cycles
 SCF Done:  E(RB3LYP) =  -972.690086440     A.U. after   12 cycles
 SCF Done:  E(RB3LYP) =  -972.689951267     A.U. after   12 cycles
 SCF Done:  E(RB3LYP) =  -972.689767858     A.U. after   13 cycles
 SCF Done:  E(RB3LYP) =  -972.689324789     A.U. after   12 cycles
 SCF Done:  E(RB3LYP) =  -972.690244827     A.U. after   11 cycles
 SCF Done:  E(RB3LYP) =  -972.690443566     A.U. after   12 cycles
 SCF Done:  E(RB3LYP) =  -972.690698690     A.U. after   12 cycles
 SCF Done:  E(RB3LYP) =  -972.690718296     A.U. after   10 cycles
 SCF Done:  E(RB3LYP) =  -972.690734320     A.U. after   10 cycles
 SCF Done:  E(RB3LYP) =  -972.690767467     A.U. after    6 cycles
 SCF Done:  E(RB3LYP) =  -972.690767506     A.U. after    6 cycles
 SCF Done:  E(RB3LYP) =  -972.690767559     A.U. after    7 cycles
 SCF Done:  E(RB3LYP) =  -972.690767599     A.U. after    7 cycles
 SCF Done:  E(RB3LYP) =  -972.690767617     A.U. after    6 cycles
 Optimization completed.
    -- Stationary point found.
 Normal termination of Gaussian 16 at Wed Dec  9 22:36:10 2020.

 --------------------------------------------------------------------
 #N Geom=AllCheck Guess=TCheck SCRF=Check GenChk RB3LYP/6-31G(d) Freq
 --------------------------------------------------------------------

 Structure from the checkpoint file:  "JID_3217.chk"
 ------------------------------
 CID_19818777_JID_3217_neutraal
 ------------------------------
 Charge =  0 Multiplicity = 1

 SCF Done:  E(RB3LYP) =  -972.690767617     A.U. after    1 cycles

  Exact polarizability: 158.023   0.001 112.827   0.952  -0.001  93.435
 Approx polarizability: 186.180   0.001 191.149   8.946  -0.001 145.781

                      1                      2                      3
                      A                      A                      A
 Frequencies --     34.3739                42.9143                43.9366
 Red. masses --      4.2921                 4.6607                 4.5342
 Frc consts  --      0.0030                 0.0051                 0.0052
 IR Inten    --      2.3754                 2.0669                 0.4505

                      4                      5                      6
                      A                      A                      A
 Frequencies --     65.7653                81.5691                86.8238
 Red. masses --      2.3950                 3.5189                 1.9751
 Frc consts  --      0.0061                 0.0138                 0.0088
 IR Inten    --      0.0429                10.5748                 0.3580

                      7                      8                      9
                      A                      A                      A
 Frequencies --    100.7238               102.9184               128.4080
 Red. masses --      1.5123                 1.4884                 1.2853
 Frc consts  --      0.0090                 0.0093                 0.0125
 IR Inten    --      0.3230                 0.6207                 0.1761

                     10                     11                     12
                      A                      A                      A
 Frequencies --    138.2438               142.9704               206.0110
 Red. masses --      1.3210                 2.2741                 3.2071
 Frc consts  --      0.0149                 0.0274                 0.0802
 IR Inten    --      2.6991                 0.1318                 4.7531

                     13                     14                     15
                      A                      A                      A
 Frequencies --    225.4624               269.1361               277.6147
 Red. masses --      2.9762                 4.5261                 4.6302
 Frc consts  --      0.0891                 0.1932                 0.2102
 IR Inten    --      0.2371                17.0020                 0.3793

                     16                     17                     18
                      A                      A                      A
 Frequencies --    352.6024               368.6456               426.2310
 Red. masses --      2.9733                 3.1282                 2.4032
 Frc consts  --      0.2178                 0.2505                 0.2572
 IR Inten    --     27.3104                 0.0202                 0.0739

                     19                     20                     21
                      A                      A                      A
 Frequencies --    433.1088               464.1069               474.5286
 Red. masses --      2.4729                 2.5769                 2.1590
 Frc consts  --      0.2733                 0.3270                 0.2864
 IR Inten    --      2.0699                 5.5505                 5.8167

                     22                     23                     24
                      A                      A                      A
 Frequencies --    572.4227               573.6447               652.0972
 Red. masses --      5.9224                 5.9217                 6.3987
 Frc consts  --      1.1434                 1.1481                 1.6031
 IR Inten    --      4.5122                16.1273                 0.2378

                     25                     26                     27
                      A                      A                      A
 Frequencies --    663.0258               745.8966               751.6111
 Red. masses --      7.3577                 3.5057                 3.5096
 Frc consts  --      1.9057                 1.1492                 1.1681
 IR Inten    --     17.2567                 1.3641                10.8418

                     28                     29                     30
                      A                      A                      A
 Frequencies --    781.4201               786.0937               898.3100
 Red. masses --      5.9764                 6.6448                 1.7144
 Frc consts  --      2.1501                 2.4193                 0.8151
 IR Inten    --      0.1576                 8.2279                 2.1857

                     31                     32                     33
                      A                      A                      A
 Frequencies --    967.8221               996.8618              1001.8099
 Red. masses --      2.2578                 2.6018                 2.3242
 Frc consts  --      1.2460                 1.5233                 1.3743
 IR Inten    --      0.3429                21.4124                 5.9602

                     34                     35                     36
                      A                      A                      A
 Frequencies --   1089.9743              1090.1203              1113.6744
 Red. masses --      1.3825                 1.3780                 1.3196
 Frc consts  --      0.9677                 0.9649                 0.9643
 IR Inten    --      3.6251                 5.5408               212.7538

                     37                     38                     39
                      A                      A                      A
 Frequencies --   1136.5004              1136.7142              1153.4483
 Red. masses --      1.2316                 1.2364                 1.4147
 Frc consts  --      0.9372                 0.9413                 1.1090
 IR Inten    --      2.0934                 0.9470                34.4897

                     40                     41                     42
                      A                      A                      A
 Frequencies --   1185.7040              1185.9759              1234.8150
 Red. masses --      1.3705                 1.3699                 1.8165
 Frc consts  --      1.1352                 1.1352                 1.6319
 IR Inten    --     17.9565                 1.4593                52.5709

                     43                     44                     45
                      A                      A                      A
 Frequencies --   1244.4888              1271.0728              1283.8025
 Red. masses --      1.5932                 1.3112                 1.5741
 Frc consts  --      1.4538                 1.2482                 1.5285
 IR Inten    --      0.0658                 3.0710                 3.5494

                     46                     47                     48
                      A                      A                      A
 Frequencies --   1297.0544              1301.3604              1436.5389
 Red. masses --      4.1350                 2.6625                 2.5178
 Frc consts  --      4.0986                 2.6567                 3.0613
 IR Inten    --     91.8201                 6.2607               255.7361

                     49                     50                     51
                      A                      A                      A
 Frequencies --   1440.5440              1453.5759              1454.0440
 Red. masses --      2.5999                 1.1514                 1.1728
 Frc consts  --      3.1788                 1.4334                 1.4609
 IR Inten    --     30.9685                 2.9600                 7.2370

                     52                     53                     54
                      A                      A                      A
 Frequencies --   1487.5191              1490.6729              1506.4089
 Red. masses --      1.2305                 1.1817                 1.0963
 Frc consts  --      1.6041                 1.5471                 1.4658
 IR Inten    --     64.5470                 0.4008                 1.0326

                     55                     56                     57
                      A                      A                      A
 Frequencies --   1508.5068              1516.8603              1518.1232
 Red. masses --      1.0858                 1.0585                 1.0693
 Frc consts  --      1.4558                 1.4350                 1.4520
 IR Inten    --     22.0509                26.7376                 0.5501

                     58                     59                     60
                      A                      A                      A
 Frequencies --   1526.8002              1527.0469              1534.5940
 Red. masses --      1.0776                 1.0831                 1.0474
 Frc consts  --      1.4800                 1.4880                 1.4533
 IR Inten    --     13.0576                 2.7208                38.1236

                     61                     62                     63
                      A                      A                      A
 Frequencies --   1535.0524              1561.1210              1562.5554
 Red. masses --      1.0504                 1.2106                 1.2124
 Frc consts  --      1.4583                 1.7382                 1.7441
 IR Inten    --      0.1575                79.2797                 7.3965

                     64                     65                     66
                      A                      A                      A
 Frequencies --   1748.7767              1749.7221              3027.0593
 Red. masses --      9.1302                 9.1854                 1.0457
 Frc consts  --     16.4513                16.5686                 5.6456
 IR Inten    --    151.5638               375.1859                53.1638

                     67                     68                     69
                      A                      A                      A
 Frequencies --   3027.1201              3033.6190              3033.8292
 Red. masses --      1.0457                 1.0489                 1.0491
 Frc consts  --      5.6459                 5.6874                 5.6890
 IR Inten    --     10.6877                66.8182                70.7350

                     70                     71                     72
                      A                      A                      A
 Frequencies --   3092.2335              3092.3052              3093.3165
 Red. masses --      1.0948                 1.0949                 1.0966
 Frc consts  --      6.1680                 6.1687                 6.1821
 IR Inten    --    109.5292                 2.4818                36.6630

                     73                     74                     75
                      A                      A                      A
 Frequencies --   3093.3986              3110.2493              3111.7162
 Red. masses --      1.0963                 1.0591                 1.0600
 Frc consts  --      6.1807                 6.0364                 6.0471
 IR Inten    --      0.5354                27.7419                 2.1905

                     76                     77                     78
                      A                      A                      A
 Frequencies --   3169.5480              3170.6116              3183.6345
 Red. masses --      1.1068                 1.1071                 1.0960
 Frc consts  --      6.5514                 6.5571                 6.5452
 IR Inten    --      1.9017                 0.2031                 0.9546

                     79                     80                     81
                      A                      A                      A
 Frequencies --   3183.6646              3196.8510              3196.8548
 Red. masses --      1.0957                 1.0965                 1.0965
 Frc consts  --      6.5431                 6.6025                 6.6025
 IR Inten    --     40.3141                 1.4068                 1.2717

 - Thermochemistry -
 -------------------
 Temperature   298.150 Kelvin.  Pressure   1.00000 Atm.
 Atom     1 has atomic number  6 and mass  12.00000

 Molecular mass:   204.09325 amu.
 Principal axes and moments of inertia in atomic units:
                           1         2         3
     Eigenvalues --  1081.227985576.068396100.44092
           X            1.00000   0.00000  -0.00214
           Y           -0.00000   1.00000  -0.00001
           Z            0.00214   0.00001   1.00000
 This molecule is an asymmetric top.
 Rotational symmetry number  1.
 Warning -- assumption of classical behavior for rotation
           may cause significant error
 Rotational temperatures (Kelvin)      0.08011     0.01553     0.01420
 Rotational constants (GHZ):           1.66916     0.32366     0.29584
 Zero-point vibrational energy     645722.0 (Joules/Mol)
                                  154.33127 (Kcal/Mol)
 Warning -- explicit consideration of  23 degrees of freedom as
           vibrations may cause significant error
 Vibrational temperatures:     49.46    61.74    63.21    94.62   117.36
          (Kelvin)            124.92   144.92   148.08   184.75   198.90
                              205.70   296.40   324.39   387.23   399.43
                              507.32   530.40   613.25   623.15   667.75
                              682.74   823.59   825.35   938.22   953.95
                             1073.18  1081.40  1124.29  1131.01  1292.47
                             1392.48  1434.26  1441.38  1568.23  1568.44
                             1602.33  1635.17  1635.48  1659.55  1705.96
                             1706.35  1776.62  1790.54  1828.79  1847.11
                             1866.17  1872.37  2066.86  2072.62  2091.37
                             2092.04  2140.21  2144.75  2167.39  2170.40
                             2182.42  2184.24  2196.72  2197.08  2207.94
                             2208.60  2246.10  2248.17  2516.10  2517.46
                             4355.26  4355.35  4364.70  4365.00  4449.03
                             4449.14  4450.59  4450.71  4474.95  4477.07
                             4560.27  4561.80  4580.54  4580.58  4599.56
                             4599.56

 Zero-point correction=                           0.245943 (Hartree/Particle)
 Thermal correction to Energy=                    0.262348
 Thermal correction to Enthalpy=                  0.263292
 Thermal correction to Gibbs Free Energy=         0.199942
 Sum of electronic and zero-point Energies=           -972.444825
 Sum of electronic and thermal Energies=              -972.428420
 Sum of electronic and thermal Enthalpies=            -972.427476
 Sum of electronic and thermal Free Energies=         -972.490825

                     E (Thermal)             CV                S
                      KCal/Mol        Cal/Mol-Kelvin    Cal/Mol-Kelvin
 Total                  164.626             55.828            133.331
 Electronic               0.000              0.000              0.000
 Translational            0.889              2.981             41.845
 Rotational               0.889              2.981             31.975
 Vibrational            162.848             49.866             59.511
 Vibration     1          0.594              1.983              5.560
 Vibration     2          0.595              1.980              5.120
 Vibration     3          0.595              1.980              5.073
 Vibration     4          0.597              1.971              4.276
 Vibration     5          0.600              1.962              3.853
 Vibration     6          0.601              1.958              3.730
 Vibration     7          0.604              1.949              3.440
 Vibration     8          0.605              1.947              3.398
 Vibration     9          0.611              1.925              2.970
 Vibration    10          0.614              1.915              2.828
 Vibration    11          0.616              1.910              2.764
 Vibration    12          0.640              1.831              2.079
 Vibration    13          0.650              1.802              1.915
 Vibration    14          0.674              1.730              1.602
 Vibration    15          0.679              1.715              1.548
 Vibration    16          0.729              1.570              1.155
 Vibration    17          0.741              1.537              1.085
 Vibration    18          0.788              1.413              0.871
 Vibration    19          0.794              1.398              0.849
 Vibration    20          0.822              1.330              0.754
 Vibration    21          0.831              1.307              0.725
 Vibration    22          0.929              1.091              0.500
 Vibration    23          0.930              1.088              0.497

 Optimization completed.
    -- Stationary point found.
 Normal termination of Gaussian 16 at Wed Dec  9 22:43:18 2020.

 ----------------------------------------------------------------------
 # B3LYP/6-311++G(d,p) empiricaldispersion=gd3bj scf=xqc pop=npa geom=c
 heck
 ----------------------------------------------------------------------

 --------------------------------------
 CID_19818777_JID_3217_Energie_neutraal
 --------------------------------------
 Structure from the checkpoint file:  "JID_3217.chk"
 Charge =  0 Multiplicity = 1

 SCF Done:  E(RB3LYP) =  -972.887662975     A.U. after   13 cycles
 Normal termination of Gaussian 16 at Wed Dec  9 22:46:40 2020.

 ----------------------------------------------------------------------
 # B3LYP/6-311++G(d,p) empiricaldispersion=gd3bj scf=xqc pop=npa geom=c
 heck
 ----------------------------------------------------------------------

 ------------------------------------
 CID_19818777_JID_3217_Energie_kation
 ------------------------------------
 Structure from the checkpoint file:  "JID_3217.chk"
 Charge =  1 Multiplicity = 2

 SCF Done:  E(UB3LYP) =  -972.589477603     A.U. after   33 cycles
 SCF Done:  E(UB3LYP) =  -972.589477603     a.u. after    1 cycles
 Normal termination of Gaussian 16 at Wed Dec  9 22:58:19 2020.
 Gaussian 16:  ES64L-G16RevA.03 25-Dec-2016

 ----------------------------------------------------------------------
 # B3LYP/6-311++G(d,p) empiricaldispersion=gd3bj scf=xqc pop=npa geom=c
 heck
 ----------------------------------------------------------------------

 -----------------------------------
 CID_19818777_JID_3217_Energie_anion
 -----------------------------------
 Structure from the checkpoint file:  "JID_3217.chk"
 Charge = -1 Multiplicity = 2

                         Standard orientation:
 ---------------------------------------------------------------------
 Center     Atomic      Atomic             Coordinates (Angstroms)
 Number     Number       Type             X           Y           Z
 ---------------------------------------------------------------------
      1          6           0       -4.318963    0.451652    0.702202
      2          7           0       -3.269122   -0.037596   -0.180415
      3          6           0       -3.436203   -1.408601   -0.631551
      4          6           0       -2.086998    0.660781   -0.220955
      5          8           0       -1.928518    1.717902    0.386352
      6          6           0       -0.932539    0.082532   -1.026361
      7         16           0       -0.000036   -1.135255   -0.000226
      8          6           0        0.932399    0.082425    1.026099
      9          6           0        2.086960    0.660689    0.220853
     10          8           0        1.928570    1.717835   -0.386437
     11          7           0        3.269139   -0.037611    0.180602
     12          6           0        3.436168   -1.408619    0.631745
     13          6           0        4.319155    0.451685   -0.701782
     14          1           0       -4.344669   -0.120666    1.640575
     15          1           0       -5.291428    0.352592    0.207250
     16          1           0       -4.120540    1.497097    0.931055
     17          1           0       -2.742797   -1.654542   -1.434328
     18          1           0       -3.279524   -2.123522    0.188518
     19          1           0       -4.454221   -1.538844   -1.014930
     20          1           0       -1.228356   -0.429019   -1.943509
     21          1           0       -0.255485    0.901701   -1.274130
     22          1           0        0.255349    0.901600    1.273866
     23          1           0        1.228108   -0.429210    1.943236
     24          1           0        3.279732   -2.123521   -0.188388
     25          1           0        4.454092   -1.538829    1.015385
     26          1           0        2.742560   -1.654612    1.434331
     27          1           0        4.120738    1.497120   -0.930686
     28          1           0        5.291512    0.352668   -0.206610
     29          1           0        4.345098   -0.120632   -1.640149
 ---------------------------------------------------------------------

 SCF Done:  E(UB3LYP) =  -972.878301442     A.U. after   27 cycles

 The electronic state is 2-A.
 Alpha  occ. eigenvalues --  -88.75779 -18.99127 -18.99127 -14.25213 -14.25213
 Alpha  occ. eigenvalues --  -10.17814 -10.17814 -10.11045 -10.11043 -10.10956
 Alpha  occ. eigenvalues --  -10.10955 -10.10380 -10.10380  -7.84342  -5.80741
 Alpha  occ. eigenvalues --   -5.80394  -5.79670  -0.94511  -0.94408  -0.84355
 Alpha  occ. eigenvalues --   -0.84341  -0.72182  -0.66039  -0.63143  -0.62680
 Alpha  occ. eigenvalues --   -0.60703  -0.58641  -0.53035  -0.45376  -0.45330
 Alpha  occ. eigenvalues --   -0.41748  -0.40655  -0.38904  -0.38813  -0.38386
 Alpha  occ. eigenvalues --   -0.38029  -0.34353  -0.34215  -0.31920  -0.31418
 Alpha  occ. eigenvalues --   -0.31275  -0.31143  -0.31088  -0.30550  -0.29868
 Alpha  occ. eigenvalues --   -0.29380  -0.28696  -0.28293  -0.25730  -0.23105
 Alpha  occ. eigenvalues --   -0.17983  -0.16521  -0.15265  -0.15257  -0.13244
 Alpha  occ. eigenvalues --    0.03872
 Alpha virt. eigenvalues --    0.05337   0.07165   0.07396   0.08054   0.08452
 Alpha virt. eigenvalues --    0.08690   0.09040   0.09545   0.10106   0.11084
 Alpha virt. eigenvalues --    0.11467   0.11781   0.12083   0.12118   0.12368

  Beta  occ. eigenvalues --  -88.75771 -18.99110 -18.99109 -14.25212 -14.25212
  Beta  occ. eigenvalues --  -10.17801 -10.17800 -10.11035 -10.11034 -10.10904
  Beta  occ. eigenvalues --  -10.10904 -10.10353 -10.10353  -7.84330  -5.80733
  Beta  occ. eigenvalues --   -5.80387  -5.79662  -0.94482  -0.94380  -0.84337
  Beta  occ. eigenvalues --   -0.84323  -0.72154  -0.66002  -0.63084  -0.62612
  Beta  occ. eigenvalues --   -0.60644  -0.58594  -0.52990  -0.45321  -0.45277
  Beta  occ. eigenvalues --   -0.41708  -0.40607  -0.38863  -0.38764  -0.38342
  Beta  occ. eigenvalues --   -0.37990  -0.34325  -0.34182  -0.31888  -0.31377
  Beta  occ. eigenvalues --   -0.31227  -0.31095  -0.31043  -0.30519  -0.29830
  Beta  occ. eigenvalues --   -0.29323  -0.28652  -0.28255  -0.25671  -0.23073
  Beta  occ. eigenvalues --   -0.17956  -0.16496  -0.15219  -0.15210  -0.13226
  Beta virt. eigenvalues --    0.06123   0.06503   0.07647   0.07851   0.08506
  Beta virt. eigenvalues --    0.08770   0.09085   0.09443   0.10172   0.10553
  Beta virt. eigenvalues --    0.11341   0.11650   0.12010   0.12195   0.12465

 Mulliken charges and spin densities:
               1          2
     1  C    0.376404  -0.626178
     2  N   -0.111502   0.214460
     3  C    0.989870  -1.385162
     4  C   -0.439319   0.176501
     5  O   -0.329776   0.005561
     6  C   -0.339665  -0.058094
     7  S    0.666125  -0.405669
     8  C   -0.339689  -0.057892
     9  C   -0.439325   0.176400
    10  O   -0.329790   0.005563
    11  N   -0.111530   0.214473
    12  C    0.989970  -1.385268
    13  C    0.376375  -0.626160
    14  H   -0.099113   0.242493
    15  H   -0.120090   0.261507
    16  H    0.098666   0.071946
    17  H   -0.331975   0.475790
    18  H   -0.262612   0.438393
    19  H   -0.475633   0.612129
    20  H   -0.039062   0.267623
    21  H    0.250775   0.005827
    22  H    0.250751   0.005836
    23  H   -0.039105   0.267673
    24  H   -0.262624   0.438401
    25  H   -0.475565   0.612066
    26  H   -0.332035   0.475849
    27  H    0.098669   0.071944
    28  H   -0.120114   0.261529
    29  H   -0.099081   0.242459
 Sum of Mulliken charges =  -1.00000   1.00000

 Dipole moment (field-independent basis, Debye):
    X=             -0.0000    Y=              2.4361    Z=             -0.0007  Tot=              2.4361
 Quadrupole moment (field-independent basis, Debye-Ang):
   XX=           -177.7708   YY=           -135.2068   ZZ=           -115.4596
   XY=             -0.0005   XZ=             -4.9837   YZ=              0.0014

 Summary of Natural Population Analysis:

                                       Natural Population
                Natural  -----------------------------------------------
    Atom  No    Charge         Core      Valence    Rydberg      Total
 -----------------------------------------------------------------------
      C    1   -0.17941      0.99964     2.17161    0.00817     3.17941
      N    2   -0.25323      0.99965     2.74285    0.01073     3.75323
      C    3   -0.17502      0.99963     2.16711    0.00828     3.17502
      C    4    0.33600      0.99962     1.64014    0.02424     2.66400
      O    5   -0.32609      0.99988     3.32101    0.00520     4.32609
      C    6   -0.29136      0.99955     2.28138    0.01042     3.29136
      S    7    0.10478      4.99965     2.87927    0.01630     7.89522
      C    8   -0.29136      0.99955     2.28138    0.01043     3.29136
      C    9    0.33600      0.99962     1.64013    0.02424     2.66400
      O   10   -0.32609      0.99988     3.32101    0.00520     4.32609
      N   11   -0.25323      0.99965     2.74285    0.01072     3.75323
      C   12   -0.17502      0.99963     2.16711    0.00828     3.17502
      C   13   -0.17941      0.99964     2.17161    0.00817     3.17941
      H   14    0.09245      0.00000     0.40638    0.00118     0.40755
      H   15    0.09391      0.00000     0.40509    0.00100     0.40609
      H   16    0.11401      0.00000     0.38496    0.00103     0.38599
      H   17    0.10081      0.00000     0.39762    0.00157     0.39919
      H   18    0.09716      0.00000     0.40052    0.00232     0.40284
      H   19    0.09821      0.00000     0.39985    0.00193     0.40179
      H   20    0.11139      0.00000     0.38749    0.00112     0.38861
      H   21    0.12879      0.00000     0.36961    0.00160     0.37121
      H   22    0.12879      0.00000     0.36961    0.00160     0.37121
      H   23    0.11139      0.00000     0.38749    0.00112     0.38861
      H   24    0.09716      0.00000     0.40053    0.00232     0.40284
      H   25    0.09821      0.00000     0.39985    0.00193     0.40179
      H   26    0.10081      0.00000     0.39762    0.00157     0.39919
      H   27    0.11401      0.00000     0.38496    0.00103     0.38599
      H   28    0.09391      0.00000     0.40509    0.00100     0.40609
      H   29    0.09244      0.00000     0.40638    0.00118     0.40756
 =======================================================================
   * Total *   -0.00000     16.99560    37.83053    0.17387    55.00000

 Normal termination of Gaussian 16 at Wed Dec  9 23:08:05 2020.
