 Gaussian 16, Revision A.03,

 -----------------------------------------------------------
 # opt freq B3LYP/6-31G(d) empiricaldispersion=gd3bj scf=xqc
 -----------------------------------------------------------

 ------------------------------
 CID_62560122_JID_1028_neutraal
 ------------------------------
 Symbolic Z-matrix:
 Charge =  0 Multiplicity = 1

 SCF Done:  E(RB3LYP) =  -896.362549749     A.U. after   13 cycles
 SCF Done:  E(RB3LYP) =  -896.368141822     A.U. after   12 cycles
 SCF Done:  E(RB3LYP) =  -896.369252374     A.U. after   12 cycles
 SCF Done:  E(RB3LYP) =  -896.369032495     A.U. after   12 cycles
 SCF Done:  E(RB3LYP) =  -896.369718466     A.U. after   11 cycles
 SCF Done:  E(RB3LYP) =  -896.369936918     A.U. after   12 cycles
 SCF Done:  E(RB3LYP) =  -896.370154743     A.U. after   12 cycles
 SCF Done:  E(RB3LYP) =  -896.369358386     A.U. after   14 cycles
 SCF Done:  E(RB3LYP) =  -896.370888717     A.U. after   13 cycles
 SCF Done:  E(RB3LYP) =  -896.370899099     A.U. after   14 cycles
 SCF Done:  E(RB3LYP) =  -896.376971759     A.U. after   11 cycles
 SCF Done:  E(RB3LYP) =  -896.376979742     A.U. after   11 cycles
 SCF Done:  E(RB3LYP) =  -896.376980157     A.U. after   11 cycles
 SCF Done:  E(RB3LYP) =  -896.376980992     A.U. after   10 cycles
 SCF Done:  E(RB3LYP) =  -896.376980099     A.U. after   10 cycles
 SCF Done:  E(RB3LYP) =  -896.376981095     A.U. after   10 cycles
 Optimization completed.
    -- Stationary point found.
 Normal termination of Gaussian 16 at Tue Dec  8 19:31:07 2020.

 --------------------------------------------------------------------
 #N Geom=AllCheck Guess=TCheck SCRF=Check GenChk RB3LYP/6-31G(d) Freq
 --------------------------------------------------------------------

 Structure from the checkpoint file:  "JID_1028.chk"
 ------------------------------
 CID_62560122_JID_1028_neutraal
 ------------------------------
 Charge =  0 Multiplicity = 1

 SCF Done:  E(RB3LYP) =  -896.376981095     A.U. after    1 cycles

  Exact polarizability: 113.281  -0.562 100.343   0.517   0.196  87.784
 Approx polarizability: 144.538   5.748 141.409   4.735   0.892 139.493

                      1                      2                      3
                      A                      A                      A
 Frequencies --     14.8804                39.0055                61.1447
 Red. masses --      4.2532                 4.1112                 4.3540
 Frc consts  --      0.0006                 0.0037                 0.0096
 IR Inten    --      4.5119                 1.5225                 0.5331

                      4                      5                      6
                      A                      A                      A
 Frequencies --     97.7471               145.8221               172.4027
 Red. masses --      3.0201                 2.2925                 3.0792
 Frc consts  --      0.0170                 0.0287                 0.0539
 IR Inten    --      1.6385                 1.6313                 5.8038

                      7                      8                      9
                      A                      A                      A
 Frequencies --    181.8130               195.6202               219.7569
 Red. masses --      2.1030                 1.1500                 3.1611
 Frc consts  --      0.0410                 0.0259                 0.0899
 IR Inten    --      1.8648                 0.9839                 4.0308

                     10                     11                     12
                      A                      A                      A
 Frequencies --    251.8527               276.9222               295.0173
 Red. masses --      1.4502                 2.4668                 3.6004
 Frc consts  --      0.0542                 0.1115                 0.1846
 IR Inten    --      1.9008                 0.4873                 1.9215

                     13                     14                     15
                      A                      A                      A
 Frequencies --    340.8257               359.1808               395.1128
 Red. masses --      2.1468                 3.0247                 2.0861
 Frc consts  --      0.1469                 0.2299                 0.1919
 IR Inten    --      7.7829                 3.6348                13.8154

                     16                     17                     18
                      A                      A                      A
 Frequencies --    444.4484               465.5925               526.3254
 Red. masses --      2.8007                 8.4117                 3.1150
 Frc consts  --      0.3260                 1.0743                 0.5084
 IR Inten    --     10.9946                19.1399                14.8846

                     19                     20                     21
                      A                      A                      A
 Frequencies --    571.3811               654.1632               732.7267
 Red. masses --      2.4308                 3.4247                 1.7663
 Frc consts  --      0.4676                 0.8635                 0.5587
 IR Inten    --      4.4515                16.4135               263.1650

                     22                     23                     24
                      A                      A                      A
 Frequencies --    751.1616               812.2025               827.4425
 Red. masses --      2.9386                 1.4990                 1.6359
 Frc consts  --      0.9769                 0.5826                 0.6599
 IR Inten    --     35.2237                 7.5805                49.7341

                     25                     26                     27
                      A                      A                      A
 Frequencies --    858.6686               897.7381               942.4008
 Red. masses --      1.9197                 2.1583                 1.8777
 Frc consts  --      0.8339                 1.0248                 0.9825
 IR Inten    --     21.4711                 7.7711                47.0933

                     28                     29                     30
                      A                      A                      A
 Frequencies --    976.1523               988.3642              1008.7197
 Red. masses --      1.3877                 1.5625                 2.0781
 Frc consts  --      0.7791                 0.8993                 1.2459
 IR Inten    --     13.2238                38.5676                 4.3597

                     31                     32                     33
                      A                      A                      A
 Frequencies --   1022.9566              1058.4098              1100.7681
 Red. masses --      1.7882                 1.6569                 4.0116
 Frc consts  --      1.1025                 1.0936                 2.8639
 IR Inten    --      0.7548                13.5010                44.9316

                     34                     35                     36
                      A                      A                      A
 Frequencies --   1129.2622              1138.5153              1174.8857
 Red. masses --      2.1099                 2.4357                 1.4309
 Frc consts  --      1.5852                 1.8602                 1.1637
 IR Inten    --     28.5443                61.4739                23.9114

                     37                     38                     39
                      A                      A                      A
 Frequencies --   1181.1042              1206.3616              1226.0859
 Red. masses --      1.9038                 1.9803                 1.8807
 Frc consts  --      1.5648                 1.6980                 1.6658
 IR Inten    --     10.1492                16.6746                38.9230

                     40                     41                     42
                      A                      A                      A
 Frequencies --   1245.1813              1308.8697              1316.1196
 Red. masses --      1.2910                 3.6264                 1.7156
 Frc consts  --      1.1793                 3.6603                 1.7508
 IR Inten    --     20.5005               153.3979                49.0726

                     43                     44                     45
                      A                      A                      A
 Frequencies --   1336.0809              1363.2476              1374.6190
 Red. masses --      1.3100                 1.1987                 1.2031
 Frc consts  --      1.3778                 1.3126                 1.3394
 IR Inten    --      0.9780                 7.7535                12.7444

                     46                     47                     48
                      A                      A                      A
 Frequencies --   1398.4499              1412.9263              1422.7340
 Red. masses --      1.2508                 1.2707                 1.3057
 Frc consts  --      1.4413                 1.4946                 1.5572
 IR Inten    --     26.5206                 5.9735                 3.3365

                     49                     50                     51
                      A                      A                      A
 Frequencies --   1475.7896              1481.3683              1483.8401
 Red. masses --      1.0864                 1.1285                 1.0515
 Frc consts  --      1.3941                 1.4591                 1.3641
 IR Inten    --     12.2755                 1.1490                 7.4484

                     52                     53                     54
                      A                      A                      A
 Frequencies --   1484.0534              1499.9960              1506.4408
 Red. masses --      1.0556                 1.1158                 1.0854
 Frc consts  --      1.3698                 1.4792                 1.4512
 IR Inten    --      5.6777                 3.1663                 7.2873

                     55                     56                     57
                      A                      A                      A
 Frequencies --   1507.4917              1525.5455              1533.9919
 Red. masses --      1.2139                 1.0799                 1.1073
 Frc consts  --      1.6253                 1.4808                 1.5352
 IR Inten    --      5.1416                 1.0737                 6.5856

                     58                     59                     60
                      A                      A                      A
 Frequencies --   1548.3396              1558.6197              2962.4948
 Red. masses --      1.1734                 1.0462                 1.0698
 Frc consts  --      1.6574                 1.4974                 5.5317
 IR Inten    --     38.0461                 7.4330                43.3316

                     61                     62                     63
                      A                      A                      A
 Frequencies --   3011.8964              3034.7835              3052.5905
 Red. masses --      1.0436                 1.0656                 1.0844
 Frc consts  --      5.5780                 5.7821                 5.9537
 IR Inten    --     47.3150                34.1167                34.0220

                     64                     65                     66
                      A                      A                      A
 Frequencies --   3056.4937              3073.8508              3081.5500
 Red. masses --      1.0665                 1.0931                 1.0431
 Frc consts  --      5.8703                 6.0850                 5.8360
 IR Inten    --     55.1632                47.9610                 2.2194

                     67                     68                     69
                      A                      A                      A
 Frequencies --   3085.4109              3093.2861              3107.9363
 Red. masses --      1.0440                 1.1015                 1.1024
 Frc consts  --      5.8558                 6.2100                 6.2736
 IR Inten    --      5.1891                40.5697                 9.4958

                     70                     71                     72
                      A                      A                      A
 Frequencies --   3112.1556              3146.9149              3185.0417
 Red. masses --      1.1014                 1.1071                 1.1061
 Frc consts  --      6.2851                 6.4594                 6.6110
 IR Inten    --     34.3504                 7.6161                 0.5237

                     73                     74                     75
                      A                      A                      A
 Frequencies --   3189.0811              3505.7759              3516.3208
 Red. masses --      1.1083                 1.0741                 1.0730
 Frc consts  --      6.6410                 7.7776                 7.8170
 IR Inten    --      1.8118                 0.8923                 5.4058

 - Thermochemistry -
 -------------------
 Temperature   298.150 Kelvin.  Pressure   1.00000 Atm.
 Atom     1 has atomic number  6 and mass  12.00000

 Molecular mass:   180.09325 amu.
 Principal axes and moments of inertia in atomic units:
                           1         2         3
     Eigenvalues --  1125.813313477.192294002.87889
           X            0.99992   0.00635  -0.01082
           Y           -0.00630   0.99997   0.00402
           Z            0.01085  -0.00395   0.99993
 This molecule is an asymmetric top.
 Rotational symmetry number  1.
 Warning -- assumption of classical behavior for rotation
           may cause significant error
 Rotational temperatures (Kelvin)      0.07693     0.02491     0.02164
 Rotational constants (GHZ):           1.60306     0.51902     0.45086
 Zero-point vibrational energy     620516.3 (Joules/Mol)
                                  148.30696 (Kcal/Mol)
 Warning -- explicit consideration of  19 degrees of freedom as
           vibrations may cause significant error
 Vibrational temperatures:     21.41    56.12    87.97   140.64   209.81
          (Kelvin)            248.05   261.59   281.45   316.18   362.36
                              398.43   424.46   490.37   516.78   568.48
                              639.46   669.88   757.26   822.09   941.19
                             1054.23  1080.75  1168.58  1190.51  1235.43
                             1291.64  1355.90  1404.47  1422.04  1451.32
                             1471.81  1522.82  1583.76  1624.76  1638.07
                             1690.40  1699.35  1735.69  1764.06  1791.54
                             1883.17  1893.60  1922.32  1961.41  1977.77
                             2012.06  2032.89  2047.00  2123.33  2131.36
                             2134.92  2135.22  2158.16  2167.43  2168.94
                             2194.92  2207.07  2227.72  2242.51  4262.37
                             4333.45  4366.38  4392.00  4397.61  4422.59
                             4433.66  4439.22  4450.55  4471.63  4477.70
                             4527.71  4582.56  4588.38  5044.03  5059.20

 Zero-point correction=                           0.236342 (Hartree/Particle)
 Thermal correction to Energy=                    0.249821
 Thermal correction to Enthalpy=                  0.250766
 Thermal correction to Gibbs Free Energy=         0.194640
 Sum of electronic and zero-point Energies=           -896.140639
 Sum of electronic and thermal Energies=              -896.127160
 Sum of electronic and thermal Enthalpies=            -896.126216
 Sum of electronic and thermal Free Energies=         -896.182342

                     E (Thermal)             CV                S
                      KCal/Mol        Cal/Mol-Kelvin    Cal/Mol-Kelvin
 Total                  156.765             48.478            118.127
 Electronic               0.000              0.000              0.000
 Translational            0.889              2.981             41.472
 Rotational               0.889              2.981             31.128
 Vibrational            154.988             42.517             45.528
 Vibration     1          0.593              1.986              7.221
 Vibration     2          0.594              1.981              5.309
 Vibration     3          0.597              1.973              4.420
 Vibration     4          0.603              1.951              3.499
 Vibration     5          0.617              1.907              2.726
 Vibration     6          0.626              1.876              2.409
 Vibration     7          0.630              1.864              2.310
 Vibration     8          0.636              1.846              2.174
 Vibration     9          0.647              1.811              1.961
 Vibration    10          0.664              1.760              1.718
 Vibration    11          0.678              1.716              1.553
 Vibration    12          0.689              1.683              1.445
 Vibration    13          0.720              1.594              1.208
 Vibration    14          0.734              1.556              1.126
 Vibration    15          0.762              1.481              0.981
 Vibration    16          0.804              1.373              0.813
 Vibration    17          0.823              1.326              0.750
 Vibration    18          0.881              1.192              0.595
 Vibration    19          0.928              1.093              0.502

                           ! Non-Optimized Parameters !
 Normal termination of Gaussian 16 at Tue Dec  8 19:36:36 2020.

 ----------------------------------------------------------------------
 # B3LYP/6-311++G(d,p) empiricaldispersion=gd3bj scf=xqc pop=npa geom=c
 heck
 ----------------------------------------------------------------------

 --------------------------------------
 CID_62560122_JID_1028_Energie_neutraal
 --------------------------------------
 Structure from the checkpoint file:  "JID_1028.chk"
 Charge =  0 Multiplicity = 1

 SCF Done:  E(RB3LYP) =  -896.558873608     A.U. after   14 cycles
 Normal termination of Gaussian 16 at Tue Dec  8 19:38:48 2020.

 ----------------------------------------------------------------------
 # B3LYP/6-311++G(d,p) empiricaldispersion=gd3bj scf=xqc pop=npa geom=c
 heck
 ----------------------------------------------------------------------

 ------------------------------------
 CID_62560122_JID_1028_Energie_kation
 ------------------------------------
 Structure from the checkpoint file:  "JID_1028.chk"
 Charge =  1 Multiplicity = 2

 SCF Done:  E(UB3LYP) =  -896.266358802     A.U. after   19 cycles
 Normal termination of Gaussian 16 at Tue Dec  8 19:42:47 2020.
 Gaussian 16:  ES64L-G16RevA.03 25-Dec-2016

 ----------------------------------------------------------------------
 # B3LYP/6-311++G(d,p) empiricaldispersion=gd3bj scf=xqc pop=npa geom=c
 heck
 ----------------------------------------------------------------------

 -----------------------------------
 CID_62560122_JID_1028_Energie_anion
 -----------------------------------
 Structure from the checkpoint file:  "JID_1028.chk"
 Charge = -1 Multiplicity = 2

                         Standard orientation:
 ---------------------------------------------------------------------
 Center     Atomic      Atomic             Coordinates (Angstroms)
 Number     Number       Type             X           Y           Z
 ---------------------------------------------------------------------
      1          6           0        2.706119    1.899102    0.057232
      2          7           0        3.300053    0.698090   -0.525386
      3          6           0        3.217138   -0.498472    0.303278
      4          6           0        1.808141   -0.970375    0.700013
      5          7           0        1.005470   -1.232204   -0.491346
      6          6           0       -0.257938   -1.903469   -0.251690
      7          6           0       -1.273743   -1.179310    0.665785
      8         16           0       -1.891413    0.321021   -0.143248
      9          8           0       -0.768922    1.272181   -0.273082
     10          8           0       -2.649526   -0.085120   -1.337580
     11          6           0       -3.053451    1.015944    1.052338
     12          1           0        3.213729    2.117934    1.005021
     13          1           0        1.623890    1.844014    0.252734
     14          1           0        2.884032    2.745048   -0.615196
     15          1           0        2.892720    0.510445   -1.438629
     16          1           0        3.711250   -1.311394   -0.240821
     17          1           0        3.794104   -0.315363    1.220467
     18          1           0        1.899503   -1.908619    1.264005
     19          1           0        1.347664   -0.231218    1.379541
     20          1           0        0.827203   -0.349557   -0.965375
     21          1           0       -0.743553   -2.094998   -1.214351
     22          1           0       -0.055214   -2.878586    0.208059
     23          1           0       -2.146430   -1.811307    0.858580
     24          1           0       -0.824785   -0.876789    1.615686
     25          1           0       -3.866204    0.307167    1.221947
     26          1           0       -2.523943    1.245617    1.979010
     27          1           0       -3.440020    1.933062    0.601967
 ---------------------------------------------------------------------

 SCF Done:  E(UB3LYP) =  -896.552309210     A.U. after   24 cycles

 The electronic state is 2-A.
 Alpha  occ. eigenvalues --  -88.94065 -19.00966 -19.00860 -14.20333 -14.20060
 Alpha  occ. eigenvalues --  -10.10850 -10.10191 -10.09930 -10.09574 -10.09005
 Alpha  occ. eigenvalues --  -10.08671  -8.00574  -5.96838  -5.96726  -5.96662
 Alpha  occ. eigenvalues --   -1.00198  -0.89833  -0.82379  -0.79756  -0.69640
 Alpha  occ. eigenvalues --   -0.65937  -0.62797  -0.57460  -0.54675  -0.50019
 Alpha  occ. eigenvalues --   -0.48003  -0.41508  -0.40551  -0.39400  -0.38101
 Alpha  occ. eigenvalues --   -0.37353  -0.36169  -0.35441  -0.33331  -0.32686
 Alpha  occ. eigenvalues --   -0.31915  -0.31863  -0.30146  -0.29522  -0.28275
 Alpha  occ. eigenvalues --   -0.27001  -0.25693  -0.25442  -0.22944  -0.21743
 Alpha  occ. eigenvalues --   -0.19974  -0.18840  -0.13971  -0.12526   0.04267
 Alpha virt. eigenvalues --    0.07142   0.07628   0.08274   0.09103   0.09769
 Alpha virt. eigenvalues --    0.10081   0.10823   0.11401   0.12077   0.12256
 Alpha virt. eigenvalues --    0.12853   0.13663   0.14045   0.14165   0.15236

  Beta  occ. eigenvalues --  -88.94062 -19.00948 -19.00843 -14.20332 -14.20059
  Beta  occ. eigenvalues --  -10.10832 -10.10131 -10.09848 -10.09569 -10.08981
  Beta  occ. eigenvalues --  -10.08661  -8.00568  -5.96836  -5.96723  -5.96658
  Beta  occ. eigenvalues --   -1.00148  -0.89781  -0.82368  -0.79747  -0.69568
  Beta  occ. eigenvalues --   -0.65866  -0.62747  -0.57421  -0.54624  -0.49974
  Beta  occ. eigenvalues --   -0.47923  -0.41440  -0.40532  -0.39353  -0.38065
  Beta  occ. eigenvalues --   -0.37314  -0.36131  -0.35411  -0.33265  -0.32623
  Beta  occ. eigenvalues --   -0.31867  -0.31823  -0.30114  -0.29468  -0.28249
  Beta  occ. eigenvalues --   -0.26977  -0.25671  -0.25427  -0.22906  -0.21725
  Beta  occ. eigenvalues --   -0.19954  -0.18802  -0.13958  -0.12516
  Beta virt. eigenvalues --    0.06984   0.07936   0.08207   0.08520   0.09374
  Beta virt. eigenvalues --    0.10709   0.10884   0.11168   0.11697   0.12431
  Beta virt. eigenvalues --    0.12701   0.13093   0.13909   0.14338   0.14546

 Mulliken charges and spin densities:
               1          2
     1  C   -0.225555  -0.214439
     2  N   -0.220704   0.022384
     3  C   -0.166666  -0.367082
     4  C    0.222207  -0.518144
     5  N    0.021335   0.029428
     6  C   -0.612523   0.043623
     7  C    0.388975  -0.560159
     8  S    1.129318  -1.111410
     9  O   -0.290593   0.090140
    10  O   -0.197937   0.051091
    11  C    0.708299  -1.217338
    12  H   -0.002696   0.145271
    13  H    0.129257   0.068650
    14  H    0.100878   0.023579
    15  H    0.213688   0.014874
    16  H    0.166839  -0.004650
    17  H    0.008753   0.134978
    18  H   -0.369960   0.523801
    19  H    0.216481  -0.086978
    20  H    0.244405  -0.008291
    21  H    0.131399   0.062823
    22  H   -0.260300   0.445715
    23  H   -0.671474   0.922286
    24  H   -0.344892   0.568036
    25  H   -0.604216   0.819667
    26  H   -0.545892   0.753334
    27  H   -0.168425   0.368812
 Sum of Mulliken charges =  -1.00000   1.00000

 Dipole moment (field-independent basis, Debye):
    X=              5.4498    Y=              1.5588    Z=             -4.2390  Tot=              7.0781
 Quadrupole moment (field-independent basis, Debye-Ang):
   XX=           -141.5555   YY=           -112.5792   ZZ=           -117.0440
   XY=             -4.3553   XZ=              8.0630   YZ=              4.2493

 Summary of Natural Population Analysis:

                                       Natural Population
                Natural  -----------------------------------------------
    Atom  No    Charge         Core      Valence    Rydberg      Total
 -----------------------------------------------------------------------
      C    1   -0.18661      0.99966     2.17957    0.00738     3.18661
      N    2   -0.34031      0.99976     2.83022    0.01033     3.84031
      C    3   -0.08872      0.99963     2.07532    0.01377     3.08872
      C    4   -0.10235      0.99962     2.09069    0.01203     3.10235
      N    5   -0.34775      0.99974     2.83607    0.01194     3.84775
      C    6   -0.09559      0.99963     2.08138    0.01459     3.09559
      C    7   -0.30048      0.99959     2.28700    0.01389     3.30048
      S    8    1.01820      4.99930     1.89128    0.09123     6.98180
      O    9   -0.48102      0.99991     3.47459    0.00653     4.48102
      O   10   -0.47232      0.99991     3.46658    0.00584     4.47232
      C   11   -0.39072      0.99962     2.38120    0.00990     3.39072
      H   12    0.08758      0.00000     0.41129    0.00113     0.41242
      H   13    0.09592      0.00000     0.40215    0.00193     0.40408
      H   14    0.09037      0.00000     0.40867    0.00097     0.40963
      H   15    0.17079      0.00000     0.32689    0.00232     0.32921
      H   16    0.09301      0.00000     0.40576    0.00123     0.40699
      H   17    0.08858      0.00000     0.41043    0.00100     0.41142
      H   18    0.09393      0.00000     0.40451    0.00157     0.40607
      H   19    0.08477      0.00000     0.41321    0.00202     0.41523
      H   20    0.17999      0.00000     0.31604    0.00397     0.32001
      H   21    0.10264      0.00000     0.39602    0.00134     0.39736
      H   22    0.09980      0.00000     0.39884    0.00137     0.40020
      H   23    0.12219      0.00000     0.37369    0.00412     0.37781
      H   24    0.11907      0.00000     0.37613    0.00480     0.38093
      H   25    0.12060      0.00000     0.37549    0.00391     0.37940
      H   26    0.12084      0.00000     0.37524    0.00392     0.37916
      H   27    0.11759      0.00000     0.38136    0.00105     0.38241
 =======================================================================
   * Total *    0.00000     14.99637    33.76959    0.23404    49.00000

 Normal termination of Gaussian 16 at Tue Dec  8 19:47:36 2020.
