 Gaussian 16, Revision A.03,

 -----------------------------------------------------------
 # opt freq B3LYP/6-31G(d) empiricaldispersion=gd3bj scf=xqc
 -----------------------------------------------------------

 ------------------------------
 CID_12408508_JID_2819_neutraal
 ------------------------------
 Symbolic Z-matrix:
 Charge =  0 Multiplicity = 1

 SCF Done:  E(RB3LYP) =  -934.695558317     A.U. after   15 cycles
 SCF Done:  E(RB3LYP) =  -934.703930621     A.U. after   13 cycles
 SCF Done:  E(RB3LYP) =  -934.704712637     A.U. after   12 cycles
 SCF Done:  E(RB3LYP) =  -934.704865471     A.U. after   12 cycles
 SCF Done:  E(RB3LYP) =  -934.704893253     A.U. after   11 cycles
 SCF Done:  E(RB3LYP) =  -934.704943990     A.U. after   10 cycles
 SCF Done:  E(RB3LYP) =  -934.704967609     A.U. after   11 cycles
 SCF Done:  E(RB3LYP) =  -934.704969365     A.U. after    9 cycles
 SCF Done:  E(RB3LYP) =  -934.704969608     A.U. after    8 cycles
 SCF Done:  E(RB3LYP) =  -934.704969638     A.U. after    7 cycles
 Optimization completed.
    -- Stationary point found.
 Normal termination of Gaussian 16 at Wed Dec  9 18:05:53 2020.

 --------------------------------------------------------------------
 #N Geom=AllCheck Guess=TCheck SCRF=Check GenChk RB3LYP/6-31G(d) Freq
 --------------------------------------------------------------------

 Structure from the checkpoint file:  "JID_2819.chk"
 ------------------------------
 CID_12408508_JID_2819_neutraal
 ------------------------------
 Charge =  0 Multiplicity = 1

 SCF Done:  E(RB3LYP) =  -934.704969638     A.U. after    1 cycles

  Exact polarizability: 141.215  18.250 145.701   3.410  -0.037  64.039
 Approx polarizability: 197.573  72.101 302.825   9.121   0.928  95.037

                      1                      2                      3
                      A                      A                      A
 Frequencies --     40.1078                78.8023                99.1440
 Red. masses --      3.6006                 3.5374                 3.3277
 Frc consts  --      0.0034                 0.0129                 0.0193
 IR Inten    --      0.2977                 1.0360                 4.9030

                      4                      5                      6
                      A                      A                      A
 Frequencies --    119.5899               145.6467               181.7995
 Red. masses --      4.9075                 1.6434                 3.3221
 Frc consts  --      0.0414                 0.0205                 0.0647
 IR Inten    --      0.4168                 0.8601                 0.6844

                      7                      8                      9
                      A                      A                      A
 Frequencies --    197.7268               212.7038               262.3309
 Red. masses --      4.1967                 2.3678                 1.1692
 Frc consts  --      0.0967                 0.0631                 0.0474
 IR Inten    --      1.3525                 2.2923                 0.9624

                     10                     11                     12
                      A                      A                      A
 Frequencies --    289.8057               370.0915               379.2601
 Red. masses --      4.4720                 3.7640                 2.6320
 Frc consts  --      0.2213                 0.3037                 0.2231
 IR Inten    --     10.2120                 4.8722                 3.4222

                     13                     14                     15
                      A                      A                      A
 Frequencies --    419.4207               423.4781               452.5100
 Red. masses --      8.7117                 4.0188                 3.9814
 Frc consts  --      0.9029                 0.4246                 0.4803
 IR Inten    --      0.1833                 0.3367                 2.6836

                     16                     17                     18
                      A                      A                      A
 Frequencies --    506.5243               576.2915               631.2453
 Red. masses --      5.2524                 5.1887                 5.6668
 Frc consts  --      0.7940                 1.0153                 1.3304
 IR Inten    --      8.5220                 1.1211                 8.7697

                     19                     20                     21
                      A                      A                      A
 Frequencies --    701.7177               716.8476               755.3685
 Red. masses --      6.7685                 5.3373                 5.5182
 Frc consts  --      1.9637                 1.6160                 1.8551
 IR Inten    --     23.5483                 1.2687                 6.6263

                     22                     23                     24
                      A                      A                      A
 Frequencies --    807.4387               920.0375               934.3089
 Red. masses --      1.4510                 1.2948                 4.6903
 Frc consts  --      0.5574                 0.6457                 2.4123
 IR Inten    --     24.4300                 9.9565                57.7897

                     25                     26                     27
                      A                      A                      A
 Frequencies --    962.2599              1046.7686              1054.0617
 Red. masses --      3.6430                 1.9402                 6.6555
 Frc consts  --      1.9875                 1.2525                 4.3567
 IR Inten    --     34.3047                12.8907                50.4274

                     28                     29                     30
                      A                      A                      A
 Frequencies --   1105.7351              1157.2047              1184.3600
 Red. masses --      3.2562                 3.6129                 2.8746
 Frc consts  --      2.3457                 2.8505                 2.3757
 IR Inten    --     40.5105                77.4264                71.1481

                     31                     32                     33
                      A                      A                      A
 Frequencies --   1186.2329              1192.0483              1220.1931
 Red. masses --      1.2763                 1.2997                 1.5087
 Frc consts  --      1.0581                 1.0881                 1.3235
 IR Inten    --      0.9228                 4.2463                16.0169

                     34                     35                     36
                      A                      A                      A
 Frequencies --   1234.6548              1260.4036              1281.2976
 Red. masses --      1.8923                 2.2836                 4.4619
 Frc consts  --      1.6995                 2.1374                 4.3159
 IR Inten    --     59.4050                82.8457               172.2198

                     37                     38                     39
                      A                      A                      A
 Frequencies --   1316.4005              1326.6626              1391.2902
 Red. masses --      1.5895                 1.6731                 1.7031
 Frc consts  --      1.6229                 1.7349                 1.9424
 IR Inten    --     67.1416               120.7727                48.8984

                     40                     41                     42
                      A                      A                      A
 Frequencies --   1430.3864              1446.0331              1496.9085
 Red. masses --      2.4418                 2.4372                 1.1254
 Frc consts  --      2.9436                 3.0026                 1.4858
 IR Inten    --     32.7500                 6.5944                 1.2024

                     43                     44                     45
                      A                      A                      A
 Frequencies --   1503.1100              1513.8404              1517.3659
 Red. masses --      1.2673                 1.1125                 1.0608
 Frc consts  --      1.6870                 1.5022                 1.4390
 IR Inten    --      2.7610                 7.8464                 1.8765

                     46                     47                     48
                      A                      A                      A
 Frequencies --   1521.7395              1533.0976              1537.8888
 Red. masses --      1.0470                 1.0486                 1.0557
 Frc consts  --      1.4284                 1.4521                 1.4711
 IR Inten    --      7.5006                20.6193                 4.3679

                     49                     50                     51
                      A                      A                      A
 Frequencies --   1628.0181              1685.0496              3001.8152
 Red. masses --      5.9705                 6.4103                 1.0647
 Frc consts  --      9.3235                10.7239                 5.6528
 IR Inten    --     97.6703               235.8494                34.6199

                     52                     53                     54
                      A                      A                      A
 Frequencies --   3015.0556              3022.7709              3074.2261
 Red. masses --      1.0413                 1.0356                 1.1019
 Frc consts  --      5.5773                 5.5753                 6.1356
 IR Inten    --     58.5572                45.8358                46.7990

                     55                     56                     57
                      A                      A                      A
 Frequencies --   3077.6130              3081.6885              3156.1515
 Red. masses --      1.0945                 1.1066                 1.0991
 Frc consts  --      6.1079                 6.1919                 6.4509
 IR Inten    --     14.5934                41.4877                23.3226

                     58                     59                     60
                      A                      A                      A
 Frequencies --   3174.5692              3249.9359              3282.1393
 Red. masses --      1.0990                 1.0912                 1.0926
 Frc consts  --      6.5254                 6.7905                 6.9345
 IR Inten    --     14.6647                 0.9334                 7.3411

 - Thermochemistry -
 -------------------
 Temperature   298.150 Kelvin.  Pressure   1.00000 Atm.
 Atom     1 has atomic number  6 and mass  12.00000

 Molecular mass:   186.03507 amu.
 Principal axes and moments of inertia in atomic units:
                           1         2         3
     Eigenvalues --  1337.464533640.077834723.51842
           X            0.99947  -0.03175  -0.00702
           Y            0.03177   0.99949   0.00280
           Z            0.00693  -0.00302   0.99997
 This molecule is an asymmetric top.
 Rotational symmetry number  1.
 Warning -- assumption of classical behavior for rotation
           may cause significant error
 Rotational temperatures (Kelvin)      0.06476     0.02379     0.01834
 Rotational constants (GHZ):           1.34938     0.49580     0.38208
 Zero-point vibrational energy     455126.3 (Joules/Mol)
                                  108.77780 (Kcal/Mol)
 Warning -- explicit consideration of  17 degrees of freedom as
           vibrations may cause significant error
 Vibrational temperatures:     57.71   113.38   142.65   172.06   209.55
          (Kelvin)            261.57   284.48   306.03   377.44   416.97
                              532.48   545.67   603.45   609.29   651.06
                              728.78   829.15   908.22  1009.62  1031.38
                             1086.81  1161.72  1323.73  1344.26  1384.48
                             1506.07  1516.56  1590.91  1664.96  1704.03
                             1706.72  1715.09  1755.59  1776.39  1813.44
                             1843.50  1894.01  1908.77  2001.76  2058.01
                             2080.52  2153.72  2162.64  2178.08  2183.15
                             2189.44  2205.79  2212.68  2342.35  2424.41
                             4318.94  4337.99  4349.09  4423.13  4428.00
                             4433.86  4541.00  4567.50  4675.93  4722.27

 Zero-point correction=                           0.173348 (Hartree/Particle)
 Thermal correction to Energy=                    0.185359
 Thermal correction to Enthalpy=                  0.186303
 Thermal correction to Gibbs Free Energy=         0.134278
 Sum of electronic and zero-point Energies=           -934.531621
 Sum of electronic and thermal Energies=              -934.519611
 Sum of electronic and thermal Enthalpies=            -934.518666
 Sum of electronic and thermal Free Energies=         -934.570692

                     E (Thermal)             CV                S
                      KCal/Mol        Cal/Mol-Kelvin    Cal/Mol-Kelvin
 Total                  116.315             43.184            109.496
 Electronic               0.000              0.000              0.000
 Translational            0.889              2.981             41.568
 Rotational               0.889              2.981             31.509
 Vibrational            114.537             37.223             36.419
 Vibration     1          0.594              1.981              5.254
 Vibration     2          0.600              1.963              3.920
 Vibration     3          0.604              1.950              3.471
 Vibration     4          0.609              1.933              3.107
 Vibration     5          0.617              1.907              2.728
 Vibration     6          0.630              1.865              2.310
 Vibration     7          0.637              1.843              2.154
 Vibration     8          0.644              1.822              2.020
 Vibration     9          0.670              1.742              1.646
 Vibration    10          0.686              1.693              1.475
 Vibration    11          0.742              1.534              1.079
 Vibration    12          0.749              1.514              1.042
 Vibration    13          0.782              1.428              0.894
 Vibration    14          0.786              1.419              0.880
 Vibration    15          0.811              1.355              0.788
 Vibration    16          0.862              1.236              0.642
 Vibration    17          0.933              1.083              0.492

 Optimization completed.
    -- Stationary point found.
 Normal termination of Gaussian 16 at Wed Dec  9 18:10:44 2020.

 ----------------------------------------------------------------------
 # B3LYP/6-311++G(d,p) empiricaldispersion=gd3bj scf=xqc pop=npa geom=c
 heck
 ----------------------------------------------------------------------

 --------------------------------------
 CID_12408508_JID_2819_Energie_neutraal
 --------------------------------------
 Structure from the checkpoint file:  "JID_2819.chk"
 Charge =  0 Multiplicity = 1

 SCF Done:  E(RB3LYP) =  -934.881983482     A.U. after   15 cycles
 Normal termination of Gaussian 16 at Wed Dec  9 18:13:25 2020.

 ----------------------------------------------------------------------
 # B3LYP/6-311++G(d,p) empiricaldispersion=gd3bj scf=xqc pop=npa geom=c
 heck
 ----------------------------------------------------------------------

 ------------------------------------
 CID_12408508_JID_2819_Energie_kation
 ------------------------------------
 Structure from the checkpoint file:  "JID_2819.chk"
 Charge =  1 Multiplicity = 2

 SCF Done:  E(UB3LYP) =  -934.602040120     A.U. after   22 cycles
 Normal termination of Gaussian 16 at Wed Dec  9 18:17:39 2020.
 Gaussian 16:  ES64L-G16RevA.03 25-Dec-2016

 ----------------------------------------------------------------------
 # B3LYP/6-311++G(d,p) empiricaldispersion=gd3bj scf=xqc pop=npa geom=c
 heck
 ----------------------------------------------------------------------

 -----------------------------------
 CID_12408508_JID_2819_Energie_anion
 -----------------------------------
 Structure from the checkpoint file:  "JID_2819.chk"
 Charge = -1 Multiplicity = 2

                         Standard orientation:
 ---------------------------------------------------------------------
 Center     Atomic      Atomic             Coordinates (Angstroms)
 Number     Number       Type             X           Y           Z
 ---------------------------------------------------------------------
      1          6           0       -3.718800    0.435813    1.069791
      2          8           0       -3.509059    0.168762   -0.309771
      3          6           0       -2.659482   -0.926434   -0.541344
      4          6           0       -1.201453   -0.592901   -0.331866
      5          6           0       -0.660196    0.648125   -0.331304
      6          6           0        0.747594    0.878147   -0.141716
      7         16           0        1.430827    2.395792   -0.116136
      8          6           0        1.521047   -0.352634    0.021169
      9          6           0        0.899975   -1.563146   -0.000837
     10          8           0       -0.446805   -1.703257   -0.164245
     11          8           0        2.849387   -0.197028    0.188830
     12          6           0        3.639976   -1.364660    0.347625
     13          1           0       -4.399765    1.287538    1.122335
     14          1           0       -2.783186    0.690655    1.585012
     15          1           0       -4.178940   -0.428229    1.572174
     16          1           0       -2.917576   -1.789965    0.093062
     17          1           0       -2.816704   -1.228029   -1.584205
     18          1           0       -1.314198    1.498285   -0.478554
     19          1           0        1.379308   -2.523998    0.110730
     20          1           0        3.340233   -1.930184    1.240306
     21          1           0        3.571425   -2.014928   -0.534935
     22          1           0        4.666028   -1.015481    0.464621
 ---------------------------------------------------------------------

 SCF Done:  E(UB3LYP) =  -934.899208531     A.U. after   25 cycles

 The electronic state is 2-A.
 Alpha  occ. eigenvalues --  -88.60175 -19.02981 -19.02387 -19.02255 -10.11202
 Alpha  occ. eigenvalues --  -10.11155 -10.11007 -10.08705 -10.07936 -10.07369
 Alpha  occ. eigenvalues --  -10.02239 -10.01802  -7.68932  -5.65259  -5.64946
 Alpha  occ. eigenvalues --   -5.64479  -0.96185  -0.94135  -0.93570  -0.67114
 Alpha  occ. eigenvalues --   -0.66263  -0.61145  -0.59362  -0.55434  -0.53001
 Alpha  occ. eigenvalues --   -0.48946  -0.43598  -0.41018  -0.38542  -0.37952
 Alpha  occ. eigenvalues --   -0.37447  -0.35614  -0.35322  -0.32743  -0.31741
 Alpha  occ. eigenvalues --   -0.31464  -0.29983  -0.27636  -0.25052  -0.24032
 Alpha  occ. eigenvalues --   -0.22822  -0.21835  -0.20834  -0.17142  -0.16178
 Alpha  occ. eigenvalues --   -0.15860  -0.11038  -0.05579  -0.02507   0.04509
 Alpha virt. eigenvalues --    0.07805   0.08108   0.09752   0.10533   0.11003
 Alpha virt. eigenvalues --    0.11881   0.12651   0.13003   0.13736   0.14128
 Alpha virt. eigenvalues --    0.14666   0.15064   0.16231   0.16332   0.17754

  Beta  occ. eigenvalues --  -88.60045 -19.02597 -19.02381 -19.02288 -10.11198
  Beta  occ. eigenvalues --  -10.11150 -10.11039 -10.08857 -10.07556 -10.07034
  Beta  occ. eigenvalues --  -10.01980 -10.01619  -7.68815  -5.65207  -5.64524
  Beta  occ. eigenvalues --   -5.64405  -0.95560  -0.94164  -0.93521  -0.66565
  Beta  occ. eigenvalues --   -0.65854  -0.61036  -0.59188  -0.54895  -0.52799
  Beta  occ. eigenvalues --   -0.48845  -0.43011  -0.40914  -0.38346  -0.37755
  Beta  occ. eigenvalues --   -0.37313  -0.35340  -0.35290  -0.32479  -0.31615
  Beta  occ. eigenvalues --   -0.30309  -0.29762  -0.27153  -0.24766  -0.23958
  Beta  occ. eigenvalues --   -0.22513  -0.21643  -0.20498  -0.16769  -0.15585
  Beta  occ. eigenvalues --   -0.14524  -0.09621  -0.03507  -0.02223
  Beta virt. eigenvalues --    0.07754   0.08056   0.09725   0.10473   0.10966
  Beta virt. eigenvalues --    0.11098   0.12317   0.12637   0.13065   0.13721
  Beta virt. eigenvalues --    0.14340   0.14638   0.15287   0.16293   0.16329

 Mulliken charges and spin densities:
               1          2
     1  C   -0.258863  -0.027424
     2  O   -0.150038  -0.000164
     3  C   -0.436442  -0.016744
     4  C   -0.511485   0.223408
     5  C    0.897437  -0.137588
     6  C   -0.237738   0.355695
     7  S   -1.171540   0.285969
     8  C    0.306744  -0.080014
     9  C   -0.358698   0.270165
    10  O   -0.084099   0.068369
    11  O   -0.074949  -0.007026
    12  C   -0.248454  -0.009008
    13  H    0.132071   0.007554
    14  H    0.136394   0.018363
    15  H    0.094652   0.000368
    16  H    0.141146  -0.003618
    17  H    0.130598   0.052316
    18  H    0.158429   0.004542
    19  H    0.159797  -0.019232
    20  H    0.116261   0.008168
    21  H    0.116703   0.006290
    22  H    0.142073  -0.000390
 Sum of Mulliken charges =  -1.00000   1.00000

 Dipole moment (field-independent basis, Debye):
    X=             -3.1246    Y=             -7.6744    Z=              1.6265  Tot=              8.4443
 Quadrupole moment (field-independent basis, Debye-Ang):
   XX=            -98.7557   YY=           -107.7158   ZZ=            -86.7442
   XY=            -15.1072   XZ=             -3.3697   YZ=              1.2107

 Summary of Natural Population Analysis:

                                       Natural Population
                Natural  -----------------------------------------------
    Atom  No    Charge         Core      Valence    Rydberg      Total
 -----------------------------------------------------------------------
      C    1   -0.10054      0.99962     2.09259    0.00832     3.10054
      O    2   -0.29612      0.99989     3.28557    0.01067     4.29612
      C    3   -0.02508      0.99955     2.01385    0.01168     3.02508
      C    4    0.22371      0.99942     1.76513    0.01174     2.77629
      C    5   -0.18744      0.99945     2.17776    0.01023     3.18744
      C    6    0.00785      0.99952     1.97812    0.01450     2.99215
      S    7   -0.07510      4.99955     3.05939    0.01616     8.07510
      C    8    0.09065      0.99934     1.89495    0.01506     2.90935
      C    9    0.09541      0.99944     1.89325    0.01190     2.90459
      O   10   -0.22422      0.99984     3.21244    0.01193     4.22422
      O   11   -0.26428      0.99985     3.25351    0.01091     4.26428
      C   12   -0.10025      0.99961     2.09230    0.00833     3.10025
      H   13    0.08565      0.00000     0.41352    0.00083     0.41435
      H   14    0.09008      0.00000     0.40843    0.00149     0.40992
      H   15    0.07162      0.00000     0.42696    0.00142     0.42838
      H   16    0.08007      0.00000     0.41824    0.00169     0.41993
      H   17    0.09517      0.00000     0.40354    0.00130     0.40483
      H   18    0.10976      0.00000     0.38778    0.00246     0.39024
      H   19    0.07976      0.00000     0.41901    0.00123     0.42024
      H   20    0.07774      0.00000     0.42027    0.00199     0.42226
      H   21    0.07787      0.00000     0.42013    0.00199     0.42213
      H   22    0.08765      0.00000     0.41147    0.00088     0.41235
 =======================================================================
   * Total *    0.00000     15.99508    32.84822    0.15671    49.00000

 Normal termination of Gaussian 16 at Wed Dec  9 18:23:05 2020.
