 Gaussian 16, Revision A.03,

 -----------------------------------------------------------
 # opt freq B3LYP/6-31G(d) empiricaldispersion=gd3bj scf=xqc
 -----------------------------------------------------------

 ------------------------------
 CID_12397274_JID_6448_neutraal
 ------------------------------
 Symbolic Z-matrix:
 Charge =  0 Multiplicity = 1

 SCF Done:  E(RB3LYP) =  -729.324306955     A.U. after   14 cycles
 SCF Done:  E(RB3LYP) =  -729.328761979     A.U. after   12 cycles
 SCF Done:  E(RB3LYP) =  -729.328850734     A.U. after   12 cycles
 SCF Done:  E(RB3LYP) =  -729.328784189     A.U. after   12 cycles
 SCF Done:  E(RB3LYP) =  -729.329862561     A.U. after   12 cycles
 SCF Done:  E(RB3LYP) =  -729.330218862     A.U. after   12 cycles
 SCF Done:  E(RB3LYP) =  -729.330328172     A.U. after   11 cycles
 SCF Done:  E(RB3LYP) =  -729.330416813     A.U. after   12 cycles
 SCF Done:  E(RB3LYP) =  -729.330522878     A.U. after   11 cycles
 SCF Done:  E(RB3LYP) =  -729.330517341     A.U. after   10 cycles
 SCF Done:  E(RB3LYP) =  -729.331563571     A.U. after   12 cycles
 SCF Done:  E(RB3LYP) =  -729.331563135     A.U. after   10 cycles
 SCF Done:  E(RB3LYP) =  -729.331563685     A.U. after   10 cycles
 SCF Done:  E(RB3LYP) =  -729.331563678     A.U. after    7 cycles
 SCF Done:  E(RB3LYP) =  -729.331563694     A.U. after    7 cycles
 Optimization completed.
    -- Stationary point found.
 Normal termination of Gaussian 16 at Thu Dec 10 23:47:55 2020.

 --------------------------------------------------------------------
 #N Geom=AllCheck Guess=TCheck SCRF=Check GenChk RB3LYP/6-31G(d) Freq
 --------------------------------------------------------------------

 Structure from the checkpoint file:  "JID_6448.chk"
 ------------------------------
 CID_12397274_JID_6448_neutraal
 ------------------------------
 Charge =  0 Multiplicity = 1

 SCF Done:  E(RB3LYP) =  -729.331563694     A.U. after    1 cycles

  Exact polarizability: 171.005 -14.715 137.249  14.328  12.348 125.591
 Approx polarizability: 226.397 -31.475 213.819  29.787  25.890 198.001

                      1                      2                      3
                      A                      A                      A
 Frequencies --     16.4158                27.7924                35.8150
 Red. masses --      3.4111                 3.6298                 3.8667
 Frc consts  --      0.0005                 0.0017                 0.0029
 IR Inten    --      2.2293                 0.3800                 0.8019

                      4                      5                      6
                      A                      A                      A
 Frequencies --     89.3887               117.6691               127.8446
 Red. masses --      3.2960                 1.8722                 1.4924
 Frc consts  --      0.0155                 0.0153                 0.0144
 IR Inten    --      0.2774                 0.5277                 0.1624

                      7                      8                      9
                      A                      A                      A
 Frequencies --    162.3391               186.7527               198.3317
 Red. masses --      3.6480                 1.9599                 3.8956
 Frc consts  --      0.0566                 0.0403                 0.0903
 IR Inten    --      2.4747                 3.8721                 7.5869

                     10                     11                     12
                      A                      A                      A
 Frequencies --    216.6654               231.9161               267.5579
 Red. masses --      3.4773                 1.3401                 1.0587
 Frc consts  --      0.0962                 0.0425                 0.0447
 IR Inten    --      3.4081                 0.7770                 0.5523

                     13                     14                     15
                      A                      A                      A
 Frequencies --    281.3129               287.6634               317.9667
 Red. masses --      1.0844                 3.2564                 2.9499
 Frc consts  --      0.0506                 0.1588                 0.1757
 IR Inten    --      0.2201                10.2291                 1.6156

                     16                     17                     18
                      A                      A                      A
 Frequencies --    343.4084               347.9348               361.7352
 Red. masses --      2.6412                 2.2775                 2.3525
 Frc consts  --      0.1835                 0.1624                 0.1814
 IR Inten    --      5.5635                 1.1263                25.0005

                     19                     20                     21
                      A                      A                      A
 Frequencies --    367.7893               405.0840               426.5258
 Red. masses --      1.5848                 3.1852                 2.5011
 Frc consts  --      0.1263                 0.3079                 0.2681
 IR Inten    --     72.3581                 1.0395                 1.3361

                     22                     23                     24
                      A                      A                      A
 Frequencies --    457.0925               459.8206               492.4060
 Red. masses --      3.3242                 2.7566                 3.7831
 Frc consts  --      0.4092                 0.3434                 0.5404
 IR Inten    --      1.4640                 1.6489                 2.2298

                     25                     26                     27
                      A                      A                      A
 Frequencies --    496.4656               564.6192               585.7022
 Red. masses --      2.7453                 4.1220                 3.8781
 Frc consts  --      0.3987                 0.7742                 0.7838
 IR Inten    --      0.8828                 4.6851                 2.5076

                     28                     29                     30
                      A                      A                      A
 Frequencies --    591.7875               646.7643               669.8935
 Red. masses --      5.0089                 1.2116                 4.1766
 Frc consts  --      1.0335                 0.2986                 1.1043
 IR Inten    --      2.3499                90.8716                 6.9030

                     31                     32                     33
                      A                      A                      A
 Frequencies --    727.6190               766.0950               783.1740
 Red. masses --      3.5984                 4.1769                 5.1783
 Frc consts  --      1.1224                 1.4444                 1.8713
 IR Inten    --     10.8843                 7.8226                 1.0464

                     34                     35                     36
                      A                      A                      A
 Frequencies --    804.5985               830.1438               862.4463
 Red. masses --      2.3772                 1.4574                 1.6517
 Frc consts  --      0.9067                 0.5917                 0.7239
 IR Inten    --     23.3369                46.9240                24.1565

                     37                     38                     39
                      A                      A                      A
 Frequencies --    908.9762               926.4243               940.8323
 Red. masses --      2.8094                 1.7704                 1.9788
 Frc consts  --      1.3676                 0.8953                 1.0320
 IR Inten    --      5.6013                 0.2878                 1.5745

                     40                     41                     42
                      A                      A                      A
 Frequencies --    949.1821               965.5841               972.3777
 Red. masses --      2.3176                 1.3406                 1.2239
 Frc consts  --      1.2302                 0.7364                 0.6818
 IR Inten    --      5.5965                 1.4753                 0.5651

                     43                     44                     45
                      A                      A                      A
 Frequencies --    979.4868              1010.6968              1033.7572
 Red. masses --      2.2240                 1.6172                 1.7976
 Frc consts  --      1.2571                 0.9733                 1.1318
 IR Inten    --     11.5244                10.9202                24.8474

                     46                     47                     48
                      A                      A                      A
 Frequencies --   1060.1797              1069.0717              1078.3938
 Red. masses --      1.4265                 1.5219                 1.7073
 Frc consts  --      0.9447                 1.0248                 1.1698
 IR Inten    --      3.2214                 1.9421                18.9794

                     49                     50                     51
                      A                      A                      A
 Frequencies --   1104.4833              1130.4082              1142.5956
 Red. masses --      2.6383                 1.7128                 2.6054
 Frc consts  --      1.8962                 1.2896                 2.0041
 IR Inten    --     20.4952                78.1704                96.3308

                     52                     53                     54
                      A                      A                      A
 Frequencies --   1178.0914              1234.7962              1249.9006
 Red. masses --      1.4509                 1.4553                 1.8442
 Frc consts  --      1.1864                 1.3074                 1.6975
 IR Inten    --     54.2801                18.2669                49.9948

                     55                     56                     57
                      A                      A                      A
 Frequencies --   1260.3684              1267.3356              1279.6550
 Red. masses --      2.3915                 1.8476                 2.6208
 Frc consts  --      2.2383                 1.7484                 2.5285
 IR Inten    --      9.4201                92.0182                22.2415

                     58                     59                     60
                      A                      A                      A
 Frequencies --   1287.7728              1308.9276              1324.7433
 Red. masses --      2.1371                 2.6856                 1.7788
 Frc consts  --      2.0881                 2.7110                 1.8393
 IR Inten    --     19.8335                35.4257                 7.9892

                     61                     62                     63
                      A                      A                      A
 Frequencies --   1357.1486              1362.8734              1388.3225
 Red. masses --      3.7982                 1.8038                 1.3657
 Frc consts  --      4.1217                 1.9740                 1.5509
 IR Inten    --     43.2206                92.2057                 2.7983

                     64                     65                     66
                      A                      A                      A
 Frequencies --   1425.5718              1427.6483              1429.6923
 Red. masses --      1.2452                 1.2887                 1.3663
 Frc consts  --      1.4910                 1.5476                 1.6455
 IR Inten    --     11.7584                13.7735                 5.5892

                     67                     68                     69
                      A                      A                      A
 Frequencies --   1453.3673              1457.5137              1468.8742
 Red. masses --      1.2584                 2.2241                 1.3346
 Frc consts  --      1.5661                 2.7837                 1.6965
 IR Inten    --     12.4081                16.8551                86.4667

                     70                     71                     72
                      A                      A                      A
 Frequencies --   1502.3899              1508.1866              1508.5048
 Red. masses --      1.1366                 1.0464                 1.0743
 Frc consts  --      1.5115                 1.4024                 1.4403
 IR Inten    --     10.7212                 6.8130                 2.5034

                     73                     74                     75
                      A                      A                      A
 Frequencies --   1514.7486              1515.6276              1517.1893
 Red. masses --      1.0512                 1.2622                 1.0699
 Frc consts  --      1.4211                 1.7082                 1.4510
 IR Inten    --      0.5441                 7.4532                 4.0312

                     76                     77                     78
                      A                      A                      A
 Frequencies --   1522.2051              1530.2718              1535.0989
 Red. masses --      2.4926                 1.0885                 1.0661
 Frc consts  --      3.4029                 1.5018                 1.4802
 IR Inten    --     94.7817                15.9590                 9.6728

                     79                     80                     81
                      A                      A                      A
 Frequencies --   1546.1250              1549.8676              1647.8216
 Red. masses --      1.1342                 1.0616                 6.6793
 Frc consts  --      1.5975                 1.5024                10.6856
 IR Inten    --     25.0652                 9.0958                 9.4260

                     82                     83                     84
                      A                      A                      A
 Frequencies --   1651.7372              3041.3738              3045.9236
 Red. masses --      6.2776                 1.0372                 1.0372
 Frc consts  --     10.0908                 5.6528                 5.6694
 IR Inten    --     22.3801                14.8687                24.5420

                     85                     86                     87
                      A                      A                      A
 Frequencies --   3050.8252              3052.1544              3057.7935
 Red. masses --      1.0697                 1.0380                 1.0450
 Frc consts  --      5.8660                 5.6974                 5.7570
 IR Inten    --     18.4206                17.3268                16.0407

                     88                     89                     90
                      A                      A                      A
 Frequencies --   3061.3702              3102.4761              3106.8294
 Red. masses --      1.0686                 1.1000                 1.1003
 Frc consts  --      5.9009                 6.2381                 6.2576
 IR Inten    --     36.7081                15.1463                 3.9748

                     91                     92                     93
                      A                      A                      A
 Frequencies --   3112.3737              3118.1662              3122.9663
 Red. masses --      1.1005                 1.1010                 1.1019
 Frc consts  --      6.2809                 6.3072                 6.3316
 IR Inten    --     39.5287                31.0950                40.0719

                     94                     95                     96
                      A                      A                      A
 Frequencies --   3126.5283              3131.6663              3134.5304
 Red. masses --      1.1021                 1.1004                 1.1023
 Frc consts  --      6.3472                 6.3587                 6.3810
 IR Inten    --      8.6108                39.1024                52.0800

                     97                     98                     99
                      A                      A                      A
 Frequencies --   3159.9345              3165.9140              3242.9404
 Red. masses --      1.1012                 1.0904                 1.0918
 Frc consts  --      6.4787                 6.4394                 6.7652
 IR Inten    --      8.2069                25.4186                 0.9554

                    100                    101                    102
                      A                      A                      A
 Frequencies --   3471.5557              3541.7732              3744.4386
 Red. masses --      1.0732                 1.0642                 1.0660
 Frc consts  --      7.6206                 7.8656                 8.8060
 IR Inten    --      0.7154               155.8557                39.2310

 - Thermochemistry -
 -------------------
 Temperature   298.150 Kelvin.  Pressure   1.00000 Atm.
 Atom     1 has atomic number  6 and mass  12.00000

 Molecular mass:   224.15248 amu.
 Principal axes and moments of inertia in atomic units:
                           1         2         3
     Eigenvalues --  2022.072656685.439297275.36503
           X            0.99998   0.00548  -0.00437
           Y           -0.00531   0.99926   0.03820
           Z            0.00457  -0.03818   0.99926
 This molecule is an asymmetric top.
 Rotational symmetry number  1.
 Warning -- assumption of classical behavior for rotation
           may cause significant error
 Rotational temperatures (Kelvin)      0.04283     0.01296     0.01191
 Rotational constants (GHZ):           0.89252     0.26995     0.24806
 Zero-point vibrational energy     823227.5 (Joules/Mol)
                                  196.75610 (Kcal/Mol)
 Warning -- explicit consideration of  28 degrees of freedom as
           vibrations may cause significant error
 Vibrational temperatures:     23.62    39.99    51.53   128.61   169.30
          (Kelvin)            183.94   233.57   268.70   285.36   311.73
                              333.68   384.96   404.75   413.88   457.48
                              494.09   500.60   520.46   529.17   582.83
                              613.68   657.65   661.58   708.46   714.30
                              812.36   842.69   851.45   930.55   963.83
                             1046.88  1102.24  1126.81  1157.64  1194.39
                             1240.87  1307.81  1332.92  1353.65  1365.66
                             1389.26  1399.03  1409.26  1454.17  1487.35
                             1525.36  1538.16  1551.57  1589.11  1626.41
                             1643.94  1695.01  1776.60  1798.33  1813.39
                             1823.41  1841.14  1852.82  1883.25  1906.01
                             1952.63  1960.87  1997.49  2051.08  2054.07
                             2057.01  2091.07  2097.04  2113.38  2161.60
                             2169.94  2170.40  2179.39  2180.65  2182.90
                             2190.11  2201.72  2208.66  2224.53  2229.91
                             2370.85  2376.48  4375.86  4382.40  4389.46
                             4391.37  4399.48  4404.63  4463.77  4470.03
                             4478.01  4486.35  4493.25  4498.38  4505.77
                             4509.89  4546.44  4555.04  4665.87  4994.79
                             5095.82  5387.41

 Zero-point correction=                           0.313551 (Hartree/Particle)
 Thermal correction to Energy=                    0.330741
 Thermal correction to Enthalpy=                  0.331685
 Thermal correction to Gibbs Free Energy=         0.267666
 Sum of electronic and zero-point Energies=           -729.018013
 Sum of electronic and thermal Energies=              -729.000823
 Sum of electronic and thermal Enthalpies=            -728.999878
 Sum of electronic and thermal Free Energies=         -729.063898

                     E (Thermal)             CV                S
                      KCal/Mol        Cal/Mol-Kelvin    Cal/Mol-Kelvin
 Total                  207.543             65.770            134.740
 Electronic               0.000              0.000              0.000
 Translational            0.889              2.981             42.124
 Rotational               0.889              2.981             32.953
 Vibrational            205.766             59.809             59.663
 Vibration     1          0.593              1.986              7.026
 Vibration     2          0.593              1.984              5.981
 Vibration     3          0.594              1.982              5.478
 Vibration     4          0.602              1.957              3.673
 Vibration     5          0.608              1.935              3.138
 Vibration     6          0.611              1.925              2.978
 Vibration     7          0.622              1.889              2.522
 Vibration     8          0.632              1.858              2.260
 Vibration     9          0.637              1.842              2.149
 Vibration    10          0.646              1.816              1.987
 Vibration    11          0.653              1.792              1.864
 Vibration    12          0.673              1.733              1.612
 Vibration    13          0.681              1.708              1.526
 Vibration    14          0.685              1.697              1.488
 Vibration    15          0.704              1.639              1.321
 Vibration    16          0.722              1.589              1.196
 Vibration    17          0.726              1.579              1.176
 Vibration    18          0.736              1.551              1.115
 Vibration    19          0.740              1.538              1.089
 Vibration    20          0.770              1.459              0.944
 Vibration    21          0.788              1.413              0.870
 Vibration    22          0.815              1.345              0.775
 Vibration    23          0.818              1.339              0.767
 Vibration    24          0.848              1.267              0.677
 Vibration    25          0.852              1.258              0.667
 Vibration    26          0.920              1.108              0.515
 Vibration    27          0.943              1.062              0.475
 Vibration    28          0.949              1.049              0.464

 Optimization completed.
    -- Stationary point found.
 Normal termination of Gaussian 16 at Fri Dec 11 00:01:08 2020.

 ----------------------------------------------------------------------
 # B3LYP/6-311++G(d,p) empiricaldispersion=gd3bj scf=xqc pop=npa geom=c
 heck
 ----------------------------------------------------------------------

 --------------------------------------
 CID_12397274_JID_6448_Energie_neutraal
 --------------------------------------
 Structure from the checkpoint file:  "JID_6448.chk"
 Charge =  0 Multiplicity = 1

 SCF Done:  E(RB3LYP) =  -729.552516236     A.U. after   15 cycles
 Normal termination of Gaussian 16 at Fri Dec 11 00:08:02 2020.

 ----------------------------------------------------------------------
 # B3LYP/6-311++G(d,p) empiricaldispersion=gd3bj scf=xqc pop=npa geom=c
 heck
 ----------------------------------------------------------------------

 ------------------------------------
 CID_12397274_JID_6448_Energie_kation
 ------------------------------------
 Structure from the checkpoint file:  "JID_6448.chk"
 Charge =  1 Multiplicity = 2

 SCF Done:  E(UB3LYP) =  -729.258758484     A.U. after   24 cycles
 Normal termination of Gaussian 16 at Fri Dec 11 00:23:45 2020.
 Gaussian 16:  ES64L-G16RevA.03 25-Dec-2016

 ----------------------------------------------------------------------
 # B3LYP/6-311++G(d,p) empiricaldispersion=gd3bj scf=xqc pop=npa geom=c
 heck
 ----------------------------------------------------------------------

 -----------------------------------
 CID_12397274_JID_6448_Energie_anion
 -----------------------------------
 Structure from the checkpoint file:  "JID_6448.chk"
 Charge = -1 Multiplicity = 2

                         Standard orientation:
 ---------------------------------------------------------------------
 Center     Atomic      Atomic             Coordinates (Angstroms)
 Number     Number       Type             X           Y           Z
 ---------------------------------------------------------------------
      1          6           0        3.144459   -2.002383   -1.112848
      2          6           0        2.606042   -0.741976   -0.494338
      3          6           0        3.276711   -0.135678    0.586086
      4          6           0        2.755292    1.028275    1.141168
      5          6           0        1.582647    1.562604    0.608997
      6          6           0        0.976331    0.907769   -0.460343
      7          7           0        1.483090   -0.218599   -0.991629
      8          6           0       -0.307478    1.435507   -1.095498
      9          6           0       -1.379370    0.333446   -1.165387
     10          7           0       -1.848582    0.105605    0.205965
     11          6           0       -3.109914   -0.645125    0.395333
     12          6           0       -3.097224   -2.004213   -0.330169
     13          6           0       -3.250257   -0.867557    1.907644
     14          6           0       -4.286004    0.208841   -0.100029
     15          8           0       -0.830235    2.546254   -0.388904
     16          8           0        4.419366   -0.742829    1.032890
     17          1           0        2.485197   -2.314726   -1.925088
     18          1           0        4.156103   -1.848347   -1.506759
     19          1           0        3.216160   -2.808271   -0.372634
     20          1           0        3.259262    1.512009    1.976597
     21          1           0        1.139589    2.470695    0.998752
     22          1           0       -0.075861    1.770802   -2.114173
     23          1           0       -2.214640    0.706064   -1.763758
     24          1           0       -0.963841   -0.556671   -1.653354
     25          1           0       -1.108207   -0.380936    0.711661
     26          1           0       -2.250500   -2.615135    0.005705
     27          1           0       -4.018117   -2.563982   -0.130567
     28          1           0       -3.012191   -1.876301   -1.414342
     29          1           0       -3.241742    0.090896    2.436784
     30          1           0       -4.184908   -1.388226    2.140299
     31          1           0       -2.423109   -1.478116    2.291991
     32          1           0       -4.271611    1.191324    0.382704
     33          1           0       -4.255113    0.359988   -1.183766
     34          1           0       -5.236013   -0.282752    0.135492
     35          1           0       -1.407049    2.121520    0.282351
     36          1           0        4.784580   -0.223346    1.766184
 ---------------------------------------------------------------------

 SCF Done:  E(UB3LYP) =  -729.544232654     A.U. after   33 cycles
 SCF Done:  E(UB3LYP) =  -729.544232849     a.u. after    2 cycles

 The electronic state is 2-A.
 Alpha  occ. eigenvalues --  -19.05780 -19.02125 -14.21548 -14.21393 -10.14268
 Alpha  occ. eigenvalues --  -10.13118 -10.12545 -10.11830 -10.10791 -10.10226
 Alpha  occ. eigenvalues --  -10.08981 -10.08201 -10.07349 -10.07284 -10.07212
 Alpha  occ. eigenvalues --  -10.07132  -0.96861  -0.93272  -0.85038  -0.82609
 Alpha  occ. eigenvalues --   -0.70832  -0.70517  -0.68866  -0.63089  -0.60907
 Alpha  occ. eigenvalues --   -0.60397  -0.59941  -0.55533  -0.52346  -0.50122
 Alpha  occ. eigenvalues --   -0.47074  -0.44828  -0.41613  -0.41420  -0.39206
 Alpha  occ. eigenvalues --   -0.38990  -0.37961  -0.35440  -0.35241  -0.34598
 Alpha  occ. eigenvalues --   -0.34007  -0.33488  -0.32904  -0.31371  -0.30716
 Alpha  occ. eigenvalues --   -0.29941  -0.29704  -0.29241  -0.28636  -0.28230
 Alpha  occ. eigenvalues --   -0.27380  -0.26963  -0.25922  -0.25520  -0.24502
 Alpha  occ. eigenvalues --   -0.23335  -0.19394  -0.18577  -0.16701  -0.14965
 Alpha  occ. eigenvalues --   -0.13401   0.03856
 Alpha virt. eigenvalues --    0.05211   0.06242   0.07242   0.07399   0.07881
 Alpha virt. eigenvalues --    0.08336   0.08683   0.09187   0.09540   0.10005
 Alpha virt. eigenvalues --    0.10400   0.10879   0.11287   0.11790   0.12569

  Beta  occ. eigenvalues --  -19.05713 -19.02122 -14.21538 -14.21379 -10.14266
  Beta  occ. eigenvalues --  -10.13116 -10.12544 -10.11824 -10.10790 -10.10222
  Beta  occ. eigenvalues --  -10.08942 -10.08199 -10.07339 -10.07261 -10.07186
  Beta  occ. eigenvalues --  -10.07106  -0.96734  -0.93265  -0.85015  -0.82596
  Beta  occ. eigenvalues --   -0.70814  -0.70479  -0.68833  -0.63067  -0.60873
  Beta  occ. eigenvalues --   -0.60353  -0.59902  -0.55464  -0.52304  -0.50095
  Beta  occ. eigenvalues --   -0.47031  -0.44725  -0.41590  -0.41388  -0.39189
  Beta  occ. eigenvalues --   -0.38952  -0.37933  -0.35414  -0.35213  -0.34564
  Beta  occ. eigenvalues --   -0.33978  -0.33460  -0.32874  -0.31330  -0.30686
  Beta  occ. eigenvalues --   -0.29910  -0.29673  -0.29215  -0.28605  -0.28205
  Beta  occ. eigenvalues --   -0.27345  -0.26922  -0.25898  -0.25495  -0.24478
  Beta  occ. eigenvalues --   -0.23318  -0.19381  -0.18533  -0.16673  -0.14949
  Beta  occ. eigenvalues --   -0.13368
  Beta virt. eigenvalues --    0.05785   0.06309   0.07026   0.07398   0.07757
  Beta virt. eigenvalues --    0.08442   0.08555   0.08859   0.09541   0.09565
  Beta virt. eigenvalues --    0.10191   0.10631   0.10983   0.11447   0.11763

 Mulliken charges and spin densities:
               1          2
     1  C    0.686929  -0.941901
     2  C   -0.379299   0.175976
     3  C    1.517331  -1.773544
     4  C   -1.482594   1.215214
     5  C    0.936794  -0.855269
     6  C   -1.141807   1.025308
     7  N    0.124676   0.048848
     8  C    0.688289  -1.261493
     9  C   -0.550533   0.123691
    10  N    0.140433  -0.073362
    11  C   -1.413716   1.332139
    12  C    0.620419  -1.091265
    13  C    0.066746  -0.496666
    14  C    0.348884  -0.826321
    15  O   -0.164608   0.011164
    16  O   -0.243752   0.014388
    17  H    0.097593   0.040097
    18  H    0.070010   0.104267
    19  H    0.063412   0.120725
    20  H   -1.301666   1.508386
    21  H    0.258628  -0.053789
    22  H    0.185054   0.044812
    23  H    0.218978  -0.059769
    24  H    0.215574  -0.040211
    25  H    0.392343  -0.157607
    26  H    0.085285   0.063655
    27  H   -0.268714   0.433477
    28  H   -0.113574   0.263011
    29  H    0.017646   0.139582
    30  H   -0.121342   0.263360
    31  H   -0.187450   0.330620
    32  H    0.102475   0.040286
    33  H   -0.094685   0.230029
    34  H   -0.146274   0.302100
    35  H    0.242752   0.036917
    36  H   -0.470238   0.763144
 Sum of Mulliken charges =  -1.00000   1.00000

 Dipole moment (field-independent basis, Debye):
    X=             -4.0537    Y=              0.1443    Z=             -4.9792  Tot=              6.4223
 Quadrupole moment (field-independent basis, Debye-Ang):
   XX=           -207.3433   YY=           -138.3101   ZZ=           -137.1060
   XY=            -11.0033   XZ=            -19.0404   YZ=             -0.7902

 Summary of Natural Population Analysis:

                                       Natural Population
                Natural  -----------------------------------------------
    Atom  No    Charge         Core      Valence    Rydberg      Total
 -----------------------------------------------------------------------
      C    1   -0.29897      0.99964     2.29422    0.00512     3.29897
      C    2    0.08983      0.99952     1.89604    0.01461     2.91017
      C    3    0.14082      0.99933     1.84623    0.01362     2.85918
      C    4   -0.11141      0.99952     2.10125    0.01064     3.11141
      C    5   -0.11504      0.99950     2.10603    0.00951     3.11504
      C    6    0.07880      0.99951     1.90688    0.01481     2.92120
      N    7   -0.24461      0.99965     2.73460    0.01037     3.74461
      C    8    0.05345      0.99954     1.93261    0.01440     2.94655
      C    9   -0.09867      0.99961     2.09018    0.00888     3.09867
      N   10   -0.36254      0.99971     2.85072    0.01211     3.86254
      C   11    0.05640      0.99960     1.93186    0.01214     2.94360
      C   12   -0.29492      0.99962     2.28847    0.00683     3.29492
      C   13   -0.28598      0.99962     2.27926    0.00711     3.28598
      C   14   -0.28959      0.99961     2.28265    0.00733     3.28959
      O   15   -0.37912      0.99990     3.37319    0.00602     4.37912
      O   16   -0.33960      0.99988     3.33245    0.00727     4.33960
      H   17    0.10594      0.00000     0.39305    0.00101     0.39406
      H   18    0.10638      0.00000     0.39257    0.00105     0.39362
      H   19    0.10760      0.00000     0.39130    0.00110     0.39240
      H   20    0.10770      0.00000     0.38923    0.00308     0.39230
      H   21    0.11417      0.00000     0.38466    0.00117     0.38583
      H   22    0.09096      0.00000     0.40759    0.00146     0.40904
      H   23    0.09481      0.00000     0.40398    0.00121     0.40519
      H   24    0.09861      0.00000     0.39977    0.00162     0.40139
      H   25    0.18034      0.00000     0.31654    0.00312     0.31966
      H   26    0.10106      0.00000     0.39795    0.00099     0.39894
      H   27    0.10266      0.00000     0.39633    0.00101     0.39734
      H   28    0.09989      0.00000     0.39928    0.00083     0.40011
      H   29    0.10320      0.00000     0.39582    0.00098     0.39680
      H   30    0.10193      0.00000     0.39712    0.00095     0.39807
      H   31    0.09986      0.00000     0.39913    0.00101     0.40014
      H   32    0.10262      0.00000     0.39640    0.00098     0.39738
      H   33    0.09852      0.00000     0.40052    0.00096     0.40148
      H   34    0.10231      0.00000     0.39682    0.00087     0.39769
      H   35    0.23873      0.00000     0.25800    0.00326     0.26127
      H   36    0.24386      0.00000     0.22917    0.02697     0.25614
 =======================================================================
   * Total *    0.00000     15.99374    44.79188    0.21437    61.00000

 Normal termination of Gaussian 16 at Fri Dec 11 01:03:03 2020.
