 Gaussian 16, Revision A.03,

 -----------------------------------------------------------
 # opt freq B3LYP/6-31G(d) empiricaldispersion=gd3bj scf=xqc
 -----------------------------------------------------------

 -------------------------------
 CID_81040688_JID_10054_neutraal
 -------------------------------
 Symbolic Z-matrix:
 Charge =  0 Multiplicity = 1

 SCF Done:  E(RB3LYP) =  -1636.49023221     A.U. after   16 cycles
 SCF Done:  E(RB3LYP) =  -1636.51362561     A.U. after   13 cycles
 SCF Done:  E(RB3LYP) =  -1636.51577604     A.U. after   13 cycles
 SCF Done:  E(RB3LYP) =  -1636.50972566     A.U. after   16 cycles
 SCF Done:  E(RB3LYP) =  -1636.51698007     A.U. after   13 cycles
 SCF Done:  E(RB3LYP) =  -1636.51703153     A.U. after   13 cycles
 SCF Done:  E(RB3LYP) =  -1636.51788355     A.U. after   13 cycles
 SCF Done:  E(RB3LYP) =  -1636.51841474     A.U. after   12 cycles
 SCF Done:  E(RB3LYP) =  -1636.51878348     A.U. after   13 cycles
 SCF Done:  E(RB3LYP) =  -1636.51887080     A.U. after   12 cycles
 SCF Done:  E(RB3LYP) =  -1636.51925133     A.U. after   10 cycles
 SCF Done:  E(RB3LYP) =  -1636.51925151     A.U. after    8 cycles
 SCF Done:  E(RB3LYP) =  -1636.51925158     A.U. after    8 cycles
 SCF Done:  E(RB3LYP) =  -1636.51925162     A.U. after    7 cycles
 SCF Done:  E(RB3LYP) =  -1636.51925162     A.U. after    7 cycles
 SCF Done:  E(RB3LYP) =  -1636.51925162     A.U. after    7 cycles
 Optimization completed.
    -- Stationary point found.
 Normal termination of Gaussian 16 at Sun Dec 13 16:57:06 2020.

 --------------------------------------------------------------------
 #N Geom=AllCheck Guess=TCheck SCRF=Check GenChk RB3LYP/6-31G(d) Freq
 --------------------------------------------------------------------

 Structure from the checkpoint file:  "JID_10054.chk"
 -------------------------------
 CID_81040688_JID_10054_neutraal
 -------------------------------
 Charge =  0 Multiplicity = 1

 SCF Done:  E(RB3LYP) =  -1636.51925162     A.U. after    1 cycles

  Exact polarizability: 250.256  40.895 166.135  -0.053  -6.768 164.599
 Approx polarizability: 345.764  87.550 262.091   3.398 -23.403 293.124

                      1                      2                      3
                      A                      A                      A
 Frequencies --     10.0249                13.7826                23.2795
 Red. masses --      5.8553                 3.2826                 5.2940
 Frc consts  --      0.0003                 0.0004                 0.0017
 IR Inten    --      0.2084                 2.5897                 2.7938

                      4                      5                      6
                      A                      A                      A
 Frequencies --     37.7495                43.7033                62.4206
 Red. masses --      5.6547                 6.2241                 4.7753
 Frc consts  --      0.0047                 0.0070                 0.0110
 IR Inten    --      0.2779                 3.4835                 0.9570

                      7                      8                      9
                      A                      A                      A
 Frequencies --     68.7257                83.5610               114.5678
 Red. masses --      4.3774                 5.3865                 6.0416
 Frc consts  --      0.0122                 0.0222                 0.0467
 IR Inten    --      3.4154                 0.5900                 2.2284

                     10                     11                     12
                      A                      A                      A
 Frequencies --    155.8213               180.3420               187.9529
 Red. masses --      5.0723                 4.9174                 4.3469
 Frc consts  --      0.0726                 0.0942                 0.0905
 IR Inten    --      7.3846                 1.7537                12.5873

                     13                     14                     15
                      A                      A                      A
 Frequencies --    200.3445               238.1633               238.6157
 Red. masses --      4.5496                 3.6042                 1.6726
 Frc consts  --      0.1076                 0.1205                 0.0561
 IR Inten    --      0.7456                 0.4490                42.4463

                     16                     17                     18
                      A                      A                      A
 Frequencies --    286.0913               299.5391               308.5159
 Red. masses --      3.8131                 2.3261                 4.6465
 Frc consts  --      0.1839                 0.1230                 0.2606
 IR Inten    --      1.7487                19.0000                 6.1846

                     19                     20                     21
                      A                      A                      A
 Frequencies --    337.9780               365.8827               383.9835
 Red. masses --      2.4759                 4.7314                 6.8013
 Frc consts  --      0.1666                 0.3732                 0.5908
 IR Inten    --      0.9924                 3.8724                 3.4896

                     22                     23                     24
                      A                      A                      A
 Frequencies --    400.8435               412.0512               428.0143
 Red. masses --      5.0813                 6.5710                 5.5407
 Frc consts  --      0.4810                 0.6573                 0.5980
 IR Inten    --     23.9682                 5.3503                 5.8058

                     25                     26                     27
                      A                      A                      A
 Frequencies --    470.7063               485.1674               507.6749
 Red. masses --      4.9167                 4.1453                 3.6643
 Frc consts  --      0.6418                 0.5749                 0.5564
 IR Inten    --      4.4598                 9.5097                 1.9911

                     28                     29                     30
                      A                      A                      A
 Frequencies --    530.2447               540.2791               560.4330
 Red. masses --      3.6850                 5.3695                 4.9917
 Frc consts  --      0.6104                 0.9235                 0.9237
 IR Inten    --      8.3104                15.2808                12.9467

                     31                     32                     33
                      A                      A                      A
 Frequencies --    584.3507               614.1995               619.9676
 Red. masses --      6.2570                 3.6120                 3.6868
 Frc consts  --      1.2588                 0.8028                 0.8349
 IR Inten    --      7.1464                32.0021                18.2832

                     34                     35                     36
                      A                      A                      A
 Frequencies --    642.7738               693.4656               709.2880
 Red. masses --      4.8746                 6.1360                 2.8530
 Frc consts  --      1.1866                 1.7385                 0.8457
 IR Inten    --     28.6546                 4.6034                86.8267

                     37                     38                     39
                      A                      A                      A
 Frequencies --    735.8235               780.4246               796.8978
 Red. masses --      1.6629                 1.4147                 2.9613
 Frc consts  --      0.5305                 0.5077                 1.1080
 IR Inten    --     42.2425               110.8443                31.9850

                     40                     41                     42
                      A                      A                      A
 Frequencies --    845.6499               859.8539               865.9600
 Red. masses --      3.4951                 1.5545                 1.4328
 Frc consts  --      1.4726                 0.6772                 0.6330
 IR Inten    --      7.8041                15.0616                83.9812

                     43                     44                     45
                      A                      A                      A
 Frequencies --    876.9161               882.2150               897.9785
 Red. masses --      1.8907                 2.4941                 2.2113
 Frc consts  --      0.8566                 1.1437                 1.0506
 IR Inten    --     47.3601                15.0830                18.0195

                     46                     47                     48
                      A                      A                      A
 Frequencies --    909.8139               938.4055               969.3870
 Red. masses --      2.2978                 2.4171                 2.3075
 Frc consts  --      1.1206                 1.2541                 1.2776
 IR Inten    --      2.6584                15.9513                 1.9489

                     49                     50                     51
                      A                      A                      A
 Frequencies --   1002.9946              1014.7046              1018.9889
 Red. masses --      1.7953                 2.1957                 2.0469
 Frc consts  --      1.0641                 1.3320                 1.2523
 IR Inten    --      5.9709                27.1097                 5.4359

                     52                     53                     54
                      A                      A                      A
 Frequencies --   1063.5241              1071.3743              1074.9562
 Red. masses --      1.7241                 2.0509                 2.1729
 Frc consts  --      1.1490                 1.3870                 1.4794
 IR Inten    --      6.4995                 6.0590                17.2040

                     55                     56                     57
                      A                      A                      A
 Frequencies --   1096.0371              1118.9839              1148.4741
 Red. masses --      6.8525                 1.9311                 1.7401
 Frc consts  --      4.8501                 1.4246                 1.3522
 IR Inten    --     85.1670                 8.3843                24.8159

                     58                     59                     60
                      A                      A                      A
 Frequencies --   1165.4186              1194.4774              1194.8613
 Red. masses --      2.1305                 1.3031                 1.4986
 Frc consts  --      1.7049                 1.0954                 1.2606
 IR Inten    --     32.0634                 9.1669                 4.1981

                     61                     62                     63
                      A                      A                      A
 Frequencies --   1214.7975              1223.2202              1239.7985
 Red. masses --      1.5133                 1.6354                 2.3378
 Frc consts  --      1.3158                 1.4417                 2.1172
 IR Inten    --     15.2118                14.5240                 4.3431

                     64                     65                     66
                      A                      A                      A
 Frequencies --   1257.0874              1295.7190              1302.7293
 Red. masses --      1.5122                 1.6695                 2.0452
 Frc consts  --      1.4080                 1.6514                 2.0451
 IR Inten    --     14.8805                75.2731               143.1358

                     67                     68                     69
                      A                      A                      A
 Frequencies --   1314.8578              1322.5550              1337.4180
 Red. masses --      1.1808                 2.0110                 1.6680
 Frc consts  --      1.2027                 2.0725                 1.7578
 IR Inten    --      9.7739                32.7885                93.6830

                     70                     71                     72
                      A                      A                      A
 Frequencies --   1352.0905              1373.4772              1387.1597
 Red. masses --      1.3792                 1.3812                 1.3397
 Frc consts  --      1.4855                 1.5351                 1.5189
 IR Inten    --     56.5084                 5.0031                 1.2432

                     73                     74                     75
                      A                      A                      A
 Frequencies --   1411.9035              1437.2133              1438.8323
 Red. masses --      2.1121                 2.2540                 1.4575
 Frc consts  --      2.4807                 2.7431                 1.7778
 IR Inten    --     32.6000                29.6845                65.2763

                     76                     77                     78
                      A                      A                      A
 Frequencies --   1486.6570              1488.6976              1499.5506
 Red. masses --      1.0920                 1.5119                 3.5806
 Frc consts  --      1.4220                 1.9742                 4.7438
 IR Inten    --      7.5997                79.3343                47.4410

                     79                     80                     81
                      A                      A                      A
 Frequencies --   1512.6131              1517.9003              1523.3711
 Red. masses --      1.2730                 1.1019                 1.0809
 Frc consts  --      1.7161                 1.4959                 1.4779
 IR Inten    --     69.1913                28.5338                 0.4384

                     82                     83                     84
                      A                      A                      A
 Frequencies --   1527.4041              1591.7909              1690.0480
 Red. masses --      1.0994                 6.4511                 1.0861
 Frc consts  --      1.5112                 9.6306                 1.8278
 IR Inten    --      3.2480                 4.7314                27.3941

                     85                     86                     87
                      A                      A                      A
 Frequencies --   1782.3846              2345.6860              2945.6456
 Red. masses --      9.0035                11.9211                 1.0736
 Frc consts  --     16.8525                38.6462                 5.4885
 IR Inten    --    304.8369                 0.5354                69.9907

                     88                     89                     90
                      A                      A                      A
 Frequencies --   3048.3284              3049.6906              3074.3269
 Red. masses --      1.0853                 1.0672                 1.0620
 Frc consts  --      5.9421                 5.8479                 5.9141
 IR Inten    --     24.3923                15.6167                16.4616

                     91                     92                     93
                      A                      A                      A
 Frequencies --   3100.1003              3103.0283              3108.2691
 Red. masses --      1.0651                 1.0616                 1.0831
 Frc consts  --      6.0310                 6.0224                 6.1653
 IR Inten    --     11.9050                 2.6517                14.0725

                     94                     95                     96
                      A                      A                      A
 Frequencies --   3118.9304              3125.9023              3146.8778
 Red. masses --      1.0942                 1.1023                 1.1056
 Frc consts  --      6.2715                 6.3459                 6.4508
 IR Inten    --      5.7076                19.6354                13.9681

                     97                     98                     99
                      A                      A                      A
 Frequencies --   3174.6411              3254.1642              3267.3049
 Red. masses --      1.1086                 1.0939                 1.0935
 Frc consts  --      6.5829                 6.8249                 6.8777
 IR Inten    --      1.2883                 1.6592                 1.4630

                    100                    101                    102
                      A                      A                      A
 Frequencies --   3466.0034              3557.6494              3563.5956
 Red. masses --      1.0495                 1.0931                 1.0754
 Frc consts  --      7.4280                 8.1514                 8.0462
 IR Inten    --      5.7708                 1.0327                54.9457

 - Thermochemistry -
 -------------------
 Temperature   298.150 Kelvin.  Pressure   1.00000 Atm.
 Atom     1 has atomic number  6 and mass  12.00000

 Molecular mass:   312.06024 amu.
 Principal axes and moments of inertia in atomic units:
                           1         2         3
     Eigenvalues --  3928.07516********************
           X            0.99987   0.00675  -0.01443
           Y           -0.00649   0.99981   0.01820
           Z            0.01455  -0.01811   0.99973
 This molecule is an asymmetric top.
 Rotational symmetry number  1.
 Warning -- assumption of classical behavior for rotation
           may cause significant error
 Rotational temperatures (Kelvin)      0.02205     0.00630     0.00590
 Rotational constants (GHZ):           0.45945     0.13117     0.12292
 Zero-point vibrational energy     743742.6 (Joules/Mol)
                                  177.75874 (Kcal/Mol)
 Warning -- explicit consideration of  33 degrees of freedom as
           vibrations may cause significant error
 Vibrational temperatures:     14.42    19.83    33.49    54.31    62.88
          (Kelvin)             89.81    98.88   120.23   164.84   224.19
                              259.47   270.42   288.25   342.66   343.31
                              411.62   430.97   443.89   486.27   526.42
                              552.47   576.72   592.85   615.82   677.24
                              698.05   730.43   762.90   777.34   806.34
                              840.75   883.70   892.00   924.81   997.74
                             1020.51  1058.69  1122.86  1146.56  1216.70
                             1237.14  1245.92  1261.69  1269.31  1291.99
                             1309.02  1350.16  1394.73  1443.09  1459.93
                             1466.10  1530.17  1541.47  1546.62  1576.95
                             1609.97  1652.40  1676.78  1718.59  1719.14
                             1747.82  1759.94  1783.79  1808.67  1864.25
                             1874.34  1891.79  1902.86  1924.25  1945.36
                             1976.13  1995.81  2031.41  2067.83  2070.16
                             2138.97  2141.90  2157.52  2176.31  2183.92
                             2191.79  2197.59  2290.23  2431.60  2564.45
                             3374.92  4238.13  4385.86  4387.82  4423.27
                             4460.35  4464.57  4472.11  4487.45  4497.48
                             4527.66  4567.60  4682.02  4700.92  4986.81
                             5118.66  5127.22

 Zero-point correction=                           0.283277 (Hartree/Particle)
 Thermal correction to Energy=                    0.303585
 Thermal correction to Enthalpy=                  0.304529
 Thermal correction to Gibbs Free Energy=         0.229223
 Sum of electronic and zero-point Energies=          -1636.235975
 Sum of electronic and thermal Energies=             -1636.215666
 Sum of electronic and thermal Enthalpies=           -1636.214722
 Sum of electronic and thermal Free Energies=        -1636.290028

                     E (Thermal)             CV                S
                      KCal/Mol        Cal/Mol-Kelvin    Cal/Mol-Kelvin
 Total                  190.503             74.542            158.495
 Electronic               0.000              0.000              0.000
 Translational            0.889              2.981             43.110
 Rotational               0.889              2.981             35.027
 Vibrational            188.725             68.580             80.357
 Vibration     1          0.593              1.987              8.006
 Vibration     2          0.593              1.986              7.374
 Vibration     3          0.593              1.985              6.333
 Vibration     4          0.594              1.982              5.374
 Vibration     5          0.595              1.980              5.084
 Vibration     6          0.597              1.972              4.379
 Vibration     7          0.598              1.969              4.190
 Vibration     8          0.600              1.960              3.805
 Vibration     9          0.608              1.937              3.190
 Vibration    10          0.620              1.896              2.600
 Vibration    11          0.629              1.866              2.325
 Vibration    12          0.633              1.856              2.248
 Vibration    13          0.638              1.839              2.130
 Vibration    14          0.656              1.782              1.817
 Vibration    15          0.657              1.781              1.813
 Vibration    16          0.684              1.700              1.497
 Vibration    17          0.692              1.675              1.419
 Vibration    18          0.698              1.658              1.370
 Vibration    19          0.718              1.600              1.222
 Vibration    20          0.739              1.542              1.097
 Vibration    21          0.753              1.504              1.023
 Vibration    22          0.767              1.468              0.960
 Vibration    23          0.776              1.444              0.919
 Vibration    24          0.790              1.409              0.865
 Vibration    25          0.828              1.315              0.736
 Vibration    26          0.841              1.283              0.696
 Vibration    27          0.863              1.233              0.639
 Vibration    28          0.885              1.183              0.587
 Vibration    29          0.895              1.161              0.565
 Vibration    30          0.916              1.117              0.523
 Vibration    31          0.941              1.065              0.477
 Vibration    32          0.974              1.002              0.426
 Vibration    33          0.980              0.990              0.417

 Optimization completed.
    -- Stationary point found.
 Normal termination of Gaussian 16 at Sun Dec 13 17:15:53 2020.

 ----------------------------------------------------------------------
 # B3LYP/6-311++G(d,p) empiricaldispersion=gd3bj scf=xqc pop=npa geom=c
 heck
 ----------------------------------------------------------------------

 ---------------------------------------
 CID_81040688_JID_10054_Energie_neutraal
 ---------------------------------------
 Structure from the checkpoint file:  "JID_10054.chk"
 Charge =  0 Multiplicity = 1

 SCF Done:  E(RB3LYP) =  -1636.82011607     A.U. after   17 cycles
 Normal termination of Gaussian 16 at Sun Dec 13 17:25:50 2020.

 ----------------------------------------------------------------------
 # B3LYP/6-311++G(d,p) empiricaldispersion=gd3bj scf=xqc pop=npa geom=c
 heck
 ----------------------------------------------------------------------

 -------------------------------------
 CID_81040688_JID_10054_Energie_kation
 -------------------------------------
 Structure from the checkpoint file:  "JID_10054.chk"
 Charge =  1 Multiplicity = 2

 SCF Done:  E(UB3LYP) =  -1636.52175716     A.U. after   32 cycles
 Normal termination of Gaussian 16 at Sun Dec 13 17:53:24 2020.
 Gaussian 16:  ES64L-G16RevA.03 25-Dec-2016

 ----------------------------------------------------------------------
 # B3LYP/6-311++G(d,p) empiricaldispersion=gd3bj scf=xqc pop=npa geom=c
 heck
 ----------------------------------------------------------------------

 ------------------------------------
 CID_81040688_JID_10054_Energie_anion
 ------------------------------------
 Structure from the checkpoint file:  "JID_10054.chk"
 Charge = -1 Multiplicity = 2

                         Standard orientation:
 ---------------------------------------------------------------------
 Center     Atomic      Atomic             Coordinates (Angstroms)
 Number     Number       Type             X           Y           Z
 ---------------------------------------------------------------------
      1          6           0       -3.149680    2.393049    1.399932
      2          6           0       -2.594663    1.040606    1.890366
      3          6           0       -2.133784    0.247619    0.662203
      4         16           0       -3.279260    0.765258   -0.699911
      5          8           0       -4.231160   -0.328569   -0.983492
      6          8           0       -2.491302    1.375046   -1.782381
      7          6           0       -4.120142    2.082801    0.258807
      8          6           0       -2.159089   -1.273128    0.820047
      9          7           0       -1.758462   -1.995954   -0.380576
     10          6           0       -0.531258   -1.883624   -1.003181
     11          8           0       -0.395013   -2.096920   -2.198995
     12          6           0        0.644499   -1.508303   -0.157621
     13          6           0        0.952204   -2.010195    1.084495
     14         16           0        2.450710   -1.391740    1.685049
     15          6           0        2.678280   -0.412980    0.236215
     16          6           0        1.638363   -0.607491   -0.644644
     17          6           0        3.810550    0.413689    0.099113
     18          6           0        4.783625    1.129552   -0.006990
     19          6           0        5.984174    1.954980   -0.132771
     20          7           0        6.801363    1.535503   -1.281591
     21          1           0       -3.650231    2.939672    2.204381
     22          1           0       -2.330942    3.020048    1.029538
     23          1           0       -3.386852    0.485634    2.410026
     24          1           0       -1.768213    1.172668    2.595034
     25          1           0       -1.147341    0.580280    0.326924
     26          1           0       -4.312124    2.913175   -0.422685
     27          1           0       -5.063204    1.660797    0.615791
     28          1           0       -1.516820   -1.539510    1.661878
     29          1           0       -3.173320   -1.597459    1.064886
     30          1           0       -2.506395   -2.125180   -1.055778
     31          1           0        0.404000   -2.748122    1.653902
     32          1           0        1.577421   -0.126264   -1.612480
     33          1           0        5.688900    2.999822   -0.298876
     34          1           0        6.513683    1.936413    0.838060
     35          1           0        7.645167    2.106211   -1.311343
     36          1           0        7.104083    0.572783   -1.143181
 ---------------------------------------------------------------------

 SCF Done:  E(UB3LYP) =  -1636.83164339     A.U. after   32 cycles

 The electronic state is 2-A.
 Alpha  occ. eigenvalues --  -88.95718 -88.75410 -19.03474 -19.03126 -18.97925
 Alpha  occ. eigenvalues --  -14.23418 -14.20813 -10.16482 -10.13604 -10.13234
 Alpha  occ. eigenvalues --  -10.13138 -10.12448 -10.12061 -10.11722 -10.09095
 Alpha  occ. eigenvalues --  -10.07437 -10.06630 -10.06004 -10.05898 -10.05321
 Alpha  occ. eigenvalues --   -8.02304  -7.84054  -5.98562  -5.98440  -5.98390
 Alpha  occ. eigenvalues --   -5.80357  -5.79988  -5.79662  -1.02176  -0.93177
 Alpha  occ. eigenvalues --   -0.92019  -0.82955  -0.79923  -0.77944  -0.76713
 Alpha  occ. eigenvalues --   -0.69635  -0.66894  -0.64438  -0.63310  -0.62209
 Alpha  occ. eigenvalues --   -0.59804  -0.57414  -0.53626  -0.51781  -0.49474
 Alpha  occ. eigenvalues --   -0.47960  -0.44571  -0.43530  -0.42641  -0.41918
 Alpha  occ. eigenvalues --   -0.41481  -0.40725  -0.38093  -0.37198  -0.37103
 Alpha  occ. eigenvalues --   -0.36330  -0.36133  -0.34783  -0.33693  -0.33075
 Alpha  occ. eigenvalues --   -0.32601  -0.31485  -0.30811  -0.30359  -0.29944
 Alpha  occ. eigenvalues --   -0.29566  -0.28613  -0.28323  -0.27841  -0.26608
 Alpha  occ. eigenvalues --   -0.24542  -0.23859  -0.23676  -0.22340  -0.20140
 Alpha  occ. eigenvalues --   -0.19569  -0.16849  -0.16584  -0.15478  -0.15169
 Alpha  occ. eigenvalues --   -0.13837  -0.11234   0.02819
 Alpha virt. eigenvalues --    0.04159   0.05647   0.06778   0.07131   0.07791
 Alpha virt. eigenvalues --    0.08640   0.09009   0.09226   0.09337   0.09988
 Alpha virt. eigenvalues --    0.10251   0.10741   0.10920   0.11723   0.12122

  Beta  occ. eigenvalues --  -88.95717 -88.75349 -19.03472 -19.03123 -18.97862
  Beta  occ. eigenvalues --  -14.23420 -14.20761 -10.16432 -10.13594 -10.13219
  Beta  occ. eigenvalues --  -10.13138 -10.12455 -10.12041 -10.11707 -10.08938
  Beta  occ. eigenvalues --  -10.07053 -10.06660 -10.05952 -10.05887 -10.05213
  Beta  occ. eigenvalues --   -8.02303  -7.83999  -5.98562  -5.98440  -5.98389
  Beta  occ. eigenvalues --   -5.80329  -5.79963  -5.79459  -1.02171  -0.93073
  Beta  occ. eigenvalues --   -0.92014  -0.82922  -0.79814  -0.77921  -0.76411
  Beta  occ. eigenvalues --   -0.69610  -0.66619  -0.64407  -0.63102  -0.61834
  Beta  occ. eigenvalues --   -0.59758  -0.57312  -0.53583  -0.51618  -0.49412
  Beta  occ. eigenvalues --   -0.47422  -0.44519  -0.43458  -0.42604  -0.41785
  Beta  occ. eigenvalues --   -0.41405  -0.40650  -0.38068  -0.37142  -0.37071
  Beta  occ. eigenvalues --   -0.36289  -0.36101  -0.34665  -0.33592  -0.32957
  Beta  occ. eigenvalues --   -0.32543  -0.31377  -0.30737  -0.30225  -0.29887
  Beta  occ. eigenvalues --   -0.29394  -0.28503  -0.28243  -0.27490  -0.26044
  Beta  occ. eigenvalues --   -0.24533  -0.23662  -0.23566  -0.22332  -0.20112
  Beta  occ. eigenvalues --   -0.18704  -0.16783  -0.16485  -0.15257  -0.15035
  Beta  occ. eigenvalues --   -0.13220  -0.09992
  Beta virt. eigenvalues --    0.05015   0.05565   0.06862   0.07161   0.07484
  Beta virt. eigenvalues --    0.07959   0.08709   0.09165   0.09414   0.09534
  Beta virt. eigenvalues --    0.10175   0.10259   0.10743   0.11027   0.11803

 Mulliken charges and spin densities:
               1          2
     1  C   -0.223201  -0.020228
     2  C   -0.256554  -0.117307
     3  C   -0.292628  -0.064177
     4  S    0.653328  -0.065812
     5  O   -0.181729   0.002299
     6  O   -0.087809   0.000527
     7  C   -0.402220  -0.375599
     8  C   -0.294394  -0.222472
     9  N   -0.040233  -0.013393
    10  C   -0.577500   0.060392
    11  O   -0.299856   0.024966
    12  C   -0.771571  -0.009388
    13  C    0.546631   0.238584
    14  S   -0.733569   0.119027
    15  C   -0.163970   0.072015
    16  C    0.505823   0.027597
    17  C    0.171374   0.002996
    18  C    0.207471   0.187182
    19  C   -0.309714  -0.237965
    20  N   -0.306798  -0.053237
    21  H   -0.447466   0.667234
    22  H    0.216124  -0.042266
    23  H   -0.094119   0.271637
    24  H    0.157998   0.026473
    25  H    0.323441  -0.004139
    26  H    0.165093   0.062983
    27  H    0.118492   0.093406
    28  H    0.094374   0.026042
    29  H    0.213696   0.010932
    30  H    0.315238  -0.000144
    31  H    0.240501  -0.021140
    32  H    0.195788  -0.003910
    33  H    0.077052   0.086795
    34  H    0.086366   0.042775
    35  H    0.052344   0.159559
    36  H    0.142196   0.067757
 Sum of Mulliken charges =  -1.00000   1.00000

 Dipole moment (field-independent basis, Debye):
    X=             -4.0003    Y=              1.4402    Z=              5.1539  Tot=              6.6813
 Quadrupole moment (field-independent basis, Debye-Ang):
   XX=           -213.7228   YY=           -158.0934   ZZ=           -172.8410
   XY=             -1.0922   XZ=              6.6510   YZ=             -7.2579

 Summary of Natural Population Analysis:

                                       Natural Population
                Natural  -----------------------------------------------
    Atom  No    Charge         Core      Valence    Rydberg      Total
 -----------------------------------------------------------------------
      C    1   -0.20022      0.99963     2.19143    0.00915     3.20022
      C    2   -0.19842      0.99961     2.18870    0.01011     3.19842
      C    3   -0.20377      0.99956     2.19047    0.01374     3.20377
      S    4    1.00655      4.99926     1.89901    0.09519     6.99345
      O    5   -0.47228      0.99991     3.46696    0.00541     4.47228
      O    6   -0.45793      0.99991     3.45252    0.00550     4.45793
      C    7   -0.28700      0.99960     2.27637    0.01103     3.28700
      C    8   -0.09806      0.99958     2.08448    0.01400     3.09806
      N    9   -0.33108      0.99968     2.82063    0.01077     3.83108
      C   10    0.34793      0.99961     1.63083    0.02164     2.65207
      O   11   -0.30501      0.99988     3.29927    0.00586     4.30501
      C   12   -0.11825      0.99943     2.10450    0.01431     3.11825
      C   13   -0.11260      0.99950     2.10395    0.00916     3.11260
      S   14    0.22116      4.99945     2.75761    0.02178     7.77884
      C   15   -0.12276      0.99946     2.10969    0.01360     3.12276
      C   16   -0.08245      0.99946     2.07445    0.00853     3.08245
      C   17    0.00717      0.99927     1.98740    0.00616     2.99283
      C   18   -0.00116      0.99932     1.99373    0.00811     3.00116
      C   19   -0.12644      0.99959     2.11407    0.01279     3.12644
      N   20   -0.41234      0.99977     2.90090    0.01166     3.91234
      H   21    0.11109      0.00000     0.38698    0.00193     0.38891
      H   22    0.10365      0.00000     0.39518    0.00117     0.39635
      H   23    0.10076      0.00000     0.39773    0.00152     0.39924
      H   24    0.11215      0.00000     0.38666    0.00119     0.38785
      H   25    0.12705      0.00000     0.37150    0.00144     0.37295
      H   26    0.11727      0.00000     0.38167    0.00106     0.38273
      H   27    0.11396      0.00000     0.38461    0.00143     0.38604
      H   28    0.10987      0.00000     0.38873    0.00140     0.39013
      H   29    0.10484      0.00000     0.39403    0.00113     0.39516
      H   30    0.19975      0.00000     0.29866    0.00158     0.30025
      H   31    0.10133      0.00000     0.39779    0.00088     0.39867
      H   32    0.11309      0.00000     0.38590    0.00101     0.38691
      H   33    0.10039      0.00000     0.39799    0.00163     0.39961
      H   34    0.08885      0.00000     0.40929    0.00186     0.41115
      H   35    0.16943      0.00000     0.32808    0.00249     0.33057
      H   36    0.17352      0.00000     0.32478    0.00170     0.32648
 =======================================================================
   * Total *    0.00004     27.99149    53.67655    0.33192    81.99996

 Normal termination of Gaussian 16 at Sun Dec 13 18:20:15 2020.
