 Gaussian 16, Revision A.03,

 -----------------------------------------------------------
 # opt freq B3LYP/6-31G(d) empiricaldispersion=gd3bj scf=xqc
 -----------------------------------------------------------

 ------------------------------
 CID_80327641_JID_7105_neutraal
 ------------------------------
 Symbolic Z-matrix:
 Charge =  0 Multiplicity = 1

 SCF Done:  E(RB3LYP) =  -769.790802727     A.U. after   14 cycles
 SCF Done:  E(RB3LYP) =  -769.795509605     A.U. after   12 cycles
 SCF Done:  E(RB3LYP) =  -769.788919412     A.U. after   12 cycles
 SCF Done:  E(RB3LYP) =  -769.785979010     A.U. after   12 cycles
 SCF Done:  E(RB3LYP) =  -769.787987615     A.U. after   12 cycles
 SCF Done:  E(RB3LYP) =  -769.795772463     A.U. after    9 cycles
 SCF Done:  E(RB3LYP) =  -769.797140354     A.U. after   12 cycles
 SCF Done:  E(RB3LYP) =  -769.797201540     A.U. after   11 cycles
 SCF Done:  E(RB3LYP) =  -769.797500626     A.U. after   11 cycles
 SCF Done:  E(RB3LYP) =  -769.797570575     A.U. after   11 cycles
 SCF Done:  E(RB3LYP) =  -769.800788185     A.U. after   11 cycles
 SCF Done:  E(RB3LYP) =  -769.800804663     A.U. after    9 cycles
 SCF Done:  E(RB3LYP) =  -769.800812339     A.U. after    9 cycles
 SCF Done:  E(RB3LYP) =  -769.800816032     A.U. after    9 cycles
 SCF Done:  E(RB3LYP) =  -769.800818179     A.U. after    8 cycles
 SCF Done:  E(RB3LYP) =  -769.800818338     A.U. after    7 cycles
 Optimization completed.
    -- Stationary point found.
 Normal termination of Gaussian 16 at Sun Dec 13 16:57:49 2020.

 --------------------------------------------------------------------
 #N Geom=AllCheck Guess=TCheck SCRF=Check GenChk RB3LYP/6-31G(d) Freq
 --------------------------------------------------------------------

 Structure from the checkpoint file:  "JID_7105.chk"
 ------------------------------
 CID_80327641_JID_7105_neutraal
 ------------------------------
 Charge =  0 Multiplicity = 1

 SCF Done:  E(RB3LYP) =  -769.800818339     A.U. after    1 cycles

  Exact polarizability: 162.726  -4.314 142.937   1.477   5.595 140.947
 Approx polarizability: 208.908  -7.500 199.808   4.371   7.702 224.258

                      1                      2                      3
                      A                      A                      A
 Frequencies --     20.9867                43.9022                58.9292
 Red. masses --      3.9095                 3.6979                 3.7346
 Frc consts  --      0.0010                 0.0042                 0.0076
 IR Inten    --      1.3504                 0.0953                 0.3149

                      4                      5                      6
                      A                      A                      A
 Frequencies --     76.4946                97.0681               101.4492
 Red. masses --      4.0066                 4.7644                 2.8268
 Frc consts  --      0.0138                 0.0264                 0.0171
 IR Inten    --      0.3452                 1.1756                 2.0166

                      7                      8                      9
                      A                      A                      A
 Frequencies --    119.2878               147.4994               174.9180
 Red. masses --      3.4834                 2.8358                 1.7114
 Frc consts  --      0.0292                 0.0363                 0.0309
 IR Inten    --      0.0683                 0.1582                 0.3483

                     10                     11                     12
                      A                      A                      A
 Frequencies --    212.9415               219.4692               240.9685
 Red. masses --      2.3174                 2.5687                 2.6714
 Frc consts  --      0.0619                 0.0729                 0.0914
 IR Inten    --      2.3867                 3.5249                 6.2737

                     13                     14                     15
                      A                      A                      A
 Frequencies --    270.2575               294.3263               295.3256
 Red. masses --      2.3902                 1.4612                 2.1683
 Frc consts  --      0.1029                 0.0746                 0.1114
 IR Inten    --      6.6155                 1.1386                 6.2077

                     16                     17                     18
                      A                      A                      A
 Frequencies --    308.4669               315.9822               345.4957
 Red. masses --      2.3911                 1.6806                 3.1218
 Frc consts  --      0.1340                 0.0989                 0.2196
 IR Inten    --      0.8639                 0.3898                 1.0067

                     19                     20                     21
                      A                      A                      A
 Frequencies --    353.3992               371.8709               413.1387
 Red. masses --      2.5552                 2.7885                 2.1760
 Frc consts  --      0.1880                 0.2272                 0.2188
 IR Inten    --      2.5135                 0.5038                 1.5053

                     22                     23                     24
                      A                      A                      A
 Frequencies --    432.3909               444.3395               490.0670
 Red. masses --      2.1159                 6.6227                 2.6849
 Frc consts  --      0.2331                 0.7704                 0.3799
 IR Inten    --      1.9472                12.6335                 9.2684

                     25                     26                     27
                      A                      A                      A
 Frequencies --    506.6111               550.5297               586.0391
 Red. masses --      2.0390                 2.7917                 2.2045
 Frc consts  --      0.3083                 0.4985                 0.4461
 IR Inten    --     10.5293                 8.1675                58.4407

                     28                     29                     30
                      A                      A                      A
 Frequencies --    660.2456               726.3949               740.2503
 Red. masses --      4.7090                 3.6321                 4.8066
 Frc consts  --      1.2094                 1.1292                 1.5518
 IR Inten    --     14.9472                15.1819                 5.3261

                     31                     32                     33
                      A                      A                      A
 Frequencies --    783.3641               813.4370               821.8846
 Red. masses --      1.2299                 1.9305                 1.7592
 Frc consts  --      0.4447                 0.7526                 0.7001
 IR Inten    --      1.1783                 2.7028                 3.7534

                     34                     35                     36
                      A                      A                      A
 Frequencies --    833.8065               846.3892               858.1124
 Red. masses --      1.8939                 1.8383                 2.5165
 Frc consts  --      0.7758                 0.7759                 1.0918
 IR Inten    --     26.7291                 5.2217                25.3071

                     37                     38                     39
                      A                      A                      A
 Frequencies --    872.3070               917.5938               937.0610
 Red. masses --      1.7939                 1.7222                 2.4035
 Frc consts  --      0.8043                 0.8543                 1.2435
 IR Inten    --      9.5361                 3.3342                13.9458

                     40                     41                     42
                      A                      A                      A
 Frequencies --    945.4516               950.6289               974.3452
 Red. masses --      2.7073                 2.4309                 1.6913
 Frc consts  --      1.4258                 1.2943                 0.9460
 IR Inten    --      0.6046                 1.9934                 3.1796

                     43                     44                     45
                      A                      A                      A
 Frequencies --    987.3840               994.6387              1030.2062
 Red. masses --      2.4051                 2.7262                 2.1409
 Frc consts  --      1.3815                 1.5891                 1.3388
 IR Inten    --      5.8891                19.8951                28.5027

                     46                     47                     48
                      A                      A                      A
 Frequencies --   1041.0672              1055.3931              1060.2049
 Red. masses --      1.7134                 1.4508                 1.4691
 Frc consts  --      1.0941                 0.9521                 0.9729
 IR Inten    --      3.2765                 3.5736                20.4847

                     49                     50                     51
                      A                      A                      A
 Frequencies --   1067.9776              1074.5995              1085.8446
 Red. masses --      2.1911                 1.7961                 1.5328
 Frc consts  --      1.4725                 1.2220                 1.0648
 IR Inten    --      4.2279                 4.7920                 0.9765

                     52                     53                     54
                      A                      A                      A
 Frequencies --   1109.5017              1123.6005              1148.0330
 Red. masses --      2.4304                 2.1703                 1.1238
 Frc consts  --      1.7627                 1.6143                 0.8727
 IR Inten    --     19.1059                68.2332                 1.4344

                     55                     56                     57
                      A                      A                      A
 Frequencies --   1153.4209              1162.8658              1169.1463
 Red. masses --      2.5863                 1.4639                 1.7677
 Frc consts  --      2.0272                 1.1663                 1.4236
 IR Inten    --     80.1651                12.4956                45.7483

                     58                     59                     60
                      A                      A                      A
 Frequencies --   1179.8282              1193.0659              1207.1446
 Red. masses --      1.6671                 2.4205                 1.7761
 Frc consts  --      1.3673                 2.0300                 1.5249
 IR Inten    --      9.2297                 1.9840                25.0698

                     61                     62                     63
                      A                      A                      A
 Frequencies --   1213.9165              1227.6819              1237.1471
 Red. masses --      1.4010                 1.7937                 1.6884
 Frc consts  --      1.2163                 1.5928                 1.5225
 IR Inten    --      0.6144                 4.4570                 1.5626

                     64                     65                     66
                      A                      A                      A
 Frequencies --   1241.3224              1256.9106              1288.3239
 Red. masses --      1.9326                 1.3265                 1.7358
 Frc consts  --      1.7546                 1.2347                 1.6975
 IR Inten    --      2.0836                 1.8320                31.0696

                     67                     68                     69
                      A                      A                      A
 Frequencies --   1304.6914              1316.7706              1324.9522
 Red. masses --      1.4635                 1.3576                 1.5528
 Frc consts  --      1.4678                 1.3869                 1.6061
 IR Inten    --     40.4127                13.1698                38.8478

                     70                     71                     72
                      A                      A                      A
 Frequencies --   1339.5004              1358.4678              1391.2250
 Red. masses --      1.3280                 1.2209                 1.2786
 Frc consts  --      1.4039                 1.3275                 1.4581
 IR Inten    --      0.6291                11.9101                 4.1347

                     73                     74                     75
                      A                      A                      A
 Frequencies --   1403.5541              1407.8318              1431.1738
 Red. masses --      1.3090                 1.4089                 1.3242
 Frc consts  --      1.5193                 1.6453                 1.5980
 IR Inten    --     13.6737                 2.9274                15.8737

                     76                     77                     78
                      A                      A                      A
 Frequencies --   1435.4698              1441.4409              1453.1311
 Red. masses --      1.2612                 1.9222                 1.4049
 Frc consts  --      1.5312                 2.3531                 1.7479
 IR Inten    --      9.4419                68.6342                10.7875

                     79                     80                     81
                      A                      A                      A
 Frequencies --   1456.2380              1488.1078              1494.6131
 Red. masses --      1.4498                 1.1060                 1.0889
 Frc consts  --      1.8114                 1.4430                 1.4331
 IR Inten    --     32.3797                 6.6453                 1.8106

                     82                     83                     84
                      A                      A                      A
 Frequencies --   1502.6282              1517.3677              1520.9886
 Red. masses --      1.1724                 1.1166                 1.0893
 Frc consts  --      1.5596                 1.5147                 1.4847
 IR Inten    --     12.7616                 0.4674                13.9254

                     85                     86                     87
                      A                      A                      A
 Frequencies --   1522.0431              1527.9670              1531.9098
 Red. masses --      1.0589                 1.0530                 1.2790
 Frc consts  --      1.4453                 1.4485                 1.7684
 IR Inten    --     10.8551                 7.5400                 0.8585

                     88                     89                     90
                      A                      A                      A
 Frequencies --   1540.9131              1541.8698              1549.3229
 Red. masses --      1.0782                 1.1288                 1.1178
 Frc consts  --      1.5084                 1.5811                 1.5809
 IR Inten    --      1.9504                 1.1383                22.8047

                     91                     92                     93
                      A                      A                      A
 Frequencies --   1561.5478              1567.8788              1723.1908
 Red. masses --      1.0847                 1.0973                10.3830
 Frc consts  --      1.5584                 1.5892                18.1653
 IR Inten    --      4.0351                 3.9561               205.0183

                     94                     95                     96
                      A                      A                      A
 Frequencies --   2939.1046              2998.6394              3020.3580
 Red. masses --      1.0748                 1.0707                 1.0572
 Frc consts  --      5.4702                 5.6724                 5.6824
 IR Inten    --     84.2795               107.6918                22.4167

                     97                     98                     99
                      A                      A                      A
 Frequencies --   3024.7956              3033.1251              3063.0395
 Red. masses --      1.0659                 1.0684                 1.0582
 Frc consts  --      5.7459                 5.7911                 5.8493
 IR Inten    --     37.6213                75.5664                25.5845

                    100                    101                    102
                      A                      A                      A
 Frequencies --   3071.1331              3083.3038              3088.0428
 Red. masses --      1.0350                 1.0832                 1.0917
 Frc consts  --      5.7515                 6.0671                 6.1338
 IR Inten    --     14.6639                30.3220                28.6620

                    103                    104                    105
                      A                      A                      A
 Frequencies --   3090.9613              3092.1541              3098.0346
 Red. masses --      1.0989                 1.0875                 1.0698
 Frc consts  --      6.1860                 6.1262                 6.0494
 IR Inten    --     50.9795                38.5200                28.5580

                    106                    107                    108
                      A                      A                      A
 Frequencies --   3103.2713              3134.3256              3143.9476
 Red. masses --      1.1070                 1.1040                 1.0548
 Frc consts  --      6.2813                 6.3902                 6.1431
 IR Inten    --     19.7809                26.0191                14.6681

                    109                    110                    111
                      A                      A                      A
 Frequencies --   3144.3443              3154.0959              3157.6510
 Red. masses --      1.1028                 1.0637                 1.1028
 Frc consts  --      6.4237                 6.2345                 6.4782
 IR Inten    --     20.7762                17.4896                21.4237

                    112                    113                    114
                      A                      A                      A
 Frequencies --   3160.3260              3167.7763              3222.2892
 Red. masses --      1.0832                 1.0912                 1.1176
 Frc consts  --      6.3744                 6.4514                 6.8368
 IR Inten    --     13.9450                 3.2446                 7.9441

                    115                    116                    117
                      A                      A                      A
 Frequencies --   3236.1889              3244.3180              3518.3017
 Red. masses --      1.0901                 1.1137                 1.0751
 Frc consts  --      6.7263                 6.9066                 7.8406
 IR Inten    --      5.0483                18.8553                 0.8733

 - Thermochemistry -
 -------------------
 Temperature   298.150 Kelvin.  Pressure   1.00000 Atm.
 Atom     1 has atomic number  6 and mass  12.00000

 Molecular mass:   240.18378 amu.
 Principal axes and moments of inertia in atomic units:
                           1         2         3
     Eigenvalues --  2555.228485650.363506313.76860
           X            0.99995   0.00997  -0.00295
           Y           -0.00983   0.99903   0.04286
           Z            0.00337  -0.04283   0.99908
 This molecule is an asymmetric top.
 Rotational symmetry number  1.
 Warning -- assumption of classical behavior for rotation
           may cause significant error
 Rotational temperatures (Kelvin)      0.03390     0.01533     0.01372
 Rotational constants (GHZ):           0.70629     0.31940     0.28584
 Zero-point vibrational energy     969734.7 (Joules/Mol)
                                  231.77215 (Kcal/Mol)
 Warning -- explicit consideration of  27 degrees of freedom as
           vibrations may cause significant error
 Vibrational temperatures:     30.20    63.17    84.79   110.06   139.66
          (Kelvin)            145.96   171.63   212.22   251.67   306.38
                              315.77   346.70   388.84   423.47   424.91
                              443.82   454.63   497.09   508.46   535.04
                              594.41   622.11   639.31   705.10   728.90
                              792.09   843.18   949.95  1045.12  1065.06
                             1127.09  1170.35  1182.51  1199.66  1217.77
                             1234.63  1255.06  1320.21  1348.22  1360.29
                             1367.74  1401.87  1420.63  1431.06  1482.24
                             1497.86  1518.48  1525.40  1536.58  1546.11
                             1562.29  1596.33  1616.61  1651.76  1659.52
                             1673.10  1682.14  1697.51  1716.56  1736.81
                             1746.56  1766.36  1779.98  1785.99  1808.41
                             1853.61  1877.16  1894.54  1906.31  1927.24
                             1954.53  2001.66  2019.40  2025.56  2059.14
                             2065.32  2073.91  2090.73  2095.20  2141.06
                             2150.41  2161.95  2183.15  2188.36  2189.88
                             2198.40  2204.08  2217.03  2218.41  2229.13
                             2246.72  2255.83  2479.29  4228.72  4314.37
                             4345.62  4352.01  4363.99  4407.03  4418.68
                             4436.19  4443.00  4447.20  4448.92  4457.38
                             4464.92  4509.60  4523.44  4524.01  4538.04
                             4543.16  4547.00  4557.72  4636.16  4656.15
                             4667.85  5062.05

 Zero-point correction=                           0.369352 (Hartree/Particle)
 Thermal correction to Energy=                    0.387106
 Thermal correction to Enthalpy=                  0.388050
 Thermal correction to Gibbs Free Energy=         0.323318
 Sum of electronic and zero-point Energies=           -769.431466
 Sum of electronic and thermal Energies=              -769.413713
 Sum of electronic and thermal Enthalpies=            -769.412769
 Sum of electronic and thermal Free Energies=         -769.477500

                     E (Thermal)             CV                S
                      KCal/Mol        Cal/Mol-Kelvin    Cal/Mol-Kelvin
 Total                  242.912             68.259            136.239
 Electronic               0.000              0.000              0.000
 Translational            0.889              2.981             42.330
 Rotational               0.889              2.981             32.877
 Vibrational            241.135             62.297             61.032
 Vibration     1          0.593              1.986              6.539
 Vibration     2          0.595              1.980              5.075
 Vibration     3          0.596              1.974              4.493
 Vibration     4          0.599              1.965              3.979
 Vibration     5          0.603              1.951              3.512
 Vibration     6          0.604              1.948              3.426
 Vibration     7          0.609              1.933              3.112
 Vibration     8          0.617              1.905              2.704
 Vibration     9          0.627              1.873              2.382
 Vibration    10          0.644              1.821              2.018
 Vibration    11          0.647              1.811              1.963
 Vibration    12          0.658              1.778              1.796
 Vibration    13          0.674              1.728              1.595
 Vibration    14          0.689              1.684              1.449
 Vibration    15          0.690              1.682              1.443
 Vibration    16          0.698              1.658              1.371
 Vibration    17          0.703              1.643              1.331
 Vibration    18          0.724              1.584              1.187
 Vibration    19          0.730              1.568              1.151
 Vibration    20          0.744              1.530              1.072
 Vibration    21          0.777              1.442              0.916
 Vibration    22          0.793              1.400              0.851
 Vibration    23          0.804              1.373              0.813
 Vibration    24          0.846              1.272              0.683
 Vibration    25          0.862              1.235              0.642
 Vibration    26          0.906              1.139              0.543
 Vibration    27          0.943              1.062              0.474

 Optimization completed.
    -- Stationary point found.
 Normal termination of Gaussian 16 at Sun Dec 13 17:18:39 2020.

 ----------------------------------------------------------------------
 # B3LYP/6-311++G(d,p) empiricaldispersion=gd3bj scf=xqc pop=npa geom=c
 heck
 ----------------------------------------------------------------------

 --------------------------------------
 CID_80327641_JID_7105_Energie_neutraal
 --------------------------------------
 Structure from the checkpoint file:  "JID_7105.chk"
 Charge =  0 Multiplicity = 1

 SCF Done:  E(RB3LYP) =  -770.020991036     A.U. after   15 cycles
 Normal termination of Gaussian 16 at Sun Dec 13 17:28:13 2020.

 ----------------------------------------------------------------------
 # B3LYP/6-311++G(d,p) empiricaldispersion=gd3bj scf=xqc pop=npa geom=c
 heck
 ----------------------------------------------------------------------

 ------------------------------------
 CID_80327641_JID_7105_Energie_kation
 ------------------------------------
 Structure from the checkpoint file:  "JID_7105.chk"
 Charge =  1 Multiplicity = 2

 SCF Done:  E(UB3LYP) =  -769.723317214     A.U. after   30 cycles
 Normal termination of Gaussian 16 at Sun Dec 13 17:54:17 2020.
 Gaussian 16:  ES64L-G16RevA.03 25-Dec-2016

 ----------------------------------------------------------------------
 # B3LYP/6-311++G(d,p) empiricaldispersion=gd3bj scf=xqc pop=npa geom=c
 heck
 ----------------------------------------------------------------------

 -----------------------------------
 CID_80327641_JID_7105_Energie_anion
 -----------------------------------
 Structure from the checkpoint file:  "JID_7105.chk"
 Charge = -1 Multiplicity = 2

                         Standard orientation:
 ---------------------------------------------------------------------
 Center     Atomic      Atomic             Coordinates (Angstroms)
 Number     Number       Type             X           Y           Z
 ---------------------------------------------------------------------
      1          6           0       -2.402544    0.133544    2.083381
      2          6           0       -1.912728   -0.083382    0.641346
      3          6           0       -3.034168   -0.824905   -0.166426
      4          6           0       -3.626960    0.239728   -1.115143
      5          7           0       -3.217671    1.504498   -0.501042
      6          6           0       -1.839077    1.306335   -0.053299
      7          6           0       -0.558879   -0.825496    0.709102
      8          8           0       -0.041562   -1.025654    1.807404
      9          7           0        0.089147   -1.248521   -0.434618
     10          6           0       -0.395120   -1.163413   -1.801954
     11          6           0        1.269754   -2.110239   -0.282925
     12          6           0        2.618193   -1.485181   -0.687753
     13          8           0        3.345400   -0.899404    0.374419
     14          6           0        2.851171    0.337673    0.885849
     15          6           0        3.003039    1.496899   -0.070371
     16          6           0        1.907956    1.848969   -1.050800
     17          6           0        2.156717    2.727956    0.147106
     18          1           0       -1.657339    0.669526    2.674646
     19          1           0       -2.591013   -0.822838    2.578930
     20          1           0       -3.329888    0.712812    2.052997
     21          1           0       -2.669118   -1.697359   -0.712641
     22          1           0       -3.793196   -1.186074    0.532149
     23          1           0       -4.718390    0.181151   -1.182366
     24          1           0       -3.230736    0.105038   -2.139107
     25          1           0       -3.306979    2.292620   -1.137418
     26          1           0       -1.543166    2.088869    0.652844
     27          1           0       -1.107214    1.318937   -0.876458
     28          1           0        0.432389   -0.882494   -2.462891
     29          1           0       -0.789123   -2.130494   -2.147327
     30          1           0       -1.170250   -0.413495   -1.913999
     31          1           0        1.326072   -2.423048    0.759485
     32          1           0        1.098353   -2.999069   -0.906537
     33          1           0        3.265810   -2.291270   -1.049376
     34          1           0        2.483340   -0.776502   -1.517144
     35          1           0        1.811505    0.237025    1.219678
     36          1           0        3.459660    0.519035    1.778459
     37          1           0        4.024027    1.662884   -0.408809
     38          1           0        2.192491    2.217870   -2.032505
     39          1           0        1.015946    1.232133   -1.043553
     40          1           0        1.429602    2.700895    0.955385
     41          1           0        2.612056    3.701547   -0.008072
 ---------------------------------------------------------------------

 SCF Done:  E(UB3LYP) =  -770.011887394     A.U. after   32 cycles

 The electronic state is 2-A.
 Alpha  occ. eigenvalues --  -19.02881 -18.99150 -14.25101 -14.20181 -10.17694
 Alpha  occ. eigenvalues --  -10.12364 -10.11987 -10.10642 -10.10455 -10.10197
 Alpha  occ. eigenvalues --  -10.10155 -10.09595 -10.08879 -10.08659 -10.08105
 Alpha  occ. eigenvalues --  -10.07757 -10.06066  -0.94729  -0.93913  -0.84062
 Alpha  occ. eigenvalues --   -0.82696  -0.77283  -0.70255  -0.66621  -0.64103
 Alpha  occ. eigenvalues --   -0.61968  -0.60674  -0.57746  -0.54001  -0.51573
 Alpha  occ. eigenvalues --   -0.50279  -0.49440  -0.47891  -0.45115  -0.43289
 Alpha  occ. eigenvalues --   -0.41813  -0.40154  -0.38965  -0.38730  -0.38062
 Alpha  occ. eigenvalues --   -0.36894  -0.36117  -0.35510  -0.34665  -0.33046
 Alpha  occ. eigenvalues --   -0.32182  -0.31525  -0.31021  -0.29594  -0.28775
 Alpha  occ. eigenvalues --   -0.28357  -0.27946  -0.27757  -0.27645  -0.27295
 Alpha  occ. eigenvalues --   -0.27031  -0.25622  -0.23618  -0.23482  -0.23067
 Alpha  occ. eigenvalues --   -0.20754  -0.19938  -0.17391  -0.16173  -0.14716
 Alpha  occ. eigenvalues --   -0.13350   0.04058
 Alpha virt. eigenvalues --    0.06412   0.06604   0.07408   0.08280   0.08427
 Alpha virt. eigenvalues --    0.08716   0.09231   0.09695   0.10319   0.10624
 Alpha virt. eigenvalues --    0.10902   0.11084   0.11165   0.12215   0.12632

  Beta  occ. eigenvalues --  -19.02880 -18.99140 -14.25099 -14.20158 -10.17686
  Beta  occ. eigenvalues --  -10.12352 -10.11986 -10.10630 -10.10402 -10.10198
  Beta  occ. eigenvalues --  -10.10145 -10.09562 -10.08876 -10.08653 -10.08087
  Beta  occ. eigenvalues --  -10.07742 -10.06062  -0.94714  -0.93907  -0.84045
  Beta  occ. eigenvalues --   -0.82664  -0.77271  -0.70233  -0.66600  -0.64061
  Beta  occ. eigenvalues --   -0.61912  -0.60647  -0.57724  -0.53976  -0.51540
  Beta  occ. eigenvalues --   -0.50202  -0.49416  -0.47873  -0.45072  -0.43233
  Beta  occ. eigenvalues --   -0.41787  -0.40125  -0.38934  -0.38713  -0.38033
  Beta  occ. eigenvalues --   -0.36866  -0.36098  -0.35477  -0.34640  -0.33007
  Beta  occ. eigenvalues --   -0.32157  -0.31491  -0.30981  -0.29569  -0.28751
  Beta  occ. eigenvalues --   -0.28335  -0.27928  -0.27741  -0.27613  -0.27276
  Beta  occ. eigenvalues --   -0.26998  -0.25600  -0.23600  -0.23466  -0.23048
  Beta  occ. eigenvalues --   -0.20745  -0.19925  -0.17377  -0.16154  -0.14694
  Beta  occ. eigenvalues --   -0.13308
  Beta virt. eigenvalues --    0.06425   0.06955   0.07293   0.07930   0.08593
  Beta virt. eigenvalues --    0.08855   0.09002   0.09610   0.10096   0.10347
  Beta virt. eigenvalues --    0.10930   0.11123   0.11377   0.11485   0.12336

 Mulliken charges and spin densities:
               1          2
     1  C   -0.186391  -0.221554
     2  C    1.071170  -0.300113
     3  C   -0.357365   0.097685
     4  C    1.145107  -1.529804
     5  N   -0.334059   0.256517
     6  C    0.103402  -0.761494
     7  C   -1.410684   0.419397
     8  O   -0.232276   0.000735
     9  N    0.051178   0.071779
    10  C    0.784474  -1.126013
    11  C   -0.332270   0.223474
    12  C   -0.059211  -0.292263
    13  O   -0.070120   0.005123
    14  C   -0.292657  -0.239777
    15  C   -0.211756   0.467239
    16  C   -0.173754  -0.130057
    17  C   -0.258282  -0.195591
    18  H    0.146454   0.011558
    19  H    0.121835   0.038215
    20  H    0.184280  -0.010502
    21  H    0.092986   0.094933
    22  H   -0.069309   0.216593
    23  H   -0.115716   0.292017
    24  H   -0.707599   0.874304
    25  H   -0.076899   0.329586
    26  H    0.184630   0.001712
    27  H   -1.241403   1.371156
    28  H   -0.530902   0.701011
    29  H   -0.915641   1.104951
    30  H    0.925233  -0.800658
    31  H    0.249720   0.003302
    32  H   -0.186684   0.326581
    33  H   -0.131722   0.313618
    34  H    0.184954  -0.046166
    35  H    0.200380  -0.019905
    36  H    0.172672  -0.013159
    37  H    0.118484   0.087833
    38  H   -0.583261   0.785658
    39  H    1.630765  -1.583337
    40  H    0.044336   0.074360
    41  H    0.065903   0.101054
 Sum of Mulliken charges =  -1.00000   1.00000

 Dipole moment (field-independent basis, Debye):
    X=              2.6771    Y=              1.0445    Z=              6.3546  Tot=              6.9742
 Quadrupole moment (field-independent basis, Debye-Ang):
   XX=           -168.3144   YY=           -152.5412   ZZ=           -163.1174
   XY=              5.2779   XZ=             -8.6321   YZ=              1.1382

 Summary of Natural Population Analysis:

                                       Natural Population
                Natural  -----------------------------------------------
    Atom  No    Charge         Core      Valence    Rydberg      Total
 -----------------------------------------------------------------------
      C    1   -0.27884      0.99964     2.27285    0.00635     3.27884
      C    2   -0.07929      0.99954     2.06823    0.01152     3.07929
      C    3   -0.18939      0.99960     2.18072    0.00906     3.18939
      C    4   -0.08843      0.99963     2.07757    0.01122     3.08843
      N    5   -0.34467      0.99975     2.83277    0.01216     3.84467
      C    6   -0.08244      0.99958     2.07124    0.01161     3.08244
      C    7    0.35433      0.99957     1.62207    0.02403     2.64567
      O    8   -0.33066      0.99988     3.32594    0.00484     4.33066
      N    9   -0.25967      0.99964     2.74775    0.01227     3.75967
      C   10   -0.18160      0.99961     2.17200    0.00999     3.18160
      C   11   -0.10415      0.99959     2.09339    0.01117     3.10415
      C   12   -0.01625      0.99956     2.00363    0.01306     3.01625
      O   13   -0.30029      0.99989     3.29201    0.00839     4.30029
      C   14   -0.01565      0.99953     2.00384    0.01228     3.01565
      C   15   -0.13039      0.99959     2.12056    0.01024     3.13039
      C   16   -0.20002      0.99961     2.18999    0.01043     3.20002
      C   17   -0.19837      0.99962     2.19143    0.00732     3.19837
      H   18    0.10402      0.00000     0.39520    0.00078     0.39598
      H   19    0.10090      0.00000     0.39835    0.00075     0.39910
      H   20    0.10309      0.00000     0.39594    0.00096     0.39691
      H   21    0.10649      0.00000     0.39222    0.00129     0.39351
      H   22    0.10071      0.00000     0.39821    0.00108     0.39929
      H   23    0.09454      0.00000     0.40424    0.00122     0.40546
      H   24    0.08357      0.00000     0.41318    0.00325     0.41643
      H   25    0.18167      0.00000     0.31566    0.00267     0.31833
      H   26    0.09569      0.00000     0.40301    0.00130     0.40431
      H   27    0.08583      0.00000     0.41183    0.00233     0.41417
      H   28    0.09987      0.00000     0.39807    0.00206     0.40013
      H   29    0.09857      0.00000     0.39874    0.00269     0.40143
      H   30    0.10458      0.00000     0.39227    0.00315     0.39542
      H   31    0.11879      0.00000     0.37990    0.00131     0.38121
      H   32    0.09677      0.00000     0.40184    0.00139     0.40323
      H   33    0.08994      0.00000     0.40891    0.00115     0.41006
      H   34    0.08532      0.00000     0.41305    0.00162     0.41468
      H   35    0.09431      0.00000     0.40392    0.00176     0.40569
      H   36    0.08795      0.00000     0.41109    0.00095     0.41205
      H   37    0.10204      0.00000     0.39688    0.00107     0.39796
      H   38    0.10473      0.00000     0.39392    0.00135     0.39527
      H   39    0.10380      0.00000     0.39387    0.00234     0.39620
      H   40    0.10119      0.00000     0.39782    0.00099     0.39881
      H   41    0.10141      0.00000     0.39781    0.00078     0.39859
 =======================================================================
   * Total *   -0.00000     16.99384    48.78197    0.22418    66.00000

 Normal termination of Gaussian 16 at Sun Dec 13 18:21:10 2020.
