 Gaussian 16, Revision A.03,

 -----------------------------------------------------------
 # opt freq B3LYP/6-31G(d) empiricaldispersion=gd3bj scf=xqc
 -----------------------------------------------------------

 ------------------------------
 CID_60042993_JID_5520_neutraal
 ------------------------------
 Symbolic Z-matrix:
 Charge =  0 Multiplicity = 1

 SCF Done:  E(RB3LYP) =  -686.421077699     A.U. after   15 cycles
 SCF Done:  E(RB3LYP) =  -686.427344753     A.U. after   12 cycles
 SCF Done:  E(RB3LYP) =  -686.428132646     A.U. after   12 cycles
 SCF Done:  E(RB3LYP) =  -686.428221208     A.U. after   11 cycles
 SCF Done:  E(RB3LYP) =  -686.428231216     A.U. after    9 cycles
 SCF Done:  E(RB3LYP) =  -686.428233092     A.U. after    8 cycles
 SCF Done:  E(RB3LYP) =  -686.428233297     A.U. after    7 cycles
 Optimization completed.
    -- Stationary point found.
 Normal termination of Gaussian 16 at Sun Dec 13 15:56:14 2020.

 --------------------------------------------------------------------
 #N Geom=AllCheck Guess=TCheck SCRF=Check GenChk RB3LYP/6-31G(d) Freq
 --------------------------------------------------------------------

 Structure from the checkpoint file:  "JID_5520.chk"
 ------------------------------
 CID_60042993_JID_5520_neutraal
 ------------------------------
 Charge =  0 Multiplicity = 1

 SCF Done:  E(RB3LYP) =  -686.428233297     A.U. after    1 cycles

  Exact polarizability: 189.785 -14.054 161.332   0.084   0.020  63.344
 Approx polarizability: 285.066 -45.224 279.262   0.086   0.046  96.864

 ******    1 imaginary frequencies (negative Signs) ******

                      1                      2                      3
                      A                      A                      A
 Frequencies --    -50.7079                72.9197                83.8239
 Red. masses --      1.0307                 3.4174                 4.1231
 Frc consts  --      0.0016                 0.0107                 0.0171
 IR Inten    --      0.2638                 2.7935                 0.7381

                      4                      5                      6
                      A                      A                      A
 Frequencies --    117.4859               133.0410               159.0817
 Red. masses --      3.9201                 1.0479                 3.9863
 Frc consts  --      0.0319                 0.0109                 0.0594
 IR Inten    --      1.9851                 0.4764                 0.1064

                      7                      8                      9
                      A                      A                      A
 Frequencies --    183.2258               196.6233               242.3820
 Red. masses --      3.5747                 2.3424                 3.3137
 Frc consts  --      0.0707                 0.0534                 0.1147
 IR Inten    --      2.2960                 6.0881                 1.4130

                     10                     11                     12
                      A                      A                      A
 Frequencies --    263.4803               284.9029               319.7020
 Red. masses --      1.5129                 3.7608                 4.8289
 Frc consts  --      0.0619                 0.1799                 0.2908
 IR Inten    --      2.2329                 1.0541                 0.9249

                     13                     14                     15
                      A                      A                      A
 Frequencies --    350.4131               375.5977               412.1700
 Red. masses --      4.1001                 2.9291                 6.0601
 Frc consts  --      0.2966                 0.2435                 0.6066
 IR Inten    --      1.6148                 6.5806                13.6139

                     16                     17                     18
                      A                      A                      A
 Frequencies --    435.1412               455.8471               489.3188
 Red. masses --      6.7917                 3.9398                 5.8902
 Frc consts  --      0.7577                 0.4823                 0.8309
 IR Inten    --      2.5985                 0.0742                11.6418

                     19                     20                     21
                      A                      A                      A
 Frequencies --    546.9822               617.2636               646.1601
 Red. masses --      5.8627                 3.9927                 5.3913
 Frc consts  --      1.0335                 0.8963                 1.3262
 IR Inten    --      6.6275                 0.9306                15.8169

                     22                     23                     24
                      A                      A                      A
 Frequencies --    665.0468               682.7341               719.9361
 Red. masses --      3.8942                 6.8688                 5.3259
 Frc consts  --      1.0148                 1.8864                 1.6264
 IR Inten    --      0.6771                 4.9148                 1.4519

                     25                     26                     27
                      A                      A                      A
 Frequencies --    725.5336               770.5369               775.1626
 Red. masses --      5.9378                 4.3881                 6.8623
 Frc consts  --      1.8416                 1.5350                 2.4294
 IR Inten    --      3.8395                 0.7946                16.1280

                     28                     29                     30
                      A                      A                      A
 Frequencies --    835.8504               842.5460               895.4022
 Red. masses --      1.4280                 1.4824                 3.9531
 Frc consts  --      0.5878                 0.6200                 1.8673
 IR Inten    --      0.5276                48.6750                 1.5026

                     31                     32                     33
                      A                      A                      A
 Frequencies --    982.7564               984.4811              1020.7140
 Red. masses --      1.3100                 1.8529                 5.9534
 Frc consts  --      0.7455                 1.0581                 3.6545
 IR Inten    --      1.0030                 5.1037                 6.8318

                     34                     35                     36
                      A                      A                      A
 Frequencies --   1049.8774              1068.9045              1100.2590
 Red. masses --      1.7802                 1.5632                 4.8112
 Frc consts  --      1.1561                 1.0523                 3.4316
 IR Inten    --     47.9349                 3.9963                 1.9858

                     37                     38                     39
                      A                      A                      A
 Frequencies --   1160.1245              1167.5433              1186.3017
 Red. masses --      1.7052                 1.2934                 1.2717
 Frc consts  --      1.3522                 1.0388                 1.0545
 IR Inten    --     40.7956                 0.2502                 0.9324

                     40                     41                     42
                      A                      A                      A
 Frequencies --   1188.3788              1208.3690              1225.9317
 Red. masses --      2.3537                 2.7194                 1.3964
 Frc consts  --      1.9585                 2.3395                 1.2365
 IR Inten    --     48.3555                70.4370                 5.2756

                     43                     44                     45
                      A                      A                      A
 Frequencies --   1265.0535              1281.0604              1319.4547
 Red. masses --      2.2008                 2.4510                 3.3024
 Frc consts  --      2.0752                 2.3699                 3.3874
 IR Inten    --     11.2569               193.7062                29.7852

                     46                     47                     48
                      A                      A                      A
 Frequencies --   1349.8452              1379.6185              1422.7413
 Red. masses --      7.5006                 4.4415                 1.9750
 Frc consts  --      8.0522                 4.9807                 2.3554
 IR Inten    --     45.5030                15.8878                39.4486

                     49                     50                     51
                      A                      A                      A
 Frequencies --   1432.8514              1438.1605              1485.2921
 Red. masses --      1.3425                 2.0523                 1.6177
 Frc consts  --      1.6240                 2.5009                 2.1027
 IR Inten    --      9.4603               140.6543                 3.1212

                     52                     53                     54
                      A                      A                      A
 Frequencies --   1501.6944              1513.5922              1514.7358
 Red. masses --      1.3377                 1.1063                 1.3662
 Frc consts  --      1.7773                 1.4933                 1.8468
 IR Inten    --     20.6174                19.4513                67.1251

                     55                     56                     57
                      A                      A                      A
 Frequencies --   1519.2654              1523.7826              1526.1581
 Red. masses --      1.0467                 1.2087                 1.0454
 Frc consts  --      1.4235                 1.6536                 1.4346
 IR Inten    --      7.0895                58.4323                 7.6490

                     58                     59                     60
                      A                      A                      A
 Frequencies --   1533.6293              1551.1304              1601.7569
 Red. masses --      1.0542                 2.6055                 5.7516
 Frc consts  --      1.4609                 3.6935                 8.6943
 IR Inten    --     12.8808                12.8980                24.0067

                     61                     62                     63
                      A                      A                      A
 Frequencies --   1652.6012              1681.9532              1759.9519
 Red. masses --      6.6827                 8.4085                10.2744
 Frc consts  --     10.7533                14.0151                18.7502
 IR Inten    --    223.3646               213.8654               567.0844

                     64                     65                     66
                      A                      A                      A
 Frequencies --   3044.6789              3050.8245              3086.4015
 Red. masses --      1.0331                 1.0392                 1.0341
 Frc consts  --      5.6424                 5.6986                 5.8041
 IR Inten    --     41.2677                17.6390                29.7736

                     67                     68                     69
                      A                      A                      A
 Frequencies --   3102.9755              3110.7781              3148.6737
 Red. masses --      1.1003                 1.1073                 1.1054
 Frc consts  --      6.2419                 6.3135                 6.4571
 IR Inten    --     14.9211                29.2946                16.6421

                     70                     71                     72
                      A                      A                      A
 Frequencies --   3162.1939              3172.2238              3205.8460
 Red. masses --      1.1000                 1.1022                 1.0896
 Frc consts  --      6.4804                 6.5351                 6.5980
 IR Inten    --      7.6632                18.5535                 9.4149

                     73                     74                     75
                      A                      A                      A
 Frequencies --   3208.9040              3232.1565              3261.6657
 Red. masses --      1.1025                 1.0937                 1.0910
 Frc consts  --      6.6888                 6.7321                 6.8383
 IR Inten    --      0.8925                 4.9456                 2.1655

 - Thermochemistry -
 -------------------
 Temperature   298.150 Kelvin.  Pressure   1.00000 Atm.
 Atom     1 has atomic number  6 and mass  12.00000

 Molecular mass:   204.08988 amu.
 Principal axes and moments of inertia in atomic units:
                           1         2         3
     Eigenvalues --  2132.262443389.267545487.50737
           X            0.99902   0.04434   0.00005
           Y           -0.04434   0.99902  -0.00001
           Z           -0.00005   0.00001   1.00000
 This molecule is an asymmetric top.
 Rotational symmetry number  1.
 Warning -- assumption of classical behavior for rotation
           may cause significant error
 Rotational temperatures (Kelvin)      0.04062     0.02556     0.01578
 Rotational constants (GHZ):           0.84640     0.53249     0.32888
    1 imaginary frequencies ignored.
 Zero-point vibrational energy     572315.0 (Joules/Mol)
                                  136.78658 (Kcal/Mol)
 Warning -- explicit consideration of  19 degrees of freedom as
           vibrations may cause significant error
 Vibrational temperatures:    104.92   120.60   169.04   191.42   228.88
          (Kelvin)            263.62   282.90   348.73   379.09   409.91
                              459.98   504.17   540.40   593.02   626.07
                              655.86   704.02   786.99   888.10   929.68
                              956.85   982.30  1035.83  1043.88  1108.63
                             1115.29  1202.60  1212.24  1288.28  1413.97
                             1416.45  1468.58  1510.54  1537.92  1583.03
                             1669.16  1679.83  1706.82  1709.81  1738.57
                             1763.84  1820.13  1843.16  1898.40  1942.13
                             1984.96  2047.01  2061.55  2069.19  2137.00
                             2160.60  2177.72  2179.37  2185.88  2192.38
                             2195.80  2206.55  2231.73  2304.57  2377.72
                             2419.96  2532.18  4380.61  4389.46  4440.64
                             4464.49  4475.72  4530.24  4549.69  4564.12
                             4612.50  4616.90  4650.35  4692.81

 Zero-point correction=                           0.217983 (Hartree/Particle)
 Thermal correction to Energy=                    0.230808
 Thermal correction to Enthalpy=                  0.231752
 Thermal correction to Gibbs Free Energy=         0.178959
 Sum of electronic and zero-point Energies=           -686.210250
 Sum of electronic and thermal Energies=              -686.197425
 Sum of electronic and thermal Enthalpies=            -686.196481
 Sum of electronic and thermal Free Energies=         -686.249274

                     E (Thermal)             CV                S
                      KCal/Mol        Cal/Mol-Kelvin    Cal/Mol-Kelvin
 Total                  144.834             49.356            111.113
 Electronic               0.000              0.000              0.000
 Translational            0.889              2.981             41.844
 Rotational               0.889              2.981             32.050
 Vibrational            143.057             43.394             37.218
 Vibration     1          0.599              1.967              4.073
 Vibration     2          0.601              1.960              3.799
 Vibration     3          0.608              1.935              3.141
 Vibration     4          0.613              1.920              2.902
 Vibration     5          0.621              1.892              2.561
 Vibration     6          0.631              1.863              2.295
 Vibration     7          0.636              1.845              2.164
 Vibration     8          0.659              1.775              1.785
 Vibration     9          0.670              1.740              1.639
 Vibration    10          0.683              1.702              1.504
 Vibration    11          0.706              1.636              1.312
 Vibration    12          0.727              1.574              1.164
 Vibration    13          0.746              1.522              1.057
 Vibration    14          0.776              1.444              0.919
 Vibration    15          0.796              1.394              0.842
 Vibration    16          0.814              1.348              0.778
 Vibration    17          0.845              1.274              0.685
 Vibration    18          0.902              1.146              0.550
 Vibration    19          0.977              0.995              0.421

                           ! Non-Optimized Parameters !
 Normal termination of Gaussian 16 at Sun Dec 13 16:04:09 2020.

 ----------------------------------------------------------------------
 # B3LYP/6-311++G(d,p) empiricaldispersion=gd3bj scf=xqc pop=npa geom=c
 heck
 ----------------------------------------------------------------------

 --------------------------------------
 CID_60042993_JID_5520_Energie_neutraal
 --------------------------------------
 Structure from the checkpoint file:  "JID_5520.chk"
 Charge =  0 Multiplicity = 1

 SCF Done:  E(RB3LYP) =  -686.612452013     A.U. after   17 cycles
 Normal termination of Gaussian 16 at Sun Dec 13 16:08:06 2020.

 ----------------------------------------------------------------------
 # B3LYP/6-311++G(d,p) empiricaldispersion=gd3bj scf=xqc pop=npa geom=c
 heck
 ----------------------------------------------------------------------

 ------------------------------------
 CID_60042993_JID_5520_Energie_kation
 ------------------------------------
 Structure from the checkpoint file:  "JID_5520.chk"
 Charge =  1 Multiplicity = 2

 SCF Done:  E(UB3LYP) =  -686.321543599     A.U. after   25 cycles
 Normal termination of Gaussian 16 at Sun Dec 13 16:16:09 2020.
 Gaussian 16:  ES64L-G16RevA.03 25-Dec-2016

 ----------------------------------------------------------------------
 # B3LYP/6-311++G(d,p) empiricaldispersion=gd3bj scf=xqc pop=npa geom=c
 heck
 ----------------------------------------------------------------------

 -----------------------------------
 CID_60042993_JID_5520_Energie_anion
 -----------------------------------
 Structure from the checkpoint file:  "JID_5520.chk"
 Charge = -1 Multiplicity = 2

                         Standard orientation:
 ---------------------------------------------------------------------
 Center     Atomic      Atomic             Coordinates (Angstroms)
 Number     Number       Type             X           Y           Z
 ---------------------------------------------------------------------
      1          6           0        4.201896   -0.465076    0.002772
      2          6           0        2.702038   -0.608673   -0.001575
      3          7           0        1.990234    0.521988   -0.001170
      4          6           0        0.650281    0.443280   -0.000452
      5          6           0       -0.046304   -0.789359   -0.000230
      6          6           0        0.716960   -1.962826   -0.001059
      7          6           0        2.099029   -1.878941   -0.002057
      8          6           0       -1.490216   -0.764533    0.000228
      9          6           0       -2.151313    0.424037    0.000448
     10          6           0       -1.454094    1.700019    0.000037
     11          8           0       -2.038762    2.780273    0.000528
     12          7           0       -0.042401    1.636812   -0.000412
     13          6           0        0.705195    2.894494   -0.000712
     14          8           0       -2.067750   -1.987855    0.000461
     15          6           0       -3.490182   -2.046559    0.000835
     16          1           0        4.650905   -0.990574   -0.848433
     17          1           0        4.634325   -0.896665    0.913842
     18          1           0        4.473591    0.590872   -0.048297
     19          1           0        0.209456   -2.920974   -0.001490
     20          1           0        2.713061   -2.773824   -0.003193
     21          1           0       -3.229628    0.500747    0.000897
     22          1           0        1.342418    2.952963    0.884643
     23          1           0        1.342143    2.952650   -0.886279
     24          1           0       -0.029843    3.696374   -0.000726
     25          1           0       -3.901880   -1.565420    0.895692
     26          1           0       -3.902355   -1.565325   -0.893753
     27          1           0       -3.744669   -3.106934    0.000849
 ---------------------------------------------------------------------

 SCF Done:  E(UB3LYP) =  -686.617780942     A.U. after   28 cycles

 The electronic state is 2-A.
 Alpha  occ. eigenvalues --  -19.02987 -18.92643 -14.20686 -14.13941 -10.11725
 Alpha  occ. eigenvalues --  -10.11371 -10.09587 -10.08275 -10.05882 -10.04440
 Alpha  occ. eigenvalues --  -10.03604 -10.02358 -10.02019 -10.01556 -10.00669
 Alpha  occ. eigenvalues --   -0.94790  -0.88593  -0.82482  -0.76363  -0.68160
 Alpha  occ. eigenvalues --   -0.63457  -0.62263  -0.60701  -0.56552  -0.55100
 Alpha  occ. eigenvalues --   -0.49727  -0.47145  -0.45362  -0.40107  -0.38995
 Alpha  occ. eigenvalues --   -0.38081  -0.35917  -0.35733  -0.32764  -0.32175
 Alpha  occ. eigenvalues --   -0.31121  -0.30407  -0.29609  -0.27779  -0.26469
 Alpha  occ. eigenvalues --   -0.26269  -0.25851  -0.25095  -0.24220  -0.23551
 Alpha  occ. eigenvalues --   -0.22695  -0.22617  -0.20785  -0.15848  -0.14310
 Alpha  occ. eigenvalues --   -0.11611  -0.10713  -0.10405  -0.07385   0.05311
 Alpha virt. eigenvalues --    0.07853   0.08691   0.10212   0.10713   0.11179
 Alpha virt. eigenvalues --    0.11514   0.12030   0.12785   0.13436   0.13523
 Alpha virt. eigenvalues --    0.13950   0.14463   0.15163   0.15543   0.16073

  Beta  occ. eigenvalues --  -19.02925 -18.92499 -14.20631 -14.13754 -10.11728
  Beta  occ. eigenvalues --  -10.11299 -10.09603 -10.07974 -10.05884 -10.04009
  Beta  occ. eigenvalues --  -10.03637 -10.02332 -10.02155 -10.01136 -10.00519
  Beta  occ. eigenvalues --   -0.94613  -0.88369  -0.82245  -0.75978  -0.67686
  Beta  occ. eigenvalues --   -0.63055  -0.61843  -0.60588  -0.56425  -0.54974
  Beta  occ. eigenvalues --   -0.49643  -0.46444  -0.45082  -0.39921  -0.38796
  Beta  occ. eigenvalues --   -0.37808  -0.35695  -0.35608  -0.32494  -0.32063
  Beta  occ. eigenvalues --   -0.30991  -0.30238  -0.29100  -0.27610  -0.26346
  Beta  occ. eigenvalues --   -0.25762  -0.25690  -0.24931  -0.24120  -0.22750
  Beta  occ. eigenvalues --   -0.22413  -0.22027  -0.20604  -0.14974  -0.12873
  Beta  occ. eigenvalues --   -0.11406  -0.10506  -0.09116  -0.06315
  Beta virt. eigenvalues --    0.07828   0.08635   0.10158   0.10683   0.10971
  Beta virt. eigenvalues --    0.11128   0.11979   0.12045   0.12742   0.13430
  Beta virt. eigenvalues --    0.13710   0.14186   0.14405   0.15123   0.16050

 Mulliken charges and spin densities:
               1          2
     1  C   -0.444993  -0.024519
     2  C   -0.299899   0.249619
     3  N   -0.096323   0.085980
     4  C   -1.323092  -0.001539
     5  C    1.233963  -0.016710
     6  C   -1.058124   0.381275
     7  C    0.320858  -0.093240
     8  C    0.363382   0.153364
     9  C   -0.082232   0.118954
    10  C   -0.169770   0.047835
    11  O   -0.419142   0.046054
    12  N   -0.022491   0.018636
    13  C   -0.219360  -0.012076
    14  O   -0.172465   0.014531
    15  C   -0.267141   0.002726
    16  H    0.109685   0.017180
    17  H    0.107746   0.027454
    18  H    0.119887   0.000095
    19  H    0.126884  -0.027015
    20  H    0.126899   0.007191
    21  H    0.161046  -0.010981
    22  H    0.154563   0.009015
    23  H    0.155282   0.008229
    24  H    0.179658  -0.000987
    25  H    0.134566  -0.000517
    26  H    0.134493  -0.000520
    27  H    0.146119  -0.000033
 Sum of Mulliken charges =  -1.00000   1.00000

 Dipole moment (field-independent basis, Debye):
    X=             -0.3969    Y=             -3.4011    Z=             -0.0258  Tot=              3.4243
 Quadrupole moment (field-independent basis, Debye-Ang):
   XX=           -114.4829   YY=           -114.9158   ZZ=            -96.3895
   XY=             14.9839   XZ=             -0.1379   YZ=              0.0109

 Summary of Natural Population Analysis:

                                       Natural Population
                Natural  -----------------------------------------------
    Atom  No    Charge         Core      Valence    Rydberg      Total
 -----------------------------------------------------------------------
      C    1   -0.29995      0.99965     2.29610    0.00421     3.29995
      C    2    0.18380      0.99958     1.80387    0.01276     2.81620
      N    3   -0.25548      0.99964     2.74480    0.01104     3.75548
      C    4    0.22017      0.99951     1.76867    0.01164     2.77983
      C    5   -0.08309      0.99937     2.07285    0.01087     3.08309
      C    6    0.00574      0.99957     1.98530    0.00939     2.99426
      C    7   -0.17349      0.99952     2.16586    0.00810     3.17349
      C    8    0.23245      0.99937     1.75649    0.01168     2.76755
      C    9   -0.17986      0.99944     2.17166    0.00876     3.17986
      C   10    0.33515      0.99963     1.64456    0.02065     2.66485
      O   11   -0.33837      0.99988     3.33197    0.00652     4.33837
      N   12   -0.23306      0.99961     2.72400    0.00946     3.73306
      C   13   -0.17764      0.99961     2.17097    0.00706     3.17764
      O   14   -0.26688      0.99985     3.25739    0.00965     4.26688
      C   15   -0.10069      0.99962     2.09285    0.00822     3.10069
      H   16    0.09676      0.00000     0.40235    0.00090     0.40324
      H   17    0.09780      0.00000     0.40128    0.00092     0.40220
      H   18    0.10289      0.00000     0.39609    0.00102     0.39711
      H   19    0.09756      0.00000     0.40154    0.00090     0.40244
      H   20    0.09045      0.00000     0.40840    0.00115     0.40955
      H   21    0.09793      0.00000     0.40069    0.00138     0.40207
      H   22    0.09485      0.00000     0.40391    0.00125     0.40515
      H   23    0.09482      0.00000     0.40393    0.00125     0.40518
      H   24    0.10866      0.00000     0.39000    0.00134     0.39134
      H   25    0.08248      0.00000     0.41583    0.00169     0.41752
      H   26    0.08248      0.00000     0.41583    0.00169     0.41752
      H   27    0.08462      0.00000     0.41448    0.00090     0.41538
 =======================================================================
   * Total *    0.00009     14.99384    38.84168    0.16439    53.99991

 Normal termination of Gaussian 16 at Sun Dec 13 16:25:05 2020.
