 Gaussian 16, Revision A.03,

 -----------------------------------------------------------
 # opt freq B3LYP/6-31G(d) empiricaldispersion=gd3bj scf=xqc
 -----------------------------------------------------------

 -------------------------------
 CID_143127836_JID_9067_neutraal
 -------------------------------
 Symbolic Z-matrix:
 Charge =  0 Multiplicity = 1

 SCF Done:  E(RB3LYP) =  -754.547088539     A.U. after   14 cycles
 SCF Done:  E(RB3LYP) =  -754.550743702     A.U. after   12 cycles
 SCF Done:  E(RB3LYP) =  -754.550650878     A.U. after   12 cycles
 SCF Done:  E(RB3LYP) =  -754.552929430     A.U. after   12 cycles
 SCF Done:  E(RB3LYP) =  -754.553745423     A.U. after   12 cycles
 SCF Done:  E(RB3LYP) =  -754.553906586     A.U. after   13 cycles
 SCF Done:  E(RB3LYP) =  -754.554546815     A.U. after   12 cycles
 SCF Done:  E(RB3LYP) =  -754.554650427     A.U. after   11 cycles
 SCF Done:  E(RB3LYP) =  -754.554711177     A.U. after   11 cycles
 SCF Done:  E(RB3LYP) =  -754.554744282     A.U. after   10 cycles
 SCF Done:  E(RB3LYP) =  -754.554761680     A.U. after   10 cycles
 SCF Done:  E(RB3LYP) =  -754.554763611     A.U. after    8 cycles
 SCF Done:  E(RB3LYP) =  -754.554764128     A.U. after    8 cycles
 SCF Done:  E(RB3LYP) =  -754.554764324     A.U. after    7 cycles
 SCF Done:  E(RB3LYP) =  -754.554764362     A.U. after    7 cycles
 Optimization completed.
    -- Stationary point found.
 Normal termination of Gaussian 16 at Mon Dec 14 13:29:57 2020.

 --------------------------------------------------------------------
 #N Geom=AllCheck Guess=TCheck SCRF=Check GenChk RB3LYP/6-31G(d) Freq
 --------------------------------------------------------------------

 Structure from the checkpoint file:  "JID_9067.chk"
 -------------------------------
 CID_143127836_JID_9067_neutraal
 -------------------------------
 Charge =  0 Multiplicity = 1

 SCF Done:  E(RB3LYP) =  -754.554764362     A.U. after    1 cycles

  Exact polarizability: 216.226  -7.880 236.147 -18.838 -30.680 139.708
 Approx polarizability: 287.134  -5.048 432.033 -30.319 -85.378 222.572

                      1                      2                      3
                      A                      A                      A
 Frequencies --     34.5614                50.9812                67.8875
 Red. masses --      3.6514                 3.6150                 3.2867
 Frc consts  --      0.0026                 0.0055                 0.0089
 IR Inten    --      0.0627                 0.0622                 0.0831

                      4                      5                      6
                      A                      A                      A
 Frequencies --     72.9895                97.9987               106.8770
 Red. masses --      3.9071                 2.3590                 2.1163
 Frc consts  --      0.0123                 0.0133                 0.0142
 IR Inten    --      0.0496                 0.1702                 0.1028

                      7                      8                      9
                      A                      A                      A
 Frequencies --    118.8058               122.7581               139.9051
 Red. masses --      1.9920                 3.2110                 2.4946
 Frc consts  --      0.0166                 0.0285                 0.0288
 IR Inten    --      0.3718                 0.0221                 0.3166

                     10                     11                     12
                      A                      A                      A
 Frequencies --    175.8112               207.4968               228.3659
 Red. masses --      3.4429                 2.6157                 3.1539
 Frc consts  --      0.0627                 0.0664                 0.0969
 IR Inten    --      0.5117                 1.0731                 0.0798

                     13                     14                     15
                      A                      A                      A
 Frequencies --    239.7114               248.2628               272.8247
 Red. masses --      2.4237                 2.2230                 1.5522
 Frc consts  --      0.0821                 0.0807                 0.0681
 IR Inten    --      0.9122                 0.3537                 0.8317

                     16                     17                     18
                      A                      A                      A
 Frequencies --    292.2447               312.9504               356.1361
 Red. masses --      3.3864                 1.9104                 4.1731
 Frc consts  --      0.1704                 0.1102                 0.3118
 IR Inten    --      1.3753                 0.9626                 0.0736

                     19                     20                     21
                      A                      A                      A
 Frequencies --    369.1662               386.7568               415.8814
 Red. masses --      2.2710                 4.4752                 2.5209
 Frc consts  --      0.1824                 0.3944                 0.2569
 IR Inten    --      5.0144                 0.0959                 2.0011

                     22                     23                     24
                      A                      A                      A
 Frequencies --    448.2531               478.2415               490.1629
 Red. masses --      3.0135                 3.5382                 3.2544
 Frc consts  --      0.3568                 0.4768                 0.4607
 IR Inten    --      1.5783                 2.5634                 2.4845

                     25                     26                     27
                      A                      A                      A
 Frequencies --    509.9435               548.0846               555.1295
 Red. masses --      2.5253                 2.0217                 3.3329
 Frc consts  --      0.3869                 0.3578                 0.6051
 IR Inten    --      1.5641                 1.1319                 2.9403

                     28                     29                     30
                      A                      A                      A
 Frequencies --    597.5305               628.5095               661.9567
 Red. masses --      3.0231                 4.2421                 4.7318
 Frc consts  --      0.6359                 0.9873                 1.2216
 IR Inten    --      0.2456                 3.2445                 3.4354

                     31                     32                     33
                      A                      A                      A
 Frequencies --    686.2449               719.8132               745.5176
 Red. masses --      2.0022                 3.2529                 2.4870
 Frc consts  --      0.5555                 0.9930                 0.8144
 IR Inten    --      2.1703                 3.5392                27.7841

                     34                     35                     36
                      A                      A                      A
 Frequencies --    752.3246               766.9410               776.9878
 Red. masses --      1.4715                 1.7687                 1.9880
 Frc consts  --      0.4907                 0.6129                 0.7071
 IR Inten    --     67.1738                19.3989                21.4801

                     37                     38                     39
                      A                      A                      A
 Frequencies --    809.4477               827.9802               853.4477
 Red. masses --      2.9460                 1.1258                 2.2053
 Frc consts  --      1.1373                 0.4547                 0.9464
 IR Inten    --      1.4722                 0.6115                 0.7643

                     40                     41                     42
                      A                      A                      A
 Frequencies --    868.4341               883.0196               904.2731
 Red. masses --      1.9156                 1.5449                 2.8872
 Frc consts  --      0.8512                 0.7097                 1.3910
 IR Inten    --     10.6897                 4.2637                 4.7888

                     43                     44                     45
                      A                      A                      A
 Frequencies --    916.8488               919.5239               938.6522
 Red. masses --      1.3608                 1.3670                 1.4582
 Frc consts  --      0.6739                 0.6810                 0.7570
 IR Inten    --     23.2120                56.7681                 0.2681

                     46                     47                     48
                      A                      A                      A
 Frequencies --    951.2150               968.0122               980.3586
 Red. masses --      1.8508                 2.1520                 1.2579
 Frc consts  --      0.9866                 1.1881                 0.7123
 IR Inten    --      6.8183                 2.7811                 0.0342

                     49                     50                     51
                      A                      A                      A
 Frequencies --    989.1447              1011.7109              1027.8900
 Red. masses --      2.5182                 1.1604                 1.1720
 Frc consts  --      1.4516                 0.6998                 0.7296
 IR Inten    --      1.9859                 0.6737                25.9873

                     52                     53                     54
                      A                      A                      A
 Frequencies --   1034.7687              1045.9406              1057.6304
 Red. masses --      1.7665                 1.5954                 2.8022
 Frc consts  --      1.1144                 1.0283                 1.8468
 IR Inten    --      2.1317                 6.9091                 4.6405

                     55                     56                     57
                      A                      A                      A
 Frequencies --   1066.8287              1069.8098              1076.2738
 Red. masses --      2.4785                 2.1069                 2.1359
 Frc consts  --      1.6620                 1.4207                 1.4577
 IR Inten    --      1.1743                 4.8602                 1.6748

                     58                     59                     60
                      A                      A                      A
 Frequencies --   1139.9750              1150.3664              1172.7708
 Red. masses --      1.8600                 1.9078                 1.9003
 Frc consts  --      1.4241                 1.4875                 1.5399
 IR Inten    --      2.6018                17.6662                20.5438

                     61                     62                     63
                      A                      A                      A
 Frequencies --   1186.4263              1194.4260              1206.0126
 Red. masses --      2.0358                 1.1000                 1.9717
 Frc consts  --      1.6884                 0.9246                 1.6896
 IR Inten    --     14.5307                 0.1769                 1.4072

                     64                     65                     66
                      A                      A                      A
 Frequencies --   1215.1327              1237.3689              1247.7284
 Red. masses --      2.2086                 1.4918                 2.0113
 Frc consts  --      1.9214                 1.3457                 1.8449
 IR Inten    --      1.2494                 1.8016                 3.3101

                     67                     68                     69
                      A                      A                      A
 Frequencies --   1256.0511              1268.9702              1296.3784
 Red. masses --      1.6748                 1.5398                 1.2699
 Frc consts  --      1.5568                 1.4609                 1.2575
 IR Inten    --      7.9468                 2.7829                 1.2447

                     70                     71                     72
                      A                      A                      A
 Frequencies --   1312.7982              1330.5351              1337.9363
 Red. masses --      1.7177                 2.0604                 1.3294
 Frc consts  --      1.7442                 2.1491                 1.4021
 IR Inten    --      4.3290                 5.3536                 0.0339

                     73                     74                     75
                      A                      A                      A
 Frequencies --   1344.0694              1355.6585              1385.4004
 Red. masses --      1.4928                 1.3742                 1.6041
 Frc consts  --      1.5889                 1.4880                 1.8140
 IR Inten    --      2.1955                 2.0451                 4.7697

                     76                     77                     78
                      A                      A                      A
 Frequencies --   1392.0133              1397.8582              1406.9944
 Red. masses --      1.9272                 1.2749                 1.2453
 Frc consts  --      2.2002                 1.4678                 1.4524
 IR Inten    --      0.6566                 0.8026                17.2948

                     79                     80                     81
                      A                      A                      A
 Frequencies --   1417.3645              1427.8813              1441.4243
 Red. masses --      1.3429                 1.7485                 1.3313
 Frc consts  --      1.5895                 2.1004                 1.6297
 IR Inten    --      5.3023                 1.6566                10.0182

                     82                     83                     84
                      A                      A                      A
 Frequencies --   1472.2962              1481.9147              1495.4840
 Red. masses --      1.2894                 1.3142                 1.1415
 Frc consts  --      1.6467                 1.7004                 1.5042
 IR Inten    --      0.2261                 3.2158                 0.6367

                     85                     86                     87
                      A                      A                      A
 Frequencies --   1504.8935              1507.2659              1513.8140
 Red. masses --      1.0911                 1.8632                 1.1325
 Frc consts  --      1.4559                 2.4939                 1.5291
 IR Inten    --      6.6525                 1.8041                 2.7682

                     88                     89                     90
                      A                      A                      A
 Frequencies --   1516.0518              1527.1958              1539.1265
 Red. masses --      1.1496                 1.0399                 1.1724
 Frc consts  --      1.5567                 1.4290                 1.6364
 IR Inten    --      5.7957                 2.2274                21.3744

                     91                     92                     93
                      A                      A                      A
 Frequencies --   1543.4556              1550.5234              1625.2486
 Red. masses --      2.4171                 1.0939                 5.1270
 Frc consts  --      3.3926                 1.5495                 7.9790
 IR Inten    --     22.1304                 2.9278                 1.9339

                     94                     95                     96
                      A                      A                      A
 Frequencies --   1652.2348              1667.8620              1689.7956
 Red. masses --      6.0358                 6.0478                 3.9156
 Frc consts  --      9.7080                 9.9121                 6.5874
 IR Inten    --      2.2213                 0.3053                15.4099

                     97                     98                     99
                      A                      A                      A
 Frequencies --   1694.3143              2963.0998              3003.8967
 Red. masses --      3.9063                 1.0706                 1.0726
 Frc consts  --      6.6070                 5.5383                 5.7026
 IR Inten    --     22.1074                61.2980                20.4459

                    100                    101                    102
                      A                      A                      A
 Frequencies --   3023.3680              3038.9414              3047.4141
 Red. masses --      1.0640                 1.0865                 1.0643
 Frc consts  --      5.7303                 5.9119                 5.8233
 IR Inten    --     35.5821                41.5734                55.1336

                    103                    104                    105
                      A                      A                      A
 Frequencies --   3048.5494              3066.7620              3074.5051
 Red. masses --      1.0383                 1.1005                 1.0853
 Frc consts  --      5.6856                 6.0985                 6.0442
 IR Inten    --     16.2749                27.9280                 4.1868

                    106                    107                    108
                      A                      A                      A
 Frequencies --   3095.0077              3099.8085              3112.0546
 Red. masses --      1.0872                 1.0952                 1.1001
 Frc consts  --      6.1359                 6.2001                 6.2776
 IR Inten    --     24.1925                34.8561                50.1985

                    109                    110                    111
                      A                      A                      A
 Frequencies --   3131.3794              3172.6642              3174.6783
 Red. masses --      1.1034                 1.0862                 1.0694
 Frc consts  --      6.3749                 6.4419                 6.3502
 IR Inten    --     26.2334                11.0253                 6.6434

                    112                    113                    114
                      A                      A                      A
 Frequencies --   3176.5975              3180.2500              3185.9763
 Red. masses --      1.0887                 1.0592                 1.0779
 Frc consts  --      6.4726                 6.3117                 6.4461
 IR Inten    --      1.3451                 0.3807                 4.8783

                    115                    116                    117
                      A                      A                      A
 Frequencies --   3192.5050              3203.9331              3207.8006
 Red. masses --      1.0914                 1.0871                 1.0972
 Frc consts  --      6.5540                 6.5749                 6.6518
 IR Inten    --     26.9033                21.3051                33.8237

                    118                    119                    120
                      A                      A                      A
 Frequencies --   3257.1018              3259.7004              3540.4181
 Red. masses --      1.1154                 1.1150                 1.0731
 Frc consts  --      6.9720                 6.9804                 7.9250
 IR Inten    --     13.4518                22.9379                10.8096

 - Thermochemistry -
 -------------------
 Temperature   298.150 Kelvin.  Pressure   1.00000 Atm.
 Atom     1 has atomic number  6 and mass  12.00000

 Molecular mass:   253.18305 amu.
 Principal axes and moments of inertia in atomic units:
                           1         2         3
     Eigenvalues --  3284.742526343.179417377.41944
           X            0.99996  -0.00810   0.00304
           Y            0.00816   0.99973  -0.02157
           Z           -0.00286   0.02159   0.99976
 This molecule is an asymmetric top.
 Rotational symmetry number  1.
 Warning -- assumption of classical behavior for rotation
           may cause significant error
 Rotational temperatures (Kelvin)      0.02637     0.01365     0.01174
 Rotational constants (GHZ):           0.54943     0.28452     0.24463
 Zero-point vibrational energy     970438.5 (Joules/Mol)
                                  231.94038 (Kcal/Mol)
 Warning -- explicit consideration of  28 degrees of freedom as
           vibrations may cause significant error
 Vibrational temperatures:     49.73    73.35    97.68   105.02   141.00
          (Kelvin)            153.77   170.94   176.62   201.29   252.95
                              298.54   328.57   344.89   357.19   392.53
                              420.47   450.27   512.40   531.15   556.46
                              598.36   644.94   688.08   705.24   733.69
                              788.57   798.71   859.71   904.29   952.41
                              987.35  1035.65  1072.63  1082.43  1103.46
                             1117.91  1164.61  1191.28  1227.92  1249.48
                             1270.47  1301.05  1319.14  1322.99  1350.51
                             1368.59  1392.75  1410.52  1423.16  1455.63
                             1478.90  1488.80  1504.88  1521.69  1534.93
                             1539.22  1548.52  1640.17  1655.12  1687.36
                             1707.00  1718.51  1735.18  1748.30  1780.30
                             1795.20  1807.18  1825.77  1865.20  1888.82
                             1914.34  1924.99  1933.82  1950.49  1993.28
                             2002.80  2011.21  2024.35  2039.27  2054.40
                             2073.89  2118.31  2132.14  2151.67  2165.21
                             2168.62  2178.04  2181.26  2197.29  2214.46
                             2220.69  2230.86  2338.37  2377.20  2399.68
                             2431.24  2437.74  4263.24  4321.94  4349.95
                             4372.36  4384.55  4386.18  4412.39  4423.53
                             4453.03  4459.93  4477.55  4505.36  4564.76
                             4567.65  4570.42  4575.67  4583.91  4593.30
                             4609.75  4615.31  4686.24  4689.98  5093.87

 Zero-point correction=                           0.369621 (Hartree/Particle)
 Thermal correction to Energy=                    0.388155
 Thermal correction to Enthalpy=                  0.389100
 Thermal correction to Gibbs Free Energy=         0.323207
 Sum of electronic and zero-point Energies=           -754.185144
 Sum of electronic and thermal Energies=              -754.166609
 Sum of electronic and thermal Enthalpies=            -754.165665
 Sum of electronic and thermal Free Energies=         -754.231557

                     E (Thermal)             CV                S
                      KCal/Mol        Cal/Mol-Kelvin    Cal/Mol-Kelvin
 Total                  243.571             72.305            138.682
 Electronic               0.000              0.000              0.000
 Translational            0.889              2.981             42.487
 Rotational               0.889              2.981             33.396
 Vibrational            241.794             66.343             62.798
 Vibration     1          0.594              1.983              5.549
 Vibration     2          0.595              1.977              4.779
 Vibration     3          0.598              1.970              4.214
 Vibration     4          0.599              1.967              4.071
 Vibration     5          0.603              1.951              3.494
 Vibration     6          0.606              1.944              3.325
 Vibration     7          0.609              1.934              3.120
 Vibration     8          0.610              1.930              3.056
 Vibration     9          0.615              1.913              2.805
 Vibration    10          0.628              1.872              2.372
 Vibration    11          0.641              1.829              2.066
 Vibration    12          0.651              1.798              1.892
 Vibration    13          0.657              1.780              1.805
 Vibration    14          0.662              1.766              1.743
 Vibration    15          0.676              1.723              1.578
 Vibration    16          0.688              1.688              1.461
 Vibration    17          0.701              1.649              1.347
 Vibration    18          0.732              1.563              1.139
 Vibration    19          0.741              1.536              1.083
 Vibration    20          0.755              1.498              1.013
 Vibration    21          0.779              1.436              0.906
 Vibration    22          0.807              1.365              0.801
 Vibration    23          0.835              1.298              0.715
 Vibration    24          0.846              1.272              0.683
 Vibration    25          0.865              1.228              0.634
 Vibration    26          0.903              1.144              0.548
 Vibration    27          0.911              1.128              0.534
 Vibration    28          0.955              1.037              0.454

 Optimization completed.
    -- Stationary point found.
 Normal termination of Gaussian 16 at Mon Dec 14 13:55:50 2020.

 ----------------------------------------------------------------------
 # B3LYP/6-311++G(d,p) empiricaldispersion=gd3bj scf=xqc pop=npa geom=c
 heck
 ----------------------------------------------------------------------

 ---------------------------------------
 CID_143127836_JID_9067_Energie_neutraal
 ---------------------------------------
 Structure from the checkpoint file:  "JID_9067.chk"
 Charge =  0 Multiplicity = 1

 SCF Done:  E(RB3LYP) =  -754.755695785     A.U. after   16 cycles
 Normal termination of Gaussian 16 at Mon Dec 14 14:08:39 2020.

 ----------------------------------------------------------------------
 # B3LYP/6-311++G(d,p) empiricaldispersion=gd3bj scf=xqc pop=npa geom=c
 heck
 ----------------------------------------------------------------------

 -------------------------------------
 CID_143127836_JID_9067_Energie_kation
 -------------------------------------
 Structure from the checkpoint file:  "JID_9067.chk"
 Charge =  1 Multiplicity = 2

 SCF Done:  E(UB3LYP) =  -754.482946724     A.U. after   26 cycles
 Normal termination of Gaussian 16 at Mon Dec 14 14:38:06 2020.
 Gaussian 16:  ES64L-G16RevA.03 25-Dec-2016

 ----------------------------------------------------------------------
 # B3LYP/6-311++G(d,p) empiricaldispersion=gd3bj scf=xqc pop=npa geom=c
 heck
 ----------------------------------------------------------------------

 ------------------------------------
 CID_143127836_JID_9067_Energie_anion
 ------------------------------------
 Structure from the checkpoint file:  "JID_9067.chk"
 Charge = -1 Multiplicity = 2

                         Standard orientation:
 ---------------------------------------------------------------------
 Center     Atomic      Atomic             Coordinates (Angstroms)
 Number     Number       Type             X           Y           Z
 ---------------------------------------------------------------------
      1          6           0       -4.036547    0.574647   -1.223150
      2          6           0       -2.809189   -0.248468   -1.602167
      3          7           0       -2.664996   -1.385967   -0.703317
      4          6           0       -1.522016   -2.255044   -0.955375
      5          6           0       -0.113062   -1.629443   -0.993181
      6          6           0        0.474563   -1.105751    0.349757
      7          6           0        1.861125   -0.560331    0.081504
      8          6           0        3.004251   -1.350053    0.219100
      9          6           0        4.263651   -0.832879   -0.084072
     10          6           0        4.383027    0.485906   -0.524718
     11          6           0        3.242906    1.278993   -0.655491
     12          6           0        1.979754    0.762397   -0.358971
     13          6           0        0.730307    1.602305   -0.482001
     14          6           0       -0.322447    1.243372    0.550418
     15          6           0       -0.391727   -0.041761    1.012052
     16          6           0       -1.249022   -0.433537    2.129384
     17          6           0       -1.459314   -1.675717    2.598294
     18          6           0       -1.242607    2.296114    0.970114
     19          6           0       -1.316399    3.538690    0.465058
     20          1           0       -4.934624   -0.051255   -1.217886
     21          1           0       -4.184398    1.403147   -1.924220
     22          1           0       -3.914340    1.008188   -0.222799
     23          1           0       -2.918396   -0.637913   -2.624134
     24          1           0       -1.929663    0.419781   -1.612580
     25          1           0       -2.644977   -1.062159    0.258926
     26          1           0       -1.546449   -3.055076   -0.204459
     27          1           0       -1.686504   -2.742634   -1.926843
     28          1           0        0.584764   -2.387946   -1.371841
     29          1           0       -0.093315   -0.816454   -1.727305
     30          1           0        0.571347   -1.961423    1.025038
     31          1           0        2.905284   -2.375835    0.567134
     32          1           0        5.147739   -1.453989    0.029482
     33          1           0        5.360759    0.898795   -0.756553
     34          1           0        3.334197    2.311375   -0.985510
     35          1           0        0.305066    1.504148   -1.493337
     36          1           0        1.000478    2.657417   -0.378875
     37          1           0       -1.749196    0.372679    2.657915
     38          1           0       -2.101057   -1.838113    3.458432
     39          1           0       -1.017557   -2.562548    2.156650
     40          1           0       -1.972502    2.035312    1.730486
     41          1           0       -2.064020    4.237810    0.826185
     42          1           0       -0.661182    3.901812   -0.320039
 ---------------------------------------------------------------------

 SCF Done:  E(UB3LYP) =  -754.765795126     A.U. after   26 cycles

 The electronic state is 2-A.
 Alpha  occ. eigenvalues --  -14.16760 -10.07518 -10.07257 -10.07193 -10.07139
 Alpha  occ. eigenvalues --  -10.06741 -10.06717 -10.06671 -10.06494 -10.05355
 Alpha  occ. eigenvalues --  -10.04830 -10.04718 -10.04649 -10.02207 -10.02030
 Alpha  occ. eigenvalues --  -10.01617 -10.01535 -10.00609 -10.00531  -0.78283
 Alpha  occ. eigenvalues --   -0.76011  -0.70644  -0.66922  -0.65001  -0.64195
 Alpha  occ. eigenvalues --   -0.62909  -0.60989  -0.58516  -0.56911  -0.53001
 Alpha  occ. eigenvalues --   -0.50299  -0.49167  -0.48363  -0.46811  -0.43943
 Alpha  occ. eigenvalues --   -0.42364  -0.40281  -0.37042  -0.36700  -0.36034
 Alpha  occ. eigenvalues --   -0.34889  -0.34133  -0.33688  -0.32858  -0.31629
 Alpha  occ. eigenvalues --   -0.30793  -0.30381  -0.29425  -0.29183  -0.27927
 Alpha  occ. eigenvalues --   -0.27415  -0.26859  -0.25864  -0.24968  -0.24888
 Alpha  occ. eigenvalues --   -0.23810  -0.23743  -0.23252  -0.22789  -0.22125
 Alpha  occ. eigenvalues --   -0.22023  -0.20046  -0.17569  -0.17469  -0.14719
 Alpha  occ. eigenvalues --   -0.14235  -0.13341  -0.09980  -0.07360   0.04310
 Alpha virt. eigenvalues --    0.07166   0.08228   0.08519   0.08856   0.09460
 Alpha virt. eigenvalues --    0.09583   0.09637   0.09937   0.10856   0.10968
 Alpha virt. eigenvalues --    0.11698   0.11785   0.12205   0.13097   0.13434

  Beta  occ. eigenvalues --  -14.16753 -10.07517 -10.07258 -10.07192 -10.07138
  Beta  occ. eigenvalues --  -10.06740 -10.06717 -10.06660 -10.06480 -10.05374
  Beta  occ. eigenvalues --  -10.04797 -10.04717 -10.04674 -10.02170 -10.01994
  Beta  occ. eigenvalues --  -10.01339 -10.01258 -10.00265 -10.00219  -0.78267
  Beta  occ. eigenvalues --   -0.75973  -0.70390  -0.66780  -0.64707  -0.64177
  Beta  occ. eigenvalues --   -0.62539  -0.60878  -0.58212  -0.56735  -0.52747
  Beta  occ. eigenvalues --   -0.50258  -0.49155  -0.48074  -0.46632  -0.43414
  Beta  occ. eigenvalues --   -0.42029  -0.40232  -0.36964  -0.36577  -0.35937
  Beta  occ. eigenvalues --   -0.34861  -0.33977  -0.33626  -0.32817  -0.31499
  Beta  occ. eigenvalues --   -0.30657  -0.30285  -0.29358  -0.29017  -0.27825
  Beta  occ. eigenvalues --   -0.27339  -0.26691  -0.25810  -0.24907  -0.24799
  Beta  occ. eigenvalues --   -0.23722  -0.23675  -0.23183  -0.22573  -0.21957
  Beta  occ. eigenvalues --   -0.21909  -0.19921  -0.17340  -0.16318  -0.14513
  Beta  occ. eigenvalues --   -0.13456  -0.12732  -0.09855  -0.05169
  Beta virt. eigenvalues --    0.07105   0.08092   0.08448   0.08848   0.09383
  Beta virt. eigenvalues --    0.09452   0.09562   0.09891   0.10154   0.10796
  Beta virt. eigenvalues --    0.10944   0.11622   0.11961   0.12164   0.13135

 Mulliken charges and spin densities:
               1          2
     1  C   -0.491192  -0.079250
     2  C   -0.269970   0.016095
     3  N   -0.002603   0.004321
     4  C   -0.742539  -0.002216
     5  C   -0.044988  -0.046433
     6  C   -0.282482  -0.050756
     7  C    0.155909  -0.079826
     8  C   -0.216876   0.071604
     9  C   -0.366363   0.008109
    10  C   -0.338210  -0.027358
    11  C   -0.089702   0.078098
    12  C    0.166421  -0.040135
    13  C   -0.719928  -0.142591
    14  C    0.968577   0.232201
    15  C    0.201929   0.280285
    16  C   -0.336493  -0.136306
    17  C   -0.442824   0.450296
    18  C   -0.288800  -0.062238
    19  C   -0.659153   0.329865
    20  H    0.141054  -0.003069
    21  H    0.069144   0.035584
    22  H    0.145260   0.009502
    23  H    0.118777   0.000773
    24  H    0.113292   0.024370
    25  H    0.270612  -0.002523
    26  H    0.155859  -0.003614
    27  H    0.129263   0.008166
    28  H    0.134698   0.030972
    29  H    0.128475   0.004963
    30  H    0.146592  -0.000297
    31  H    0.110217   0.019310
    32  H    0.130803   0.001381
    33  H    0.128615   0.000791
    34  H    0.143310   0.003569
    35  H    0.052640   0.122192
    36  H    0.106236  -0.008491
    37  H    0.098418  -0.001086
    38  H    0.107839  -0.016650
    39  H    0.070933   0.000072
    40  H    0.099110  -0.001157
    41  H    0.099402  -0.016609
    42  H    0.098741  -0.011917
 Sum of Mulliken charges =  -1.00000   1.00000

 Dipole moment (field-independent basis, Debye):
    X=              3.3060    Y=             -2.0747    Z=             -3.3138  Tot=              5.1201
 Quadrupole moment (field-independent basis, Debye-Ang):
   XX=           -150.8400   YY=           -148.5075   ZZ=           -141.3840
   XY=             -1.5271   XZ=              0.1743   YZ=              0.1691

 Summary of Natural Population Analysis:

                                       Natural Population
                Natural  -----------------------------------------------
    Atom  No    Charge         Core      Valence    Rydberg      Total
 -----------------------------------------------------------------------
      C    1   -0.28558      0.99967     2.28176    0.00415     3.28558
      C    2   -0.09044      0.99965     2.07934    0.01145     3.09044
      N    3   -0.35301      0.99974     2.83846    0.01480     3.85301
      C    4   -0.08229      0.99963     2.07284    0.00982     3.08229
      C    5   -0.18732      0.99960     2.17779    0.00992     3.18732
      C    6   -0.12608      0.99954     2.11493    0.01161     3.12608
      C    7    0.00617      0.99945     1.98289    0.01149     2.99383
      C    8   -0.10187      0.99951     2.09421    0.00816     3.10187
      C    9   -0.11170      0.99958     2.10303    0.00909     3.11170
      C   10   -0.11202      0.99957     2.10360    0.00884     3.11202
      C   11   -0.10115      0.99952     2.09355    0.00809     3.10115
      C   12    0.00012      0.99946     1.99015    0.01027     2.99988
      C   13   -0.21069      0.99958     2.20245    0.00866     3.21069
      C   14    0.02193      0.99943     1.96753    0.01111     2.97807
      C   15    0.02114      0.99943     1.96708    0.01235     2.97886
      C   16   -0.10964      0.99955     2.10094    0.00916     3.10964
      C   17   -0.13852      0.99960     2.13143    0.00749     3.13852
      C   18   -0.10101      0.99954     2.09296    0.00851     3.10101
      C   19   -0.14633      0.99960     2.13767    0.00906     3.14633
      H   20    0.09278      0.00000     0.40610    0.00112     0.40722
      H   21    0.09513      0.00000     0.40388    0.00099     0.40487
      H   22    0.10245      0.00000     0.39655    0.00101     0.39755
      H   23    0.07967      0.00000     0.41920    0.00113     0.42033
      H   24    0.08659      0.00000     0.41075    0.00266     0.41341
      H   25    0.19104      0.00000     0.30683    0.00213     0.30896
      H   26    0.09320      0.00000     0.40585    0.00095     0.40680
      H   27    0.08389      0.00000     0.41499    0.00111     0.41611
      H   28    0.09233      0.00000     0.40635    0.00132     0.40767
      H   29    0.09558      0.00000     0.40327    0.00115     0.40442
      H   30    0.10106      0.00000     0.39664    0.00230     0.39894
      H   31    0.09665      0.00000     0.40207    0.00128     0.40335
      H   32    0.09515      0.00000     0.40422    0.00062     0.40485
      H   33    0.09413      0.00000     0.40492    0.00095     0.40587
      H   34    0.09609      0.00000     0.40269    0.00122     0.40391
      H   35    0.10767      0.00000     0.39048    0.00185     0.39233
      H   36    0.10517      0.00000     0.39346    0.00137     0.39483
      H   37    0.08996      0.00000     0.40854    0.00150     0.41004
      H   38    0.08295      0.00000     0.41602    0.00102     0.41705
      H   39    0.07810      0.00000     0.42084    0.00105     0.42190
      H   40    0.08732      0.00000     0.41111    0.00157     0.41268
      H   41    0.08171      0.00000     0.41740    0.00089     0.41829
      H   42    0.07967      0.00000     0.41942    0.00091     0.42033
 =======================================================================
   * Total *    0.00001     18.99165    49.79420    0.21414    68.99999

 Normal termination of Gaussian 16 at Mon Dec 14 15:07:09 2020.
