 Gaussian 16, Revision A.03,

 -----------------------------------------------------------
 # opt freq B3LYP/6-31G(d) empiricaldispersion=gd3bj scf=xqc
 -----------------------------------------------------------

 ------------------------------
 CID_69206388_JID_3830_neutraal
 ------------------------------
 Symbolic Z-matrix:
 Charge =  0 Multiplicity = 1

 SCF Done:  E(RB3LYP) =  -632.422698824     A.U. after   14 cycles
 SCF Done:  E(RB3LYP) =  -632.363360395     A.U. after   14 cycles
 SCF Done:  E(RB3LYP) =  -632.424876920     A.U. after   12 cycles
 SCF Done:  E(RB3LYP) =  -632.426564377     A.U. after   13 cycles
 SCF Done:  E(RB3LYP) =  -632.427050690     A.U. after   11 cycles
 SCF Done:  E(RB3LYP) =  -632.427437104     A.U. after   11 cycles
 SCF Done:  E(RB3LYP) =  -632.427696902     A.U. after   12 cycles
 SCF Done:  E(RB3LYP) =  -632.427874407     A.U. after   12 cycles
 SCF Done:  E(RB3LYP) =  -632.428039498     A.U. after   10 cycles
 SCF Done:  E(RB3LYP) =  -632.428107511     A.U. after   10 cycles
 SCF Done:  E(RB3LYP) =  -632.430001147     A.U. after    8 cycles
 SCF Done:  E(RB3LYP) =  -632.430001601     A.U. after    8 cycles
 SCF Done:  E(RB3LYP) =  -632.430001781     A.U. after    7 cycles
 SCF Done:  E(RB3LYP) =  -632.430001852     A.U. after    7 cycles
 SCF Done:  E(RB3LYP) =  -632.430001870     A.U. after    7 cycles
 SCF Done:  E(RB3LYP) =  -632.430001896     A.U. after    7 cycles
 Optimization completed.
    -- Stationary point found.
 Normal termination of Gaussian 16 at Sun Dec 13 12:45:17 2020.

 --------------------------------------------------------------------
 #N Geom=AllCheck Guess=TCheck SCRF=Check GenChk RB3LYP/6-31G(d) Freq
 --------------------------------------------------------------------

 Structure from the checkpoint file:  "JID_3830.chk"
 ------------------------------
 CID_69206388_JID_3830_neutraal
 ------------------------------
 Charge =  0 Multiplicity = 1

 SCF Done:  E(RB3LYP) =  -632.430001896     A.U. after    1 cycles

  Exact polarizability: 137.522  -0.472 116.188   4.344 -14.461  81.728
 Approx polarizability: 209.515   3.353 182.208   9.794 -29.440 116.683

                      1                      2                      3
                      A                      A                      A
 Frequencies --     36.2150                48.7714                64.2618
 Red. masses --      3.8755                 3.2431                 2.6520
 Frc consts  --      0.0030                 0.0045                 0.0065
 IR Inten    --      0.3681                 6.6371                 0.6128

                      4                      5                      6
                      A                      A                      A
 Frequencies --     76.2417                91.8707               109.0391
 Red. masses --      2.1828                 1.7808                 4.3566
 Frc consts  --      0.0075                 0.0089                 0.0305
 IR Inten    --      5.7668                 0.1392                 2.5603

                      7                      8                      9
                      A                      A                      A
 Frequencies --    129.2862               131.3712               144.5430
 Red. masses --      2.3702                 1.2678                 3.6721
 Frc consts  --      0.0233                 0.0129                 0.0452
 IR Inten    --     13.3261                45.0428                 2.3856

                     10                     11                     12
                      A                      A                      A
 Frequencies --    185.9761               197.1719               240.5296
 Red. masses --      2.3086                 1.1137                 1.5153
 Frc consts  --      0.0470                 0.0255                 0.0517
 IR Inten    --      8.8971               102.6841                 2.3096

                     13                     14                     15
                      A                      A                      A
 Frequencies --    245.0658               271.7380               300.2495
 Red. masses --      2.3169                 1.2839                 2.9892
 Frc consts  --      0.0820                 0.0559                 0.1588
 IR Inten    --      1.5784                 4.9159                 4.4644

                     16                     17                     18
                      A                      A                      A
 Frequencies --    312.4324               361.6387               380.8151
 Red. masses --      3.3938                 2.8794                 1.3438
 Frc consts  --      0.1952                 0.2219                 0.1148
 IR Inten    --     12.9193                12.6445               126.0088

                     19                     20                     21
                      A                      A                      A
 Frequencies --    427.7760               454.0257               471.0484
 Red. masses --      4.4353                 1.6163                 2.5822
 Frc consts  --      0.4782                 0.1963                 0.3376
 IR Inten    --      3.4931                57.4034                41.9948

                     22                     23                     24
                      A                      A                      A
 Frequencies --    479.9736               545.1974               548.8893
 Red. masses --      2.0516                 6.0543                 3.9345
 Frc consts  --      0.2785                 1.0603                 0.6984
 IR Inten    --     15.8227                 0.8599                 5.1849

                     25                     26                     27
                      A                      A                      A
 Frequencies --    604.4791               642.9712               710.4470
 Red. masses --      4.4944                 4.4099                 4.6079
 Frc consts  --      0.9676                 1.0741                 1.3703
 IR Inten    --     30.2834                11.3004                 1.9185

                     28                     29                     30
                      A                      A                      A
 Frequencies --    722.4934               818.4327               836.5064
 Red. masses --      4.6697                 4.6113                 1.4000
 Frc consts  --      1.4362                 1.8199                 0.5772
 IR Inten    --      7.7246                20.3831                22.9169

                     31                     32                     33
                      A                      A                      A
 Frequencies --    874.8203               907.3247               933.3449
 Red. masses --      1.3763                 2.6621                 1.2833
 Frc consts  --      0.6206                 1.2912                 0.6587
 IR Inten    --     17.2631                 7.5778                 0.9661

                     34                     35                     36
                      A                      A                      A
 Frequencies --    958.4612              1030.7282              1076.9313
 Red. masses --      2.7311                 2.3185                 4.2103
 Frc consts  --      1.4782                 1.4512                 2.8770
 IR Inten    --     15.3507                54.2824                42.9748

                     37                     38                     39
                      A                      A                      A
 Frequencies --   1089.7304              1126.0663              1155.8938
 Red. masses --      1.6524                 2.0853                 1.5154
 Frc consts  --      1.1561                 1.5579                 1.1929
 IR Inten    --     14.0448                25.3682                25.2130

                     40                     41                     42
                      A                      A                      A
 Frequencies --   1162.3050              1187.4151              1191.8644
 Red. masses --      1.1822                 1.2672                 2.0505
 Frc consts  --      0.9410                 1.0527                 1.7162
 IR Inten    --     99.6542                 0.8437                55.3378

                     43                     44                     45
                      A                      A                      A
 Frequencies --   1220.2106              1244.8964              1285.3665
 Red. masses --      1.5403                 1.4586                 2.3650
 Frc consts  --      1.3512                 1.3318                 2.3022
 IR Inten    --     17.4371                67.6110               192.3016

                     46                     47                     48
                      A                      A                      A
 Frequencies --   1296.5746              1314.6640              1322.2621
 Red. masses --      1.3075                 1.9005                 3.7361
 Frc consts  --      1.2951                 1.9353                 3.8486
 IR Inten    --     27.9401                92.5688               141.3731

                     49                     50                     51
                      A                      A                      A
 Frequencies --   1389.7747              1413.5327              1436.4920
 Red. masses --      1.3496                 1.3887                 2.6610
 Frc consts  --      1.5358                 1.6348                 3.2352
 IR Inten    --     42.9134                54.1722                29.2525

                     52                     53                     54
                      A                      A                      A
 Frequencies --   1446.5333              1486.2782              1509.0864
 Red. masses --      1.3364                 2.2095                 1.3701
 Frc consts  --      1.6476                 2.8757                 1.8383
 IR Inten    --     17.8248                41.0264                 4.7817

                     55                     56                     57
                      A                      A                      A
 Frequencies --   1517.9290              1518.1664              1527.9303
 Red. masses --      1.0567                 1.0542                 1.0601
 Frc consts  --      1.4345                 1.4315                 1.4581
 IR Inten    --      1.5043                 7.5720                 8.5088

                     58                     59                     60
                      A                      A                      A
 Frequencies --   1535.2799              1565.1976              1664.4354
 Red. masses --      1.0769                 3.1599                 5.9468
 Frc consts  --      1.4955                 4.5610                 9.7066
 IR Inten    --     50.6525               162.8170                19.8286

                     61                     62                     63
                      A                      A                      A
 Frequencies --   1670.4116              1716.6875              1729.6795
 Red. masses --      6.3210                 1.0640                 1.0649
 Frc consts  --     10.3916                 1.8475                 1.8771
 IR Inten    --     18.7388                24.0684                47.5547

                     64                     65                     66
                      A                      A                      A
 Frequencies --   2989.5095              3035.6426              3056.7896
 Red. masses --      1.0842                 1.0337                 1.0353
 Frc consts  --      5.7091                 5.6125                 5.6996
 IR Inten    --     53.7417                43.4603                19.0279

                     67                     68                     69
                      A                      A                      A
 Frequencies --   3097.4009              3125.7413              3149.8080
 Red. masses --      1.1070                 1.1020                 1.1040
 Frc consts  --      6.2575                 6.3437                 6.4531
 IR Inten    --     35.7356                37.7654                 7.5621

                     70                     71                     72
                      A                      A                      A
 Frequencies --   3165.3027              3188.3619              3215.1329
 Red. masses --      1.1013                 1.0885                 1.0930
 Frc consts  --      6.5009                 6.5195                 6.6571
 IR Inten    --     23.0684                10.2032                 8.5750

                     73                     74                     75
                      A                      A                      A
 Frequencies --   3226.6632              3443.0103              3569.6406
 Red. masses --      1.0891                 1.0282                 1.0885
 Frc consts  --      6.6806                 7.1816                 8.1718
 IR Inten    --      2.5402                 4.0463                 0.2475

                     76                     77                     78
                      A                      A                      A
 Frequencies --   3572.9531              3700.0017              3732.3650
 Red. masses --      1.0876                 1.0647                 1.0660
 Frc consts  --      8.1807                 8.5875                 8.7494
 IR Inten    --      0.8346                86.7625                 8.0569

 - Thermochemistry -
 -------------------
 Temperature   298.150 Kelvin.  Pressure   1.00000 Atm.
 Atom     1 has atomic number  6 and mass  12.00000

 Molecular mass:   185.10519 amu.
 Principal axes and moments of inertia in atomic units:
                           1         2         3
     Eigenvalues --  1902.539283325.352343878.70860
           X            0.99956  -0.02950  -0.00052
           Y            0.02949   0.99956  -0.00310
           Z            0.00061   0.00309   1.00000
 This molecule is an asymmetric top.
 Rotational symmetry number  1.
 Warning -- assumption of classical behavior for rotation
           may cause significant error
 Rotational temperatures (Kelvin)      0.04553     0.02605     0.02233
 Rotational constants (GHZ):           0.94860     0.54272     0.46529
 Zero-point vibrational energy     618254.3 (Joules/Mol)
                                  147.76634 (Kcal/Mol)
 Warning -- explicit consideration of  25 degrees of freedom as
           vibrations may cause significant error
 Vibrational temperatures:     52.11    70.17    92.46   109.69   132.18
          (Kelvin)            156.88   186.01   189.01   207.97   267.58
                              283.69   346.07   352.60   390.97   431.99
                              449.52   520.32   547.91   615.47   653.24
                              677.73   690.57   784.42   789.73   869.71
                              925.09  1022.17  1039.51  1177.54  1203.55
                             1258.67  1305.44  1342.88  1379.01  1482.99
                             1549.46  1567.88  1620.16  1663.07  1672.30
                             1708.43  1714.83  1755.61  1791.13  1849.36
                             1865.48  1891.51  1902.44  1999.58  2033.76
                             2066.79  2081.24  2138.42  2171.24  2183.96
                             2184.30  2198.35  2208.93  2251.97  2394.75
                             2403.35  2469.93  2488.62  4301.24  4367.61
                             4398.04  4456.47  4497.24  4531.87  4554.16
                             4587.34  4625.86  4642.45  4953.72  5135.92
                             5140.68  5323.48  5370.04

 Zero-point correction=                           0.235481 (Hartree/Particle)
 Thermal correction to Energy=                    0.251767
 Thermal correction to Enthalpy=                  0.252711
 Thermal correction to Gibbs Free Energy=         0.191387
 Sum of electronic and zero-point Energies=           -632.194521
 Sum of electronic and thermal Energies=              -632.178235
 Sum of electronic and thermal Enthalpies=            -632.177291
 Sum of electronic and thermal Free Energies=         -632.238614

                     E (Thermal)             CV                S
                      KCal/Mol        Cal/Mol-Kelvin    Cal/Mol-Kelvin
 Total                  157.986             57.282            129.066
 Electronic               0.000              0.000              0.000
 Translational            0.889              2.981             41.553
 Rotational               0.889              2.981             31.573
 Vibrational            156.209             51.320             55.939
 Vibration     1          0.594              1.982              5.456
 Vibration     2          0.595              1.978              4.867
 Vibration     3          0.597              1.971              4.322
 Vibration     4          0.599              1.965              3.985
 Vibration     5          0.602              1.955              3.620
 Vibration     6          0.606              1.942              3.286
 Vibration     7          0.612              1.924              2.957
 Vibration     8          0.612              1.922              2.926
 Vibration     9          0.616              1.909              2.743
 Vibration    10          0.632              1.859              2.268
 Vibration    11          0.637              1.844              2.159
 Vibration    12          0.658              1.778              1.799
 Vibration    13          0.660              1.771              1.766
 Vibration    14          0.675              1.725              1.585
 Vibration    15          0.693              1.673              1.416
 Vibration    16          0.701              1.650              1.349
 Vibration    17          0.736              1.551              1.115
 Vibration    18          0.751              1.511              1.036
 Vibration    19          0.789              1.410              0.866
 Vibration    20          0.812              1.352              0.784
 Vibration    21          0.828              1.314              0.735
 Vibration    22          0.836              1.294              0.710
 Vibration    23          0.900              1.150              0.554
 Vibration    24          0.904              1.142              0.546
 Vibration    25          0.963              1.022              0.442

 Optimization completed.
    -- Stationary point found.
 Normal termination of Gaussian 16 at Sun Dec 13 12:52:01 2020.

 ----------------------------------------------------------------------
 # B3LYP/6-311++G(d,p) empiricaldispersion=gd3bj scf=xqc pop=npa geom=c
 heck
 ----------------------------------------------------------------------

 --------------------------------------
 CID_69206388_JID_3830_Energie_neutraal
 --------------------------------------
 Structure from the checkpoint file:  "JID_3830.chk"
 Charge =  0 Multiplicity = 1

 SCF Done:  E(RB3LYP) =  -632.643117888     A.U. after   15 cycles
 Normal termination of Gaussian 16 at Sun Dec 13 12:55:03 2020.

 ----------------------------------------------------------------------
 # B3LYP/6-311++G(d,p) empiricaldispersion=gd3bj scf=xqc pop=npa geom=c
 heck
 ----------------------------------------------------------------------

 ------------------------------------
 CID_69206388_JID_3830_Energie_kation
 ------------------------------------
 Structure from the checkpoint file:  "JID_3830.chk"
 Charge =  1 Multiplicity = 2

 SCF Done:  E(UB3LYP) =  -632.352156896     A.U. after   23 cycles
 Normal termination of Gaussian 16 at Sun Dec 13 13:01:33 2020.
 Gaussian 16:  ES64L-G16RevA.03 25-Dec-2016

 ----------------------------------------------------------------------
 # B3LYP/6-311++G(d,p) empiricaldispersion=gd3bj scf=xqc pop=npa geom=c
 heck
 ----------------------------------------------------------------------

 -----------------------------------
 CID_69206388_JID_3830_Energie_anion
 -----------------------------------
 Structure from the checkpoint file:  "JID_3830.chk"
 Charge = -1 Multiplicity = 2

                         Standard orientation:
 ---------------------------------------------------------------------
 Center     Atomic      Atomic             Coordinates (Angstroms)
 Number     Number       Type             X           Y           Z
 ---------------------------------------------------------------------
      1          6           0       -3.043018   -0.125034    0.922403
      2          6           0       -2.508348   -0.163805   -0.506490
      3          6           0       -1.032174    0.175406   -0.576165
      4          6           0       -0.087516   -0.760804   -0.120616
      5          6           0        1.263884   -0.441686   -0.119714
      6          6           0        1.701480    0.817998   -0.580616
      7          6           0        0.769261    1.737739   -1.044303
      8          6           0       -0.591976    1.411579   -1.043674
      9          8           0        3.029374    1.120504   -0.576443
     10          8           0        2.286838   -1.258723    0.296921
     11          6           0        1.944528   -2.546267    0.786830
     12          8           0       -2.768072   -1.484546   -0.997281
     13          7           0       -0.557761    1.910637    2.338994
     14          1           0       -2.554430   -0.903568    1.518923
     15          1           0       -4.120852   -0.316703    0.926299
     16          1           0       -2.834430    0.841322    1.390048
     17          1           0       -3.058186    0.576092   -1.110365
     18          1           0       -0.436589   -1.731308    0.212766
     19          1           0        1.122282    2.696510   -1.410420
     20          1           0       -1.315936    2.138180   -1.402783
     21          1           0        3.493646    0.338800   -0.228709
     22          1           0        1.290230   -2.473574    1.664643
     23          1           0        1.445621   -3.143876    0.013956
     24          1           0        2.884179   -3.023432    1.068797
     25          1           0       -2.378766   -1.539002   -1.884540
     26          1           0        0.054547    2.222687    3.092295
     27          1           0       -0.345539    0.924773    2.191587
     28          1           0       -0.223304    2.369997    1.493041
 ---------------------------------------------------------------------

 SCF Done:  E(UB3LYP) =  -632.632337803     A.U. after   30 cycles

 The electronic state is 2-A.
 Alpha  occ. eigenvalues --  -19.06600 -19.05742 -19.02666 -14.18327 -10.14074
 Alpha  occ. eigenvalues --  -10.13898 -10.13088 -10.12110 -10.08184 -10.08013
 Alpha  occ. eigenvalues --  -10.07942 -10.07872 -10.05878  -0.98823  -0.95906
 Alpha  occ. eigenvalues --   -0.92839  -0.76349  -0.74526  -0.68198  -0.66248
 Alpha  occ. eigenvalues --   -0.63367  -0.60407  -0.53745  -0.51614  -0.48848
 Alpha  occ. eigenvalues --   -0.46265  -0.43244  -0.42261  -0.39374  -0.37690
 Alpha  occ. eigenvalues --   -0.36140  -0.35681  -0.35057  -0.34931  -0.33406
 Alpha  occ. eigenvalues --   -0.32611  -0.32147  -0.31436  -0.29781  -0.28388
 Alpha  occ. eigenvalues --   -0.27293  -0.26032  -0.25318  -0.25101  -0.23444
 Alpha  occ. eigenvalues --   -0.22700  -0.18785  -0.16638  -0.15071  -0.11992
 Alpha  occ. eigenvalues --    0.04289
 Alpha virt. eigenvalues --    0.06500   0.07176   0.07820   0.08164   0.08524
 Alpha virt. eigenvalues --    0.08805   0.09424   0.09872   0.10676   0.11193
 Alpha virt. eigenvalues --    0.12037   0.12954   0.13557   0.14076   0.14443

  Beta  occ. eigenvalues --  -19.06588 -19.05730 -19.02642 -14.18291 -10.14076
  Beta  occ. eigenvalues --  -10.13887 -10.13080 -10.12039 -10.08183 -10.08006
  Beta  occ. eigenvalues --  -10.07937 -10.07846 -10.05867  -0.98801  -0.95883
  Beta  occ. eigenvalues --   -0.92785  -0.76328  -0.74441  -0.68167  -0.66217
  Beta  occ. eigenvalues --   -0.63326  -0.60335  -0.53713  -0.51550  -0.48812
  Beta  occ. eigenvalues --   -0.46236  -0.43191  -0.42216  -0.39342  -0.37645
  Beta  occ. eigenvalues --   -0.36101  -0.35634  -0.35014  -0.34889  -0.33365
  Beta  occ. eigenvalues --   -0.32575  -0.32114  -0.31396  -0.29759  -0.28369
  Beta  occ. eigenvalues --   -0.27264  -0.26009  -0.25268  -0.25067  -0.23416
  Beta  occ. eigenvalues --   -0.22671  -0.18758  -0.16599  -0.15026  -0.11953
  Beta virt. eigenvalues --    0.06464   0.07447   0.07845   0.08058   0.08470
  Beta virt. eigenvalues --    0.08929   0.09135   0.09705   0.09982   0.11455
  Beta virt. eigenvalues --    0.11827   0.12361   0.13197   0.13808   0.13944

 Mulliken charges and spin densities:
               1          2
     1  C   -0.187707  -0.372839
     2  C    1.050790  -1.127404
     3  C    1.349949  -0.451085
     4  C    0.588534  -0.596182
     5  C   -2.875674   2.274401
     6  C    0.202678  -0.331322
     7  C    0.547832  -0.853494
     8  C   -0.983228   0.420629
     9  O   -0.280070   0.030190
    10  O   -0.282170   0.063224
    11  C    1.543243  -1.896571
    12  O   -0.159338  -0.023564
    13  N   -0.517863  -0.182574
    14  H   -0.093800   0.247785
    15  H    0.098781   0.033902
    16  H    0.184541   0.018163
    17  H   -0.018376   0.193945
    18  H    0.660365  -0.417674
    19  H   -0.038710   0.218737
    20  H   -0.128221   0.278289
    21  H    0.028037   0.269773
    22  H   -0.464643   0.634050
    23  H   -0.496514   0.662452
    24  H   -1.126109   1.313028
    25  H   -0.033960   0.283279
    26  H   -0.045984   0.294787
    27  H    0.297335  -0.048754
    28  H    0.180283   0.064829
 Sum of Mulliken charges =  -1.00000   1.00000

 Dipole moment (field-independent basis, Debye):
    X=             -2.9408    Y=              4.5197    Z=             -3.0642  Tot=              6.2020
 Quadrupole moment (field-independent basis, Debye-Ang):
   XX=           -135.9953   YY=           -132.4000   ZZ=           -116.9553
   XY=             10.1944   XZ=             -3.8677   YZ=              0.0390

 Summary of Natural Population Analysis:

                                       Natural Population
                Natural  -----------------------------------------------
    Atom  No    Charge         Core      Valence    Rydberg      Total
 -----------------------------------------------------------------------
      C    1   -0.29127      0.99964     2.28608    0.00555     3.29127
      C    2    0.05896      0.99953     1.92763    0.01388     2.94104
      C    3   -0.03813      0.99949     2.02609    0.01255     3.03813
      C    4   -0.13664      0.99947     2.12676    0.01042     3.13664
      C    5    0.13525      0.99935     1.85144    0.01395     2.86475
      C    6    0.14307      0.99936     1.84271    0.01486     2.85693
      C    7   -0.12730      0.99953     2.11804    0.00973     3.12730
      C    8   -0.10764      0.99951     2.09903    0.00911     3.10764
      O    9   -0.34144      0.99988     3.33506    0.00650     4.34144
      O   10   -0.28559      0.99986     3.27335    0.01238     4.28559
      C   11   -0.09744      0.99960     2.08852    0.00932     3.09744
      O   12   -0.37223      0.99990     3.36576    0.00657     4.37223
      N   13   -0.52688      0.99981     3.01862    0.00845     4.02688
      H   14    0.10114      0.00000     0.39769    0.00117     0.39886
      H   15    0.09739      0.00000     0.40172    0.00089     0.40261
      H   16    0.11313      0.00000     0.38548    0.00139     0.38687
      H   17    0.07673      0.00000     0.42117    0.00210     0.42327
      H   18    0.11537      0.00000     0.38250    0.00213     0.38463
      H   19    0.10548      0.00000     0.39361    0.00091     0.39452
      H   20    0.10057      0.00000     0.39827    0.00116     0.39943
      H   21    0.24445      0.00000     0.25188    0.00367     0.25555
      H   22    0.08806      0.00000     0.40914    0.00279     0.41194
      H   23    0.08695      0.00000     0.41047    0.00259     0.41305
      H   24    0.09899      0.00000     0.39657    0.00443     0.40101
      H   25    0.23058      0.00000     0.26584    0.00358     0.26942
      H   26    0.17269      0.00000     0.32582    0.00149     0.32731
      H   27    0.17857      0.00000     0.31966    0.00177     0.32143
      H   28    0.17716      0.00000     0.32090    0.00193     0.32284
 =======================================================================
   * Total *    0.00000     12.99491    36.83980    0.16529    50.00000

 Normal termination of Gaussian 16 at Sun Dec 13 13:09:59 2020.
