 Gaussian 16, Revision A.03,

 -----------------------------------------------------------
 # opt freq B3LYP/6-31G(d) empiricaldispersion=gd3bj scf=xqc
 -----------------------------------------------------------

 ------------------------------
 CID_59337696_JID_4870_neutraal
 ------------------------------
 Symbolic Z-matrix:
 Charge =  0 Multiplicity = 1

 SCF Done:  E(RB3LYP) =  -560.399328252     A.U. after   14 cycles
 SCF Done:  E(RB3LYP) =  -560.401451100     A.U. after   11 cycles
 SCF Done:  E(RB3LYP) =  -560.401625859     A.U. after   10 cycles
 SCF Done:  E(RB3LYP) =  -560.401651034     A.U. after   10 cycles
 SCF Done:  E(RB3LYP) =  -560.401653988     A.U. after    8 cycles
 SCF Done:  E(RB3LYP) =  -560.401655487     A.U. after    8 cycles
 SCF Done:  E(RB3LYP) =  -560.401655989     A.U. after    7 cycles
 SCF Done:  E(RB3LYP) =  -560.401656917     A.U. after    8 cycles
 SCF Done:  E(RB3LYP) =  -560.401661685     A.U. after    9 cycles
 SCF Done:  E(RB3LYP) =  -560.382692594     A.U. after   13 cycles
 SCF Done:  E(RB3LYP) =  -560.403221882     A.U. after   10 cycles
 SCF Done:  E(RB3LYP) =  -560.403232467     A.U. after    9 cycles
 SCF Done:  E(RB3LYP) =  -560.403233102     A.U. after    8 cycles
 SCF Done:  E(RB3LYP) =  -560.403233485     A.U. after    7 cycles
 SCF Done:  E(RB3LYP) =  -560.403233602     A.U. after    7 cycles
 Optimization completed.
    -- Stationary point found.
 Normal termination of Gaussian 16 at Thu Dec 10 10:56:34 2020.

 --------------------------------------------------------------------
 #N Geom=AllCheck Guess=TCheck SCRF=Check GenChk RB3LYP/6-31G(d) Freq
 --------------------------------------------------------------------

 Structure from the checkpoint file:  "JID_4870.chk"
 ------------------------------
 CID_59337696_JID_4870_neutraal
 ------------------------------
 Charge =  0 Multiplicity = 1

 SCF Done:  E(RB3LYP) =  -560.403233602     A.U. after    1 cycles

  Exact polarizability: 160.596  -3.124 162.996  -3.357   0.367  88.710
 Approx polarizability: 233.363  -6.912 252.999  -9.445   2.569 132.452

                      1                      2                      3
                      A                      A                      A
 Frequencies --     56.2964                77.8649               101.2172
 Red. masses --      3.1157                 2.9166                 2.6228
 Frc consts  --      0.0058                 0.0104                 0.0158
 IR Inten    --      0.1797                 0.6200                 0.3182

                      4                      5                      6
                      A                      A                      A
 Frequencies --    152.3748               180.8544               203.0889
 Red. masses --      2.8986                 2.6584                 1.2383
 Frc consts  --      0.0397                 0.0512                 0.0301
 IR Inten    --      2.0489                 0.1871                 0.5454

                      7                      8                      9
                      A                      A                      A
 Frequencies --    208.6985               236.6370               244.3220
 Red. masses --      3.1284                 1.2668                 2.2716
 Frc consts  --      0.0803                 0.0418                 0.0799
 IR Inten    --      0.2900                 0.0963                 1.3142

                     10                     11                     12
                      A                      A                      A
 Frequencies --    296.7964               309.8555               384.9235
 Red. masses --      2.2342                 2.4690                 2.9197
 Frc consts  --      0.1160                 0.1397                 0.2549
 IR Inten    --      0.6124                 0.5118                 0.4532

                     13                     14                     15
                      A                      A                      A
 Frequencies --    416.1026               436.8063               480.6145
 Red. masses --      2.7317                 3.1916                 4.3824
 Frc consts  --      0.2787                 0.3588                 0.5964
 IR Inten    --      5.6145                 6.0500                 4.5234

                     16                     17                     18
                      A                      A                      A
 Frequencies --    491.5909               520.1671               543.5264
 Red. masses --      3.0760                 3.4540                 4.3822
 Frc consts  --      0.4380                 0.5506                 0.7627
 IR Inten    --      4.4643                 3.8286                 2.0283

                     19                     20                     21
                      A                      A                      A
 Frequencies --    580.9808               621.4548               737.0895
 Red. masses --      4.0399                 3.1828                 4.3957
 Frc consts  --      0.8034                 0.7242                 1.4071
 IR Inten    --      0.9556                 2.8567                 0.9113

                     22                     23                     24
                      A                      A                      A
 Frequencies --    750.4537               752.4366               756.5967
 Red. masses --      4.3997                 1.3080                 3.8096
 Frc consts  --      1.4599                 0.4363                 1.2849
 IR Inten    --      5.5117                42.1032                11.2815

                     25                     26                     27
                      A                      A                      A
 Frequencies --    791.1054               849.4417               856.7273
 Red. masses --      1.0729                 1.8305                 1.9201
 Frc consts  --      0.3956                 0.7782                 0.8303
 IR Inten    --      0.5249                 1.5936                 8.3319

                     28                     29                     30
                      A                      A                      A
 Frequencies --    873.0197               913.4311               923.0033
 Red. masses --      2.6119                 1.3776                 2.2467
 Frc consts  --      1.1729                 0.6772                 1.1277
 IR Inten    --      0.1862                 2.8461                 7.7234

                     31                     32                     33
                      A                      A                      A
 Frequencies --    938.1151               950.8810               956.2697
 Red. masses --      1.2483                 1.3480                 1.2931
 Frc consts  --      0.6472                 0.7181                 0.6967
 IR Inten    --      0.4889                 0.6008                 0.1538

                     34                     35                     36
                      A                      A                      A
 Frequencies --    958.3000               986.3167              1009.0718
 Red. masses --      1.3383                 2.2065                 2.7815
 Frc consts  --      0.7241                 1.2647                 1.6687
 IR Inten    --      0.2519                 7.1005                 5.9679

                     37                     38                     39
                      A                      A                      A
 Frequencies --   1061.8972              1064.6555              1072.1961
 Red. masses --      1.9839                 1.5643                 1.5908
 Frc consts  --      1.3181                 1.0447                 1.0775
 IR Inten    --      7.2947                 3.8971                 0.6952

                     40                     41                     42
                      A                      A                      A
 Frequencies --   1089.3162              1102.4780              1133.9858
 Red. masses --      1.6823                 2.8028                 2.9086
 Frc consts  --      1.1761                 2.0071                 2.2037
 IR Inten    --      1.1820                 2.8184                20.7791

                     43                     44                     45
                      A                      A                      A
 Frequencies --   1156.6899              1162.8068              1182.5728
 Red. masses --      2.1873                 1.6445                 1.8040
 Frc consts  --      1.7242                 1.3101                 1.4864
 IR Inten    --     11.6863                 5.4143                11.0301

                     46                     47                     48
                      A                      A                      A
 Frequencies --   1198.0995              1203.2275              1214.7577
 Red. masses --      1.2385                 1.3077                 1.4176
 Frc consts  --      1.0474                 1.1155                 1.2324
 IR Inten    --     11.1005                 0.1441                 7.5295

                     49                     50                     51
                      A                      A                      A
 Frequencies --   1226.4765              1281.6285              1283.6381
 Red. masses --      1.5966                 2.3464                 2.1485
 Frc consts  --      1.4150                 2.2707                 2.0858
 IR Inten    --     17.3484                23.1929               115.9564

                     52                     53                     54
                      A                      A                      A
 Frequencies --   1341.2155              1352.3941              1372.3110
 Red. masses --      1.8017                 2.8105                 1.3346
 Frc consts  --      1.9096                 3.0286                 1.4808
 IR Inten    --      6.8410                20.9554                 6.0371

                     55                     56                     57
                      A                      A                      A
 Frequencies --   1394.6110              1409.9240              1427.3469
 Red. masses --      2.2620                 2.2471                 1.2580
 Frc consts  --      2.5921                 2.6319                 1.5100
 IR Inten    --     51.8823                 8.0310                12.3451

                     58                     59                     60
                      A                      A                      A
 Frequencies --   1445.4823              1464.2629              1489.6896
 Red. masses --      1.2495                 1.6065                 1.0889
 Frc consts  --      1.5382                 2.0294                 1.4238
 IR Inten    --     18.3893                 1.1964                 1.9761

                     61                     62                     63
                      A                      A                      A
 Frequencies --   1511.0197              1515.1586              1520.8697
 Red. masses --      1.9521                 1.0634                 1.3253
 Frc consts  --      2.6260                 1.4384                 1.8061
 IR Inten    --     42.8198                 0.1788                 5.2122

                     64                     65                     66
                      A                      A                      A
 Frequencies --   1524.0055              1530.6648              1536.9207
 Red. masses --      1.3466                 1.1003                 1.6224
 Frc consts  --      1.8427                 1.5188                 2.2579
 IR Inten    --      9.0240                 7.9133                40.9521

                     67                     68                     69
                      A                      A                      A
 Frequencies --   1539.8615              1551.0317              1645.2175
 Red. masses --      1.1234                 1.2939                 6.1589
 Frc consts  --      1.5695                 1.8340                 9.8219
 IR Inten    --     15.4569                27.8384                 5.2993

                     70                     71                     72
                      A                      A                      A
 Frequencies --   1671.2460              2957.2176              3044.7241
 Red. masses --      6.4199                 1.0730                 1.0846
 Frc consts  --     10.5647                 5.5288                 5.9243
 IR Inten    --     57.9166                71.0667                18.1314

                     73                     74                     75
                      A                      A                      A
 Frequencies --   3055.7777              3062.7161              3067.9394
 Red. masses --      1.0363                 1.0379                 1.0898
 Frc consts  --      5.7014                 5.7363                 6.0433
 IR Inten    --     22.5856                22.8378                43.4210

                     76                     77                     78
                      A                      A                      A
 Frequencies --   3119.7957              3128.5993              3135.3600
 Red. masses --      1.1025                 1.1006                 1.0512
 Frc consts  --      6.3222                 6.3473                 6.0884
 IR Inten    --     27.0700                34.4769                20.8563

                     79                     80                     81
                      A                      A                      A
 Frequencies --   3138.0467              3139.5550              3145.1214
 Red. masses --      1.1013                 1.0574                 1.1015
 Frc consts  --      6.3898                 6.1409                 6.4194
 IR Inten    --     22.3095                15.2837                37.1307

                     82                     83                     84
                      A                      A                      A
 Frequencies --   3173.8661              3185.3670              3207.4817
 Red. masses --      1.0872                 1.0884                 1.0951
 Frc consts  --      6.4524                 6.5067                 6.6377
 IR Inten    --     11.1653                14.9212                33.2373

                     85                     86                     87
                      A                      A                      A
 Frequencies --   3211.7149              3228.3376              3234.9109
 Red. masses --      1.1195                 1.1167                 1.0910
 Frc consts  --      6.8036                 6.8574                 6.7265
 IR Inten    --      1.3072                17.2040                19.2295

 - Thermochemistry -
 -------------------
 Temperature   298.150 Kelvin.  Pressure   1.00000 Atm.
 Atom     1 has atomic number  6 and mass  12.00000

 Molecular mass:   187.13610 amu.
 Principal axes and moments of inertia in atomic units:
                           1         2         3
     Eigenvalues --  1975.172482739.484324148.44041
           X            0.99992   0.01283   0.00079
           Y           -0.01283   0.99992  -0.00196
           Z           -0.00082   0.00195   1.00000
 This molecule is an asymmetric top.
 Rotational symmetry number  1.
 Warning -- assumption of classical behavior for rotation
           may cause significant error
 Rotational temperatures (Kelvin)      0.04385     0.03162     0.02088
 Rotational constants (GHZ):           0.91371     0.65879     0.43504
 Zero-point vibrational energy     714533.2 (Joules/Mol)
                                  170.77753 (Kcal/Mol)
 Warning -- explicit consideration of  19 degrees of freedom as
           vibrations may cause significant error
 Vibrational temperatures:     81.00   112.03   145.63   219.23   260.21
          (Kelvin)            292.20   300.27   340.47   351.52   427.02
                              445.81   553.82   598.68   628.47   691.50
                              707.29   748.40   782.01   835.90   894.13
                             1060.51  1079.74  1082.59  1088.57  1138.22
                             1222.16  1232.64  1256.08  1314.22  1328.00
                             1349.74  1368.11  1375.86  1378.78  1419.09
                             1451.83  1527.83  1531.80  1542.65  1567.28
                             1586.22  1631.55  1664.22  1673.02  1701.46
                             1723.80  1731.18  1747.77  1764.63  1843.98
                             1846.87  1929.71  1945.79  1974.45  2006.53
                             2028.57  2053.63  2079.73  2106.75  2143.33
                             2174.02  2179.98  2188.19  2192.70  2202.29
                             2211.29  2215.52  2231.59  2367.10  2404.55
                             4254.78  4380.68  4396.58  4406.57  4414.08
                             4488.69  4501.36  4511.08  4514.95  4517.12
                             4525.13  4566.49  4583.03  4614.85  4620.94
                             4644.86  4654.32

 Zero-point correction=                           0.272151 (Hartree/Particle)
 Thermal correction to Energy=                    0.284977
 Thermal correction to Enthalpy=                  0.285921
 Thermal correction to Gibbs Free Energy=         0.233469
 Sum of electronic and zero-point Energies=           -560.131082
 Sum of electronic and thermal Energies=              -560.118257
 Sum of electronic and thermal Enthalpies=            -560.117313
 Sum of electronic and thermal Free Energies=         -560.169764

                     E (Thermal)             CV                S
                      KCal/Mol        Cal/Mol-Kelvin    Cal/Mol-Kelvin
 Total                  178.826             51.312            110.394
 Electronic               0.000              0.000              0.000
 Translational            0.889              2.981             41.586
 Rotational               0.889              2.981             31.485
 Vibrational            177.048             45.351             37.323
 Vibration     1          0.596              1.975              4.583
 Vibration     2          0.599              1.964              3.944
 Vibration     3          0.604              1.948              3.431
 Vibration     4          0.619              1.900              2.642
 Vibration     5          0.630              1.866              2.320
 Vibration     6          0.639              1.836              2.105
 Vibration     7          0.642              1.827              2.055
 Vibration     8          0.656              1.785              1.828
 Vibration     9          0.660              1.772              1.771
 Vibration    10          0.690              1.680              1.435
 Vibration    11          0.699              1.655              1.363
 Vibration    12          0.754              1.502              1.020
 Vibration    13          0.779              1.435              0.905
 Vibration    14          0.797              1.390              0.837
 Vibration    15          0.837              1.293              0.708
 Vibration    16          0.847              1.269              0.679
 Vibration    17          0.875              1.205              0.610
 Vibration    18          0.899              1.154              0.558
 Vibration    19          0.938              1.072              0.484

                           ! Non-Optimized Parameters !
 Normal termination of Gaussian 16 at Thu Dec 10 11:05:56 2020.

 ----------------------------------------------------------------------
 # B3LYP/6-311++G(d,p) empiricaldispersion=gd3bj scf=xqc pop=npa geom=c
 heck
 ----------------------------------------------------------------------

 --------------------------------------
 CID_59337696_JID_4870_Energie_neutraal
 --------------------------------------
 Structure from the checkpoint file:  "JID_4870.chk"
 Charge =  0 Multiplicity = 1

 SCF Done:  E(RB3LYP) =  -560.546933216     A.U. after   14 cycles
 Normal termination of Gaussian 16 at Thu Dec 10 11:09:26 2020.

 ----------------------------------------------------------------------
 # B3LYP/6-311++G(d,p) empiricaldispersion=gd3bj scf=xqc pop=npa geom=c
 heck
 ----------------------------------------------------------------------

 ------------------------------------
 CID_59337696_JID_4870_Energie_kation
 ------------------------------------
 Structure from the checkpoint file:  "JID_4870.chk"
 Charge =  1 Multiplicity = 2

 SCF Done:  E(UB3LYP) =  -560.297249406     A.U. after   19 cycles
 Normal termination of Gaussian 16 at Thu Dec 10 11:15:49 2020.
 Gaussian 16:  ES64L-G16RevA.03 25-Dec-2016

 ----------------------------------------------------------------------
 # B3LYP/6-311++G(d,p) empiricaldispersion=gd3bj scf=xqc pop=npa geom=c
 heck
 ----------------------------------------------------------------------

 -----------------------------------
 CID_59337696_JID_4870_Energie_anion
 -----------------------------------
 Structure from the checkpoint file:  "JID_4870.chk"
 Charge = -1 Multiplicity = 2

                         Standard orientation:
 ---------------------------------------------------------------------
 Center     Atomic      Atomic             Coordinates (Angstroms)
 Number     Number       Type             X           Y           Z
 ---------------------------------------------------------------------
      1          6           0        3.217803   -0.312191   -1.093667
      2          6           0        2.320566   -0.877176    0.014024
      3          6           0        2.715073   -0.374004    1.411557
      4          7           0        0.896980   -0.686391   -0.282754
      5          6           0       -0.010381   -1.765158    0.138857
      6          6           0       -1.404444   -1.152268    0.016362
      7          6           0       -2.462813   -1.756604   -0.885754
      8          6           0       -2.621167   -1.806952    0.611674
      9          6           0       -1.158785    0.317053    0.034633
     10          6           0       -2.039262    1.378705    0.153108
     11          6           0       -1.546125    2.690813    0.108218
     12          6           0       -0.179626    2.906123   -0.061062
     13          6           0        0.719942    1.839920   -0.189697
     14          6           0        0.224429    0.533667   -0.143311
     15          1           0        3.193424    0.780225   -1.129673
     16          1           0        2.895974   -0.689276   -2.069004
     17          1           0        4.257426   -0.614982   -0.925487
     18          1           0        2.458179   -1.965573    0.002292
     19          1           0        2.603743    0.711362    1.489627
     20          1           0        2.083567   -0.831105    2.181263
     21          1           0        3.757920   -0.627741    1.631392
     22          1           0        0.125958   -2.651868   -0.491002
     23          1           0        0.192134   -2.058335    1.184566
     24          1           0       -3.085763   -1.066916   -1.448913
     25          1           0       -2.217353   -2.677941   -1.408574
     26          1           0       -2.485562   -2.764050    1.110291
     27          1           0       -3.362674   -1.163684    1.078707
     28          1           0       -3.102970    1.196995    0.290048
     29          1           0       -2.225279    3.532038    0.207308
     30          1           0        0.205725    3.921825   -0.092058
     31          1           0        1.775440    2.042200   -0.321155
 ---------------------------------------------------------------------

 SCF Done:  E(UB3LYP) =  -560.531047864     A.U. after   33 cycles
 SCF Done:  E(UB3LYP) =  -560.531047864     a.u. after    1 cycles

 The electronic state is 2-A.
 Alpha  occ. eigenvalues --  -14.22261 -10.10825 -10.10805 -10.10167 -10.09542
 Alpha  occ. eigenvalues --  -10.08001 -10.07903 -10.07548 -10.07489 -10.07485
 Alpha  occ. eigenvalues --  -10.06933 -10.06787 -10.05881 -10.05841  -0.85926
 Alpha  occ. eigenvalues --   -0.77358  -0.74527  -0.69027  -0.65055  -0.63491
 Alpha  occ. eigenvalues --   -0.59442  -0.58910  -0.53030  -0.51162  -0.51021
 Alpha  occ. eigenvalues --   -0.47004  -0.45914  -0.40792  -0.39463  -0.38754
 Alpha  occ. eigenvalues --   -0.36910  -0.36310  -0.35467  -0.34225  -0.32988
 Alpha  occ. eigenvalues --   -0.32122  -0.30610  -0.29298  -0.28547  -0.28133
 Alpha  occ. eigenvalues --   -0.27660  -0.26457  -0.26195  -0.25311  -0.23600
 Alpha  occ. eigenvalues --   -0.23330  -0.21062  -0.20586  -0.18955  -0.14529
 Alpha  occ. eigenvalues --   -0.09147   0.04503
 Alpha virt. eigenvalues --    0.06435   0.06685   0.07818   0.08117   0.08373
 Alpha virt. eigenvalues --    0.08462   0.09291   0.09843   0.10175   0.10370
 Alpha virt. eigenvalues --    0.11027   0.11268   0.12478   0.12859   0.12950

  Beta  occ. eigenvalues --  -14.22262 -10.10810 -10.10801 -10.10140 -10.09542
  Beta  occ. eigenvalues --  -10.07980 -10.07885 -10.07543 -10.07483 -10.07480
  Beta  occ. eigenvalues --  -10.06923 -10.06779 -10.05849 -10.05812  -0.85914
  Beta  occ. eigenvalues --   -0.77346  -0.74511  -0.68996  -0.65035  -0.63464
  Beta  occ. eigenvalues --   -0.59407  -0.58851  -0.52991  -0.51107  -0.50980
  Beta  occ. eigenvalues --   -0.46969  -0.45877  -0.40757  -0.39437  -0.38711
  Beta  occ. eigenvalues --   -0.36873  -0.36283  -0.35432  -0.34193  -0.32960
  Beta  occ. eigenvalues --   -0.32090  -0.30577  -0.29268  -0.28510  -0.28107
  Beta  occ. eigenvalues --   -0.27631  -0.26435  -0.26162  -0.25278  -0.23578
  Beta  occ. eigenvalues --   -0.23289  -0.21046  -0.20561  -0.18939  -0.14513
  Beta  occ. eigenvalues --   -0.09134
  Beta virt. eigenvalues --    0.06491   0.07298   0.07435   0.08122   0.08578
  Beta virt. eigenvalues --    0.08728   0.09074   0.09548   0.10069   0.10684
  Beta virt. eigenvalues --    0.10895   0.11394   0.11625   0.12908   0.13108

 Mulliken charges and spin densities:
               1          2
     1  C    1.114397  -1.539156
     2  C   -1.611346   1.454477
     3  C    1.084749  -1.588173
     4  N    0.436564  -0.013624
     5  C    0.583956  -1.320750
     6  C    0.605373   0.475176
     7  C    0.540782  -1.098886
     8  C    0.041347  -0.454722
     9  C   -0.586487   0.834855
    10  C   -0.830128   0.364391
    11  C    0.196378  -0.711876
    12  C    0.803827  -1.083024
    13  C   -0.153659  -0.024903
    14  C   -0.409408   0.302667
    15  H   -0.307710   0.427437
    16  H   -0.000586   0.154254
    17  H   -0.338043   0.492412
    18  H   -0.711205   0.885928
    19  H   -0.048431   0.185687
    20  H   -0.016562   0.152207
    21  H   -0.333095   0.485168
    22  H   -0.299867   0.484551
    23  H   -0.037425   0.241622
    24  H    0.042161   0.111696
    25  H   -0.232138   0.381004
    26  H   -0.339216   0.496259
    27  H   -0.065192   0.210194
    28  H   -0.022823   0.166205
    29  H   -0.169116   0.309223
    30  H   -0.088635   0.244073
    31  H    0.151538  -0.024370
 Sum of Mulliken charges =  -1.00000   1.00000

 Dipole moment (field-independent basis, Debye):
    X=             -3.3952    Y=              4.1224    Z=             -0.2279  Tot=              5.3454
 Quadrupole moment (field-independent basis, Debye-Ang):
   XX=           -152.4245   YY=           -144.1501   ZZ=           -118.8870
   XY=              5.2276   XZ=             -0.1444   YZ=              0.4573

 Summary of Natural Population Analysis:

                                       Natural Population
                Natural  -----------------------------------------------
    Atom  No    Charge         Core      Valence    Rydberg      Total
 -----------------------------------------------------------------------
      C    1   -0.28413      0.99964     2.27809    0.00640     3.28413
      C    2   -0.00509      0.99960     1.99221    0.01327     3.00509
      C    3   -0.29333      0.99964     2.28793    0.00575     3.29333
      N    4   -0.25419      0.99965     2.74189    0.01265     3.75419
      C    5   -0.06363      0.99958     2.05346    0.01060     3.06363
      C    6   -0.05587      0.99953     2.04300    0.01334     3.05587
      C    7   -0.18461      0.99960     2.17609    0.00893     3.18461
      C    8   -0.18921      0.99959     2.18028    0.00933     3.18921
      C    9   -0.03334      0.99947     2.02023    0.01365     3.03334
      C   10   -0.08069      0.99953     2.07436    0.00681     3.08069
      C   11   -0.12739      0.99955     2.11703    0.01081     3.12739
      C   12   -0.09416      0.99956     2.08653    0.00807     3.09416
      C   13   -0.13524      0.99953     2.12409    0.01161     3.13524
      C   14    0.10375      0.99945     1.88515    0.01165     2.89625
      H   15    0.09447      0.00000     0.40405    0.00148     0.40553
      H   16    0.10352      0.00000     0.39519    0.00129     0.39648
      H   17    0.10148      0.00000     0.39727    0.00125     0.39852
      H   18    0.09837      0.00000     0.39857    0.00306     0.40163
      H   19    0.09933      0.00000     0.39943    0.00124     0.40067
      H   20    0.10162      0.00000     0.39736    0.00102     0.39838
      H   21    0.10271      0.00000     0.39614    0.00115     0.39729
      H   22    0.09986      0.00000     0.39788    0.00226     0.40014
      H   23    0.08850      0.00000     0.40963    0.00186     0.41150
      H   24    0.10206      0.00000     0.39693    0.00101     0.39794
      H   25    0.10421      0.00000     0.39452    0.00127     0.39579
      H   26    0.10562      0.00000     0.39300    0.00138     0.39438
      H   27    0.10237      0.00000     0.39653    0.00110     0.39763
      H   28    0.09645      0.00000     0.40155    0.00200     0.40355
      H   29    0.09706      0.00000     0.40127    0.00166     0.40294
      H   30    0.09738      0.00000     0.40106    0.00155     0.40262
      H   31    0.10216      0.00000     0.39612    0.00173     0.39784
 =======================================================================
   * Total *    0.00004     13.99392    36.83686    0.16918    50.99996

 Normal termination of Gaussian 16 at Thu Dec 10 11:26:26 2020.
