 Gaussian 16, Revision A.03,

 -----------------------------------------------------------
 # opt freq B3LYP/6-31G(d) empiricaldispersion=gd3bj scf=xqc
 -----------------------------------------------------------

 ------------------------------
 CID_60798696_JID_1051_neutraal
 ------------------------------
 Symbolic Z-matrix:
 Charge =  0 Multiplicity = 1

 SCF Done:  E(RB3LYP) =  -496.822827512     A.U. after   14 cycles
 SCF Done:  E(RB3LYP) =  -496.825516588     A.U. after   12 cycles
 SCF Done:  E(RB3LYP) =  -496.825905499     A.U. after   11 cycles
 SCF Done:  E(RB3LYP) =  -496.826068020     A.U. after   11 cycles
 SCF Done:  E(RB3LYP) =  -496.826200319     A.U. after   12 cycles
 SCF Done:  E(RB3LYP) =  -496.826293349     A.U. after   11 cycles
 SCF Done:  E(RB3LYP) =  -496.826337071     A.U. after   10 cycles
 SCF Done:  E(RB3LYP) =  -496.826347478     A.U. after   10 cycles
 SCF Done:  E(RB3LYP) =  -496.826350946     A.U. after   10 cycles
 SCF Done:  E(RB3LYP) =  -496.826352366     A.U. after   10 cycles
 SCF Done:  E(RB3LYP) =  -496.826352376     A.U. after    8 cycles
 SCF Done:  E(RB3LYP) =  -496.826352520     A.U. after    8 cycles
 Optimization completed.
    -- Stationary point found.
 Normal termination of Gaussian 16 at Tue Dec  8 19:11:06 2020.

 --------------------------------------------------------------------
 #N Geom=AllCheck Guess=TCheck SCRF=Check GenChk RB3LYP/6-31G(d) Freq
 --------------------------------------------------------------------

 Structure from the checkpoint file:  "JID_1051.chk"
 ------------------------------
 CID_60798696_JID_1051_neutraal
 ------------------------------
 Charge =  0 Multiplicity = 1

 SCF Done:  E(RB3LYP) =  -496.826352520     A.U. after    1 cycles

  Exact polarizability: 126.433  -9.091  88.555   4.693  11.238  70.722
 Approx polarizability: 173.773 -14.999 143.478  13.181  29.847 117.059

                      1                      2                      3
                      A                      A                      A
 Frequencies --     38.9153                59.6462                97.3394
 Red. masses --      3.5722                 3.3145                 3.9032
 Frc consts  --      0.0032                 0.0069                 0.0218
 IR Inten    --      0.1061                 0.2058                 0.5754

                      4                      5                      6
                      A                      A                      A
 Frequencies --    205.8780               219.5873               236.2089
 Red. masses --      1.2817                 3.4090                 1.2687
 Frc consts  --      0.0320                 0.0968                 0.0417
 IR Inten    --      1.3588                 3.1400                 5.3317

                      7                      8                      9
                      A                      A                      A
 Frequencies --    243.3491               273.5766               344.3924
 Red. masses --      1.9363                 1.7688                 2.0442
 Frc consts  --      0.0676                 0.0780                 0.1429
 IR Inten    --     24.9119                66.4057                19.7654

                     10                     11                     12
                      A                      A                      A
 Frequencies --    356.3305               384.2834               414.2521
 Red. masses --      3.4099                 2.0699                 2.4865
 Frc consts  --      0.2551                 0.1801                 0.2514
 IR Inten    --     12.8613                 9.1602                 1.3158

                     13                     14                     15
                      A                      A                      A
 Frequencies --    425.9999               524.4186               566.9092
 Red. masses --      5.2202                 3.7179                 4.8395
 Frc consts  --      0.5582                 0.6024                 0.9164
 IR Inten    --     18.1830                 3.1633                 8.4258

                     16                     17                     18
                      A                      A                      A
 Frequencies --    624.3316               689.2025               784.9954
 Red. masses --      8.0937                 4.8072                 3.2835
 Frc consts  --      1.8588                 1.3453                 1.1921
 IR Inten    --      1.7652                13.0915                 0.4234

                     19                     20                     21
                      A                      A                      A
 Frequencies --    830.3737               862.2261               878.9929
 Red. masses --      1.9979                 2.9888                 1.7027
 Frc consts  --      0.8116                 1.3091                 0.7751
 IR Inten    --     17.5869                 3.1402                 5.6012

                     22                     23                     24
                      A                      A                      A
 Frequencies --    940.3115               947.3261               969.0627
 Red. masses --      1.5073                 1.5144                 1.3362
 Frc consts  --      0.7852                 0.8007                 0.7393
 IR Inten    --      1.5810                 7.9939                 0.5811

                     25                     26                     27
                      A                      A                      A
 Frequencies --    979.7500               982.5088              1039.4066
 Red. masses --      1.4374                 1.4736                 5.4221
 Frc consts  --      0.8129                 0.8381                 3.4514
 IR Inten    --      0.6385                 0.1311                28.8714

                     28                     29                     30
                      A                      A                      A
 Frequencies --   1080.4474              1093.3341              1137.6166
 Red. masses --      4.3184                 3.0169                 2.0937
 Frc consts  --      2.9702                 2.1248                 1.5965
 IR Inten    --     24.6073                46.7998                 6.6795

                     31                     32                     33
                      A                      A                      A
 Frequencies --   1161.9641              1197.7906              1202.5716
 Red. masses --      2.1199                 1.6614                 1.7423
 Frc consts  --      1.6863                 1.4044                 1.4846
 IR Inten    --      8.3518                27.2831                 7.5203

                     34                     35                     36
                      A                      A                      A
 Frequencies --   1220.7922              1253.9721              1271.3830
 Red. masses --      1.5458                 4.9059                 1.8357
 Frc consts  --      1.3573                 4.5451                 1.7482
 IR Inten    --     34.2707                18.2421                 7.9217

                     37                     38                     39
                      A                      A                      A
 Frequencies --   1318.1569              1342.5022              1364.1452
 Red. masses --      1.4058                 1.3384                 1.3613
 Frc consts  --      1.4392                 1.4213                 1.4925
 IR Inten    --     12.6664                 9.5120                 0.2086

                     40                     41                     42
                      A                      A                      A
 Frequencies --   1396.6865              1423.5226              1440.5387
 Red. masses --      1.2888                 1.3078                 1.4984
 Frc consts  --      1.4812                 1.5614                 1.8320
 IR Inten    --      5.0607                 7.6716                17.2213

                     43                     44                     45
                      A                      A                      A
 Frequencies --   1450.6644              1451.9255              1516.8372
 Red. masses --      2.0211                 1.2686                 1.0510
 Frc consts  --      2.5059                 1.5756                 1.4247
 IR Inten    --     34.7329                 7.5241                 0.8475

                     46                     47                     48
                      A                      A                      A
 Frequencies --   1523.8213              1526.3586              1534.1088
 Red. masses --      1.5593                 1.3230                 1.0567
 Frc consts  --      2.1333                 1.8161                 1.4652
 IR Inten    --      8.4323                 4.4408                 3.2675

                     49                     50                     51
                      A                      A                      A
 Frequencies --   1549.7392              1598.3570              1633.8321
 Red. masses --      1.0525                 8.4569                 5.0217
 Frc consts  --      1.4893                12.7295                 7.8980
 IR Inten    --     11.3971                 4.6792                 2.5969

                     52                     53                     54
                      A                      A                      A
 Frequencies --   3008.0601              3033.7471              3038.7156
 Red. masses --      1.0828                 1.0754                 1.0465
 Frc consts  --      5.7728                 5.8316                 5.6935
 IR Inten    --     16.5338                12.5548                37.8700

                     55                     56                     57
                      A                      A                      A
 Frequencies --   3053.2908              3103.4745              3112.4050
 Red. masses --      1.0392                 1.1005                 1.1019
 Frc consts  --      5.7083                 6.2450                 6.2891
 IR Inten    --     27.1850                27.5144                22.9419

                     58                     59                     60
                      A                      A                      A
 Frequencies --   3118.0927              3145.3978              3174.9594
 Red. masses --      1.1000                 1.0991                 1.0873
 Frc consts  --      6.3011                 6.4069                 6.4578
 IR Inten    --     45.5843                26.0406                 5.5936

                     61                     62                     63
                      A                      A                      A
 Frequencies --   3193.7786              3216.2098              3774.6846
 Red. masses --      1.0964                 1.0919                 1.0659
 Frc consts  --      6.5890                 6.6547                 8.9478
 IR Inten    --     52.1613                 3.7535                17.7312

 - Thermochemistry -
 -------------------
 Temperature   298.150 Kelvin.  Pressure   1.00000 Atm.
 Atom     1 has atomic number  6 and mass  12.00000

 Molecular mass:   152.09496 amu.
 Principal axes and moments of inertia in atomic units:
                           1         2         3
     Eigenvalues --   817.633812476.395012880.22508
           X            0.99998   0.00089  -0.00572
           Y           -0.00093   0.99997  -0.00702
           Z            0.00572   0.00703   0.99996
 This molecule is an asymmetric top.
 Rotational symmetry number  1.
 Warning -- assumption of classical behavior for rotation
           may cause significant error
 Rotational temperatures (Kelvin)      0.10593     0.03498     0.03007
 Rotational constants (GHZ):           2.20727     0.72878     0.62660
 Zero-point vibrational energy     511902.8 (Joules/Mol)
                                  122.34770 (Kcal/Mol)
 Warning -- explicit consideration of  15 degrees of freedom as
           vibrations may cause significant error
 Vibrational temperatures:     55.99    85.82   140.05   296.21   315.94
          (Kelvin)            339.85   350.13   393.62   495.50   512.68
                              552.90   596.02   612.92   754.52   815.66
                              898.27   991.61  1129.43  1194.72  1240.55
                             1264.67  1352.90  1362.99  1394.27  1409.64
                             1413.61  1495.47  1554.52  1573.06  1636.78
                             1671.81  1723.35  1730.23  1756.45  1804.19
                             1829.24  1896.53  1931.56  1962.70  2009.52
                             2048.13  2072.61  2087.18  2089.00  2182.39
                             2192.44  2196.09  2207.24  2229.73  2299.68
                             2350.72  4327.93  4364.89  4372.03  4393.00
                             4465.21  4478.06  4486.24  4525.53  4568.06
                             4595.14  4627.41  5430.93

 Zero-point correction=                           0.194973 (Hartree/Particle)
 Thermal correction to Energy=                    0.205809
 Thermal correction to Enthalpy=                  0.206754
 Thermal correction to Gibbs Free Energy=         0.158017
 Sum of electronic and zero-point Energies=           -496.631379
 Sum of electronic and thermal Energies=              -496.620543
 Sum of electronic and thermal Enthalpies=            -496.619599
 Sum of electronic and thermal Free Energies=         -496.668335

                     E (Thermal)             CV                S
                      KCal/Mol        Cal/Mol-Kelvin    Cal/Mol-Kelvin
 Total                  129.147             40.517            102.574
 Electronic               0.000              0.000              0.000
 Translational            0.889              2.981             40.968
 Rotational               0.889              2.981             30.146
 Vibrational            127.370             34.556             31.461
 Vibration     1          0.594              1.981              5.314
 Vibration     2          0.597              1.974              4.469
 Vibration     3          0.603              1.951              3.507
 Vibration     4          0.640              1.832              2.080
 Vibration     5          0.647              1.811              1.962
 Vibration     6          0.655              1.785              1.831
 Vibration     7          0.659              1.774              1.778
 Vibration     8          0.676              1.722              1.574
 Vibration     9          0.723              1.587              1.192
 Vibration    10          0.732              1.562              1.138
 Vibration    11          0.753              1.504              1.022
 Vibration    12          0.778              1.439              0.912
 Vibration    13          0.788              1.414              0.872
 Vibration    14          0.879              1.196              0.600
 Vibration    15          0.923              1.103              0.510

 Optimization completed.
    -- Stationary point found.
 Normal termination of Gaussian 16 at Tue Dec  8 19:15:25 2020.

 ----------------------------------------------------------------------
 # B3LYP/6-311++G(d,p) empiricaldispersion=gd3bj scf=xqc pop=npa geom=c
 heck
 ----------------------------------------------------------------------

 --------------------------------------
 CID_60798696_JID_1051_Energie_neutraal
 --------------------------------------
 Structure from the checkpoint file:  "JID_1051.chk"
 Charge =  0 Multiplicity = 1

 SCF Done:  E(RB3LYP) =  -496.970760748     A.U. after   15 cycles
 Normal termination of Gaussian 16 at Tue Dec  8 19:16:59 2020.

 ----------------------------------------------------------------------
 # B3LYP/6-311++G(d,p) empiricaldispersion=gd3bj scf=xqc pop=npa geom=c
 heck
 ----------------------------------------------------------------------

 ------------------------------------
 CID_60798696_JID_1051_Energie_kation
 ------------------------------------
 Structure from the checkpoint file:  "JID_1051.chk"
 Charge =  1 Multiplicity = 2

 SCF Done:  E(UB3LYP) =  -496.638265708     A.U. after   27 cycles
 Normal termination of Gaussian 16 at Tue Dec  8 19:20:37 2020.
 Gaussian 16:  ES64L-G16RevA.03 25-Dec-2016

 ----------------------------------------------------------------------
 # B3LYP/6-311++G(d,p) empiricaldispersion=gd3bj scf=xqc pop=npa geom=c
 heck
 ----------------------------------------------------------------------

 -----------------------------------
 CID_60798696_JID_1051_Energie_anion
 -----------------------------------
 Structure from the checkpoint file:  "JID_1051.chk"
 Charge = -1 Multiplicity = 2

                         Standard orientation:
 ---------------------------------------------------------------------
 Center     Atomic      Atomic             Coordinates (Angstroms)
 Number     Number       Type             X           Y           Z
 ---------------------------------------------------------------------
      1          6           0        1.644342    1.823064   -0.464995
      2          6           0        1.848036    0.303397   -0.468984
      3          6           0        3.326739   -0.037959   -0.238623
      4          6           0        0.951100   -0.396800    0.584095
      5          6           0       -0.518656   -0.195309    0.296356
      6          7           0       -1.121375    0.857069    0.864145
      7          6           0       -2.412338    1.040482    0.564709
      8          6           0       -3.101333    0.183294   -0.291705
      9          7           0       -2.508271   -0.874369   -0.858916
     10          6           0       -1.219418   -1.057813   -0.559210
     11          8           0        1.167948   -1.807988    0.610302
     12          1           0        1.904585    2.249064    0.511617
     13          1           0        0.608477    2.099494   -0.676025
     14          1           0        2.285325    2.293652   -1.218548
     15          1           0        1.551791   -0.093957   -1.450052
     16          1           0        3.649327    0.266875    0.766002
     17          1           0        3.528156   -1.108217   -0.360644
     18          1           0        3.959159    0.489431   -0.960464
     19          1           0        1.157978    0.049557    1.568939
     20          1           0       -2.908416    1.892543    1.024879
     21          1           0       -4.151088    0.347600   -0.525262
     22          1           0       -0.721609   -1.918023   -0.995844
     23          1           0        2.089426   -1.957150    0.866537
 ---------------------------------------------------------------------

 SCF Done:  E(UB3LYP) =  -496.968237478     A.U. after   32 cycles

 The electronic state is 2-A.
 Alpha  occ. eigenvalues --  -19.00312 -14.15325 -14.15303 -10.09821 -10.06074
 Alpha  occ. eigenvalues --  -10.06067 -10.06016 -10.05774 -10.05419 -10.04897
 Alpha  occ. eigenvalues --  -10.04373  -0.90698  -0.82370  -0.75166  -0.68795
 Alpha  occ. eigenvalues --   -0.63392  -0.57424  -0.56164  -0.50815  -0.48644
 Alpha  occ. eigenvalues --   -0.45027  -0.40422  -0.37052  -0.35455  -0.34453
 Alpha  occ. eigenvalues --   -0.33544  -0.31519  -0.30324  -0.28214  -0.27517
 Alpha  occ. eigenvalues --   -0.27254  -0.25766  -0.24414  -0.22591  -0.22465
 Alpha  occ. eigenvalues --   -0.20953  -0.18340  -0.16160  -0.15026  -0.12273
 Alpha  occ. eigenvalues --   -0.09674   0.05046
 Alpha virt. eigenvalues --    0.07011   0.08978   0.09163   0.10028   0.10725
 Alpha virt. eigenvalues --    0.11647   0.11803   0.12414   0.12547   0.13411
 Alpha virt. eigenvalues --    0.13805   0.14840   0.15501   0.17173   0.17976

  Beta  occ. eigenvalues --  -19.00284 -14.14820 -14.14790 -10.09825 -10.06058
  Beta  occ. eigenvalues --  -10.06005 -10.05988 -10.05741 -10.05404 -10.04843
  Beta  occ. eigenvalues --  -10.04367  -0.90633  -0.81727  -0.74297  -0.68730
  Beta  occ. eigenvalues --   -0.63134  -0.57337  -0.56017  -0.50371  -0.48381
  Beta  occ. eigenvalues --   -0.44923  -0.40310  -0.36894  -0.35238  -0.34334
  Beta  occ. eigenvalues --   -0.33414  -0.31432  -0.30238  -0.28083  -0.27229
  Beta  occ. eigenvalues --   -0.26888  -0.25061  -0.24280  -0.22539  -0.22424
  Beta  occ. eigenvalues --   -0.20868  -0.16425  -0.15465  -0.14470  -0.11451
  Beta  occ. eigenvalues --   -0.09133
  Beta virt. eigenvalues --    0.07765   0.09100   0.09502   0.10175   0.10863
  Beta virt. eigenvalues --    0.11145   0.11668   0.11988   0.12617   0.12679
  Beta virt. eigenvalues --    0.13494   0.13945   0.14883   0.15697   0.17184

 Mulliken charges and spin densities:
               1          2
     1  C   -0.591853  -0.160383
     2  C   -1.169121   1.735116
     3  C    1.535238  -2.127440
     4  C    0.171873  -0.889543
     5  C   -0.286824   0.184142
     6  N   -0.043237   0.226127
     7  C    0.040129   0.067433
     8  C   -0.261797   0.051311
     9  N   -0.107798   0.219486
    10  C   -0.293043   0.061373
    11  O   -0.198755   0.013782
    12  H    0.095128   0.036018
    13  H    0.149803   0.017260
    14  H    0.058480   0.055063
    15  H    0.195302  -0.037232
    16  H   -0.168091   0.308581
    17  H   -0.313292   0.424350
    18  H   -0.481653   0.622009
    19  H    0.245565  -0.049209
    20  H    0.132090  -0.003765
    21  H    0.125506  -0.004130
    22  H    0.157501   0.019072
    23  H    0.008847   0.230580
 Sum of Mulliken charges =  -1.00000   1.00000

 Dipole moment (field-independent basis, Debye):
    X=             -1.6196    Y=              2.2600    Z=              0.1745  Tot=              2.7859
 Quadrupole moment (field-independent basis, Debye-Ang):
   XX=           -123.3878   YY=            -89.4794   ZZ=            -83.2116
   XY=             -2.1131   XZ=             -0.3309   YZ=             -0.9266

 Summary of Natural Population Analysis:

                                       Natural Population
                Natural  -----------------------------------------------
    Atom  No    Charge         Core      Valence    Rydberg      Total
 -----------------------------------------------------------------------
      C    1   -0.28702      0.99965     2.28128    0.00609     3.28702
      C    2   -0.11876      0.99959     2.10989    0.00928     3.11876
      C    3   -0.29076      0.99965     2.28401    0.00710     3.29076
      C    4    0.05565      0.99948     1.92891    0.01595     2.94435
      C    5    0.08585      0.99952     1.89645    0.01818     2.91415
      N    6   -0.17086      0.99968     2.65897    0.01222     3.67086
      C    7    0.00082      0.99960     1.98613    0.01345     2.99918
      C    8   -0.00489      0.99960     1.99094    0.01435     3.00489
      N    9   -0.15998      0.99971     2.64780    0.01246     3.65998
      C   10    0.00852      0.99954     1.97955    0.01239     2.99148
      O   11   -0.37167      0.99989     3.36562    0.00616     4.37167
      H   12    0.09610      0.00000     0.40298    0.00091     0.40390
      H   13    0.10981      0.00000     0.38936    0.00083     0.39019
      H   14    0.09315      0.00000     0.40610    0.00075     0.40685
      H   15    0.09475      0.00000     0.40322    0.00203     0.40525
      H   16    0.09529      0.00000     0.40334    0.00137     0.40471
      H   17    0.09830      0.00000     0.40024    0.00145     0.40170
      H   18    0.10197      0.00000     0.39657    0.00146     0.39803
      H   19    0.08133      0.00000     0.41638    0.00229     0.41867
      H   20    0.08080      0.00000     0.41785    0.00135     0.41920
      H   21    0.08016      0.00000     0.41840    0.00144     0.41984
      H   22    0.09158      0.00000     0.40594    0.00248     0.40842
      H   23    0.22986      0.00000     0.26704    0.00309     0.27014
 =======================================================================
   * Total *    0.00000     10.99591    29.85701    0.14708    41.00000

 Normal termination of Gaussian 16 at Tue Dec  8 19:24:56 2020.
