 Gaussian 16, Revision A.03,

 -----------------------------------------------------------
 # opt freq B3LYP/6-31G(d) empiricaldispersion=gd3bj scf=xqc
 -----------------------------------------------------------

 -------------------------------
 CID_116779738_JID_6324_neutraal
 -------------------------------
 Symbolic Z-matrix:
 Charge =  0 Multiplicity = 1

 SCF Done:  E(RB3LYP) =  -709.460512505     A.U. after   14 cycles
 SCF Done:  E(RB3LYP) =  -709.464562351     A.U. after   12 cycles
 SCF Done:  E(RB3LYP) =  -709.465031808     A.U. after   11 cycles
 SCF Done:  E(RB3LYP) =  -709.465248988     A.U. after   11 cycles
 SCF Done:  E(RB3LYP) =  -709.465335531     A.U. after   11 cycles
 SCF Done:  E(RB3LYP) =  -709.465407585     A.U. after   11 cycles
 SCF Done:  E(RB3LYP) =  -709.465455096     A.U. after   10 cycles
 SCF Done:  E(RB3LYP) =  -709.465460946     A.U. after    9 cycles
 SCF Done:  E(RB3LYP) =  -709.465463644     A.U. after    8 cycles
 SCF Done:  E(RB3LYP) =  -709.465464457     A.U. after    8 cycles
 SCF Done:  E(RB3LYP) =  -709.465464774     A.U. after    7 cycles
 SCF Done:  E(RB3LYP) =  -709.465465089     A.U. after    8 cycles
 SCF Done:  E(RB3LYP) =  -709.465465142     A.U. after    6 cycles
 SCF Done:  E(RB3LYP) =  -709.465465189     A.U. after    6 cycles
 SCF Done:  E(RB3LYP) =  -709.465465265     A.U. after    7 cycles
 SCF Done:  E(RB3LYP) =  -709.465465315     A.U. after    6 cycles
 Optimization completed.
    -- Stationary point found.
 Normal termination of Gaussian 16 at Thu Dec 10 22:16:02 2020.

 --------------------------------------------------------------------
 #N Geom=AllCheck Guess=TCheck SCRF=Check GenChk RB3LYP/6-31G(d) Freq
 --------------------------------------------------------------------

 Structure from the checkpoint file:  "JID_6324.chk"
 -------------------------------
 CID_116779738_JID_6324_neutraal
 -------------------------------
 Charge =  0 Multiplicity = 1

 SCF Done:  E(RB3LYP) =  -709.465465315     A.U. after    1 cycles

  Exact polarizability: 175.688   0.161 123.974   0.790   1.899 134.587
 Approx polarizability: 224.077   5.210 174.036   5.564   8.502 211.988

                      1                      2                      3
                      A                      A                      A
 Frequencies --     17.1400                39.8473                63.4256
 Red. masses --      3.8683                 1.8715                 3.2116
 Frc consts  --      0.0007                 0.0018                 0.0076
 IR Inten    --      1.2575                 0.2236                 0.6978

                      4                      5                      6
                      A                      A                      A
 Frequencies --     82.0842                85.6259               112.1178
 Red. masses --      3.2339                 3.6257                 3.6384
 Frc consts  --      0.0128                 0.0157                 0.0269
 IR Inten    --      4.7896                 1.2910                 4.2475

                      7                      8                      9
                      A                      A                      A
 Frequencies --    132.4707               168.1558               192.8928
 Red. masses --      2.7265                 3.4984                 2.7545
 Frc consts  --      0.0282                 0.0583                 0.0604
 IR Inten    --      0.5591                 2.3582                 3.3375

                     10                     11                     12
                      A                      A                      A
 Frequencies --    237.8901               261.8130               269.0723
 Red. masses --      1.7307                 2.1000                 1.4962
 Frc consts  --      0.0577                 0.0848                 0.0638
 IR Inten    --      1.7792                 2.8735                 3.3938

                     13                     14                     15
                      A                      A                      A
 Frequencies --    297.6962               318.1251               325.5241
 Red. masses --      3.4438                 1.8454                 2.9088
 Frc consts  --      0.1798                 0.1100                 0.1816
 IR Inten    --      4.3522                18.2105                 9.8733

                     16                     17                     18
                      A                      A                      A
 Frequencies --    348.3064               372.0577               387.1373
 Red. masses --      2.6039                 2.7187                 2.0230
 Frc consts  --      0.1861                 0.2217                 0.1786
 IR Inten    --     19.7516                 4.8687                 0.7064

                     19                     20                     21
                      A                      A                      A
 Frequencies --    440.9295               473.6865               506.0641
 Red. masses --      3.2823                 3.8748                 2.3193
 Frc consts  --      0.3760                 0.5123                 0.3500
 IR Inten    --      3.9388                 2.5518                 2.8963

                     22                     23                     24
                      A                      A                      A
 Frequencies --    515.8174               539.0744               620.3334
 Red. masses --      2.1338                 3.6135                 1.6539
 Frc consts  --      0.3345                 0.6187                 0.3750
 IR Inten    --      8.9536                 2.8167                40.8987

                     25                     26                     27
                      A                      A                      A
 Frequencies --    654.4630               688.5942               715.6821
 Red. masses --      2.2891                 2.8805                 3.4311
 Frc consts  --      0.5777                 0.8047                 1.0354
 IR Inten    --     26.2441                 7.5308                 6.3479

                     28                     29                     30
                      A                      A                      A
 Frequencies --    765.7521               796.0372               836.3784
 Red. masses --      4.5141                 1.4818                 1.3305
 Frc consts  --      1.5595                 0.5532                 0.5484
 IR Inten    --      6.1347                 0.5009                 6.7353

                     31                     32                     33
                      A                      A                      A
 Frequencies --    836.7851               838.2086               858.2724
 Red. masses --      1.2582                 1.7906                 2.0997
 Frc consts  --      0.5191                 0.7412                 0.9113
 IR Inten    --     16.9307                 2.1351                12.9380

                     34                     35                     36
                      A                      A                      A
 Frequencies --    891.6153               916.5856               920.0754
 Red. masses --      1.2880                 2.6188                 2.0944
 Frc consts  --      0.6033                 1.2963                 1.0446
 IR Inten    --     90.5445                13.2396                 0.9379

                     37                     38                     39
                      A                      A                      A
 Frequencies --    925.6982               956.5553               990.8806
 Red. masses --      2.3334                 1.4336                 2.9011
 Frc consts  --      1.1781                 0.7729                 1.6782
 IR Inten    --      5.3177                 1.5702                24.7400

                     40                     41                     42
                      A                      A                      A
 Frequencies --    998.6042              1015.5899              1032.3517
 Red. masses --      2.2779                 1.8544                 4.2673
 Frc consts  --      1.3383                 1.1269                 2.6795
 IR Inten    --     22.2365                20.6592                15.9114

                     43                     44                     45
                      A                      A                      A
 Frequencies --   1051.2442              1061.8325              1085.9362
 Red. masses --      1.8839                 2.3913                 2.7611
 Frc consts  --      1.2266                 1.5885                 1.9184
 IR Inten    --      0.4964                 9.0485                 2.2034

                     46                     47                     48
                      A                      A                      A
 Frequencies --   1088.9731              1097.0044              1110.5706
 Red. masses --      1.6652                 1.7968                 3.2266
 Frc consts  --      1.1634                 1.2740                 2.3447
 IR Inten    --      2.2230                 6.1443                94.6514

                     49                     50                     51
                      A                      A                      A
 Frequencies --   1155.6564              1180.9707              1184.7767
 Red. masses --      2.1997                 1.6780                 1.6376
 Frc consts  --      1.7309                 1.3789                 1.3544
 IR Inten    --     43.4051                22.1963                21.9618

                     52                     53                     54
                      A                      A                      A
 Frequencies --   1189.8584              1195.1816              1200.9168
 Red. masses --      1.6089                 1.9019                 1.5514
 Frc consts  --      1.3421                 1.6007                 1.3183
 IR Inten    --     17.9139                 9.4051                 6.4310

                     55                     56                     57
                      A                      A                      A
 Frequencies --   1222.5477              1246.9598              1288.7481
 Red. masses --      1.6421                 2.0953                 1.9446
 Frc consts  --      1.4460                 1.9195                 1.9029
 IR Inten    --     72.6365                14.7824                13.2169

                     58                     59                     60
                      A                      A                      A
 Frequencies --   1297.0540              1309.9135              1316.0971
 Red. masses --      1.4104                 1.3420                 1.2522
 Frc consts  --      1.3980                 1.3567                 1.2779
 IR Inten    --     15.3815                 7.3875                12.6268

                     61                     62                     63
                      A                      A                      A
 Frequencies --   1318.4503              1321.8622              1371.1227
 Red. masses --      1.3025                 1.2158                 1.4408
 Frc consts  --      1.3340                 1.2517                 1.5959
 IR Inten    --     14.8863                 4.3897                 2.4699

                     64                     65                     66
                      A                      A                      A
 Frequencies --   1387.8205              1401.6625              1405.1646
 Red. masses --      1.4402                 1.4572                 1.5343
 Frc consts  --      1.6343                 1.6868                 1.7849
 IR Inten    --      0.9343                 3.8450                 8.6435

                     67                     68                     69
                      A                      A                      A
 Frequencies --   1412.9612              1421.8422              1428.5451
 Red. masses --      1.4806                 1.2409                 2.2473
 Frc consts  --      1.7416                 1.4781                 2.7021
 IR Inten    --      0.9280                 2.9606                14.5815

                     70                     71                     72
                      A                      A                      A
 Frequencies --   1437.3621              1450.6134              1453.3615
 Red. masses --      2.0359                 1.4113                 4.0205
 Frc consts  --      2.4783                 1.7497                 5.0036
 IR Inten    --     22.2135                20.7936                36.0923

                     73                     74                     75
                      A                      A                      A
 Frequencies --   1505.0786              1512.8338              1513.8141
 Red. masses --      1.0955                 1.0869                 1.0541
 Frc consts  --      1.4621                 1.4657                 1.4233
 IR Inten    --      0.5455                 0.8900                 5.3122

                     76                     77                     78
                      A                      A                      A
 Frequencies --   1516.8498              1523.4177              1526.2962
 Red. masses --      1.0877                 1.1607                 4.5659
 Frc consts  --      1.4745                 1.5871                 6.2669
 IR Inten    --      3.2917                 4.5215                10.2433

                     79                     80                     81
                      A                      A                      A
 Frequencies --   1531.5646              1535.7434              1536.2329
 Red. masses --      1.0453                 1.0887                 1.1015
 Frc consts  --      1.4446                 1.5129                 1.5317
 IR Inten    --      2.5235                 0.2057                 3.4791

                     82                     83                     84
                      A                      A                      A
 Frequencies --   1557.6385              1628.3473              1692.0650
 Red. masses --      1.0898                 4.8239                 1.1004
 Frc consts  --      1.5578                 7.5361                 1.8562
 IR Inten    --      2.9446                 8.4496                33.9442

                     85                     86                     87
                      A                      A                      A
 Frequencies --   2993.6386              2994.0155              3017.5819
 Red. masses --      1.0671                 1.0630                 1.0672
 Frc consts  --      5.6343                 5.6145                 5.7255
 IR Inten    --     70.7745                35.9538                31.9811

                     88                     89                     90
                      A                      A                      A
 Frequencies --   3033.1154              3036.6594              3042.0503
 Red. masses --      1.0598                 1.0949                 1.0977
 Frc consts  --      5.7445                 5.9487                 5.9850
 IR Inten    --     34.1302                38.9003                35.7753

                     91                     92                     93
                      A                      A                      A
 Frequencies --   3048.3732              3051.2076              3052.9124
 Red. masses --      1.0675                 1.0650                 1.0658
 Frc consts  --      5.8445                 5.8419                 5.8528
 IR Inten    --     16.2783                39.8736                25.4650

                     94                     95                     96
                      A                      A                      A
 Frequencies --   3057.7893              3069.3855              3072.7860
 Red. masses --      1.0353                 1.1013                 1.0917
 Frc consts  --      5.7032                 6.1129                 6.0732
 IR Inten    --     22.8977                47.4982                67.0770

                     97                     98                     99
                      A                      A                      A
 Frequencies --   3092.4871              3099.8512              3127.1459
 Red. masses --      1.1036                 1.1004                 1.1010
 Frc consts  --      6.2183                 6.2300                 6.3436
 IR Inten    --     20.8316                68.7654                31.8258

                    100                    101                    102
                      A                      A                      A
 Frequencies --   3127.4370              3136.9810              3251.9021
 Red. masses --      1.0972                 1.1034                 1.0966
 Frc consts  --      6.3226                 6.3976                 6.8326
 IR Inten    --     14.2430                27.2488                14.6412

                    103                    104                    105
                      A                      A                      A
 Frequencies --   3467.4013              3556.1694              3647.6289
 Red. masses --      1.0499                 1.0929                 1.0797
 Frc consts  --      7.4370                 8.1434                 8.4642
 IR Inten    --      2.0135                 0.6162                51.2806

 - Thermochemistry -
 -------------------
 Temperature   298.150 Kelvin.  Pressure   1.00000 Atm.
 Atom     1 has atomic number  6 and mass  12.00000

 Molecular mass:   223.16846 amu.
 Principal axes and moments of inertia in atomic units:
                           1         2         3
     Eigenvalues --  2251.662935533.045115976.31660
           X            0.99998  -0.00372   0.00419
           Y            0.00376   0.99995  -0.00879
           Z           -0.00416   0.00881   0.99995
 This molecule is an asymmetric top.
 Rotational symmetry number  1.
 Warning -- assumption of classical behavior for rotation
           may cause significant error
 Rotational temperatures (Kelvin)      0.03847     0.01565     0.01449
 Rotational constants (GHZ):           0.80151     0.32618     0.30198
 Zero-point vibrational energy     867871.8 (Joules/Mol)
                                  207.42633 (Kcal/Mol)
 Warning -- explicit consideration of  24 degrees of freedom as
           vibrations may cause significant error
 Vibrational temperatures:     24.66    57.33    91.26   118.10   123.20
          (Kelvin)            161.31   190.60   241.94   277.53   342.27
                              376.69   387.14   428.32   457.71   468.36
                              501.14   535.31   557.00   634.40   681.53
                              728.11   742.15   775.61   892.52   941.63
                              990.73  1029.71  1101.75  1145.32  1203.36
                             1203.95  1206.00  1234.86  1282.84  1318.76
                             1323.78  1331.87  1376.27  1425.66  1436.77
                             1461.21  1485.32  1512.51  1527.74  1562.42
                             1566.79  1578.34  1597.86  1662.73  1699.15
                             1704.63  1711.94  1719.60  1727.85  1758.97
                             1794.10  1854.22  1866.17  1884.67  1893.57
                             1896.96  1901.86  1972.74  1996.76  2016.68
                             2021.72  2032.94  2045.71  2055.36  2068.04
                             2087.11  2091.06  2165.47  2176.63  2178.04
                             2182.41  2191.86  2196.00  2203.58  2209.59
                             2210.30  2241.09  2342.83  2434.50  4307.18
                             4307.72  4341.63  4363.98  4369.08  4376.83
                             4385.93  4390.01  4392.46  4399.48  4416.16
                             4421.05  4449.40  4459.99  4499.27  4499.68
                             4513.42  4678.76  4988.82  5116.53  5248.12

 Zero-point correction=                           0.330555 (Hartree/Particle)
 Thermal correction to Energy=                    0.346685
 Thermal correction to Enthalpy=                  0.347629
 Thermal correction to Gibbs Free Energy=         0.285766
 Sum of electronic and zero-point Energies=           -709.134910
 Sum of electronic and thermal Energies=              -709.118780
 Sum of electronic and thermal Enthalpies=            -709.117836
 Sum of electronic and thermal Free Energies=         -709.179699

                     E (Thermal)             CV                S
                      KCal/Mol        Cal/Mol-Kelvin    Cal/Mol-Kelvin
 Total                  217.548             61.675            130.202
 Electronic               0.000              0.000              0.000
 Translational            0.889              2.981             42.111
 Rotational               0.889              2.981             32.676
 Vibrational            215.771             55.714             55.415
 Vibration     1          0.593              1.986              6.941
 Vibration     2          0.594              1.981              5.267
 Vibration     3          0.597              1.972              4.348
 Vibration     4          0.600              1.961              3.840
 Vibration     5          0.601              1.959              3.758
 Vibration     6          0.607              1.939              3.232
 Vibration     7          0.613              1.921              2.910
 Vibration     8          0.625              1.882              2.456
 Vibration     9          0.635              1.850              2.200
 Vibration    10          0.656              1.783              1.819
 Vibration    11          0.669              1.743              1.650
 Vibration    12          0.673              1.730              1.602
 Vibration    13          0.691              1.678              1.430
 Vibration    14          0.705              1.639              1.320
 Vibration    15          0.710              1.624              1.282
 Vibration    16          0.726              1.579              1.174
 Vibration    17          0.744              1.530              1.071
 Vibration    18          0.756              1.498              1.011
 Vibration    19          0.801              1.381              0.824
 Vibration    20          0.830              1.308              0.727
 Vibration    21          0.861              1.237              0.643
 Vibration    22          0.871              1.215              0.620
 Vibration    23          0.894              1.164              0.567
 Vibration    24          0.980              0.989              0.416

                           ! Non-Optimized Parameters !
 Normal termination of Gaussian 16 at Thu Dec 10 22:29:38 2020.

 ----------------------------------------------------------------------
 # B3LYP/6-311++G(d,p) empiricaldispersion=gd3bj scf=xqc pop=npa geom=c
 heck
 ----------------------------------------------------------------------

 ---------------------------------------
 CID_116779738_JID_6324_Energie_neutraal
 ---------------------------------------
 Structure from the checkpoint file:  "JID_6324.chk"
 Charge =  0 Multiplicity = 1

 SCF Done:  E(RB3LYP) =  -709.668899229     A.U. after   14 cycles
 Normal termination of Gaussian 16 at Thu Dec 10 22:35:24 2020.

 ----------------------------------------------------------------------
 # B3LYP/6-311++G(d,p) empiricaldispersion=gd3bj scf=xqc pop=npa geom=c
 heck
 ----------------------------------------------------------------------

 -------------------------------------
 CID_116779738_JID_6324_Energie_kation
 -------------------------------------
 Structure from the checkpoint file:  "JID_6324.chk"
 Charge =  1 Multiplicity = 2

 SCF Done:  E(UB3LYP) =  -709.377815097     A.U. after   22 cycles
 Normal termination of Gaussian 16 at Thu Dec 10 22:49:14 2020.
 Gaussian 16:  ES64L-G16RevA.03 25-Dec-2016

 ----------------------------------------------------------------------
 # B3LYP/6-311++G(d,p) empiricaldispersion=gd3bj scf=xqc pop=npa geom=c
 heck
 ----------------------------------------------------------------------

 ------------------------------------
 CID_116779738_JID_6324_Energie_anion
 ------------------------------------
 Structure from the checkpoint file:  "JID_6324.chk"
 Charge = -1 Multiplicity = 2

                         Standard orientation:
 ---------------------------------------------------------------------
 Center     Atomic      Atomic             Coordinates (Angstroms)
 Number     Number       Type             X           Y           Z
 ---------------------------------------------------------------------
      1          6           0        1.357945    3.458970   -0.134539
      2          6           0        0.612896    2.150528   -0.337507
      3          8           0        1.373836    1.131129    0.290868
      4          6           0        0.867512   -0.214079    0.200930
      5          6           0        1.100232   -0.773552   -1.219607
      6          6           0        2.588895   -0.764963   -1.587311
      7          6           0        3.422230   -1.544646   -0.562115
      8          6           0        3.194110   -1.009545    0.857426
      9          6           0        1.704655   -1.010468    1.218145
     10          6           0       -0.588739   -0.262744    0.596043
     11          7           0       -1.059035   -0.016127    1.807633
     12          6           0       -2.429787   -0.098121    1.703984
     13          6           0       -2.804371   -0.406149    0.415968
     14          7           0       -1.616044   -0.509657   -0.276525
     15          6           0       -4.109473   -0.654350   -0.266510
     16          7           0       -4.057812   -0.117074   -1.637371
     17          1           0        1.478893    3.661256    0.934138
     18          1           0        0.807035    4.290086   -0.588657
     19          1           0        2.352936    3.409788   -0.588908
     20          1           0       -0.390348    2.205026    0.107993
     21          1           0        0.489048    1.947141   -1.413185
     22          1           0        0.714427   -1.801374   -1.255588
     23          1           0        0.532722   -0.193920   -1.959135
     24          1           0        2.936495    0.274263   -1.622706
     25          1           0        2.722305   -1.185155   -2.591623
     26          1           0        4.486238   -1.494571   -0.824559
     27          1           0        3.137916   -2.607079   -0.600164
     28          1           0        3.576854    0.014667    0.929374
     29          1           0        3.748688   -1.613619    1.586000
     30          1           0        1.527184   -0.580245    2.207171
     31          1           0        1.323655   -2.039927    1.238844
     32          1           0       -3.070525    0.061317    2.561420
     33          1           0       -1.570136   -0.663935   -1.273851
     34          1           0       -4.296217   -1.733861   -0.356857
     35          1           0       -4.919690   -0.248566    0.360782
     36          1           0       -4.902742   -0.377034   -2.142959
     37          1           0       -4.041827    0.901426   -1.600072
 ---------------------------------------------------------------------

 SCF Done:  E(UB3LYP) =  -709.660229801     A.U. after   32 cycles

 The electronic state is 2-A.
 Alpha  occ. eigenvalues --  -19.02563 -14.25923 -14.19224 -14.19073 -10.14172
 Alpha  occ. eigenvalues --  -10.12246 -10.11918 -10.10275 -10.09956 -10.07969
 Alpha  occ. eigenvalues --  -10.07700 -10.07557 -10.07395 -10.07297 -10.07213
 Alpha  occ. eigenvalues --  -10.06974  -0.94213  -0.91139  -0.78794  -0.76245
 Alpha  occ. eigenvalues --   -0.74265  -0.68394  -0.65938  -0.65231  -0.62779
 Alpha  occ. eigenvalues --   -0.56851  -0.53678  -0.52724  -0.51619  -0.49969
 Alpha  occ. eigenvalues --   -0.47695  -0.46004  -0.43247  -0.39739  -0.39191
 Alpha  occ. eigenvalues --   -0.38279  -0.37304  -0.36388  -0.35394  -0.34044
 Alpha  occ. eigenvalues --   -0.33444  -0.32045  -0.31920  -0.31318  -0.30272
 Alpha  occ. eigenvalues --   -0.29886  -0.29148  -0.28862  -0.28237  -0.27331
 Alpha  occ. eigenvalues --   -0.26935  -0.25433  -0.24458  -0.22776  -0.22146
 Alpha  occ. eigenvalues --   -0.20974  -0.18314  -0.17258  -0.16604  -0.14986
 Alpha  occ. eigenvalues --   -0.12218   0.04086
 Alpha virt. eigenvalues --    0.05963   0.06812   0.07503   0.08103   0.08412
 Alpha virt. eigenvalues --    0.08685   0.09329   0.09997   0.10335   0.10673
 Alpha virt. eigenvalues --    0.11031   0.11190   0.11501   0.12261   0.12625

  Beta  occ. eigenvalues --  -19.02558 -14.25896 -14.19147 -14.19077 -10.14171
  Beta  occ. eigenvalues --  -10.12235 -10.11903 -10.10239 -10.09958 -10.07958
  Beta  occ. eigenvalues --  -10.07682 -10.07548 -10.07383 -10.07288 -10.07210
  Beta  occ. eigenvalues --  -10.06973  -0.94202  -0.91117  -0.78705  -0.76192
  Beta  occ. eigenvalues --   -0.74248  -0.68371  -0.65906  -0.65207  -0.62738
  Beta  occ. eigenvalues --   -0.56757  -0.53642  -0.52698  -0.51583  -0.49936
  Beta  occ. eigenvalues --   -0.47658  -0.45972  -0.43209  -0.39707  -0.39126
  Beta  occ. eigenvalues --   -0.38263  -0.37250  -0.36368  -0.35367  -0.33980
  Beta  occ. eigenvalues --   -0.33414  -0.32005  -0.31889  -0.31295  -0.30231
  Beta  occ. eigenvalues --   -0.29864  -0.29129  -0.28837  -0.28177  -0.27310
  Beta  occ. eigenvalues --   -0.26918  -0.25415  -0.24444  -0.22756  -0.22127
  Beta  occ. eigenvalues --   -0.20959  -0.18283  -0.17254  -0.16592  -0.14915
  Beta  occ. eigenvalues --   -0.12170
  Beta virt. eigenvalues --    0.06045   0.06935   0.07162   0.07829   0.08382
  Beta virt. eigenvalues --    0.08873   0.09179   0.09425   0.10204   0.10614
  Beta virt. eigenvalues --    0.10931   0.11216   0.11377   0.11736   0.12330

 Mulliken charges and spin densities:
               1          2
     1  C    0.108070  -0.650756
     2  C    0.087006  -0.010539
     3  O    0.124834   0.011275
     4  C   -0.694429   0.033394
     5  C   -0.084241  -0.180963
     6  C    0.166793  -0.634183
     7  C   -0.052859  -0.412773
     8  C   -0.497520   0.141153
     9  C   -0.479333   0.223353
    10  C   -0.000417  -0.276294
    11  N    0.058353   0.011707
    12  C   -0.504409   0.209087
    13  C   -0.380376   1.049896
    14  N    0.051935   0.005749
    15  C    2.188341  -2.886193
    16  N   -0.457941   0.066473
    17  H    0.111586   0.035345
    18  H   -0.032081   0.170676
    19  H    0.066122   0.065588
    20  H    0.225449  -0.037389
    21  H   -0.097040   0.242524
    22  H   -0.094901   0.277315
    23  H    0.024977   0.114376
    24  H    0.199636  -0.066179
    25  H   -0.315541   0.496735
    26  H   -0.059831   0.218129
    27  H    0.135889  -0.027617
    28  H    0.150207   0.000238
    29  H    0.055144   0.108889
    30  H    0.221299  -0.027725
    31  H    0.063201   0.120807
    32  H   -0.024161   0.161564
    33  H    0.080940   0.275682
    34  H   -0.393516   0.574359
    35  H   -0.362593   0.533144
    36  H   -0.353672   0.609506
    37  H   -0.234919   0.453648
 Sum of Mulliken charges =  -1.00000   1.00000

 Dipole moment (field-independent basis, Debye):
    X=              8.2869    Y=              0.6025    Z=              3.9141  Tot=              9.1846
 Quadrupole moment (field-independent basis, Debye-Ang):
   XX=           -190.0801   YY=           -132.3869   ZZ=           -143.4760
   XY=             -0.5291   XZ=            -14.7454   YZ=             -2.7314

 Summary of Natural Population Analysis:

                                       Natural Population
                Natural  -----------------------------------------------
    Atom  No    Charge         Core      Valence    Rydberg      Total
 -----------------------------------------------------------------------
      C    1   -0.28864      0.99966     2.28465    0.00434     3.28864
      C    2   -0.01333      0.99959     2.00183    0.01191     3.01333
      O    3   -0.31240      0.99987     3.30190    0.01064     4.31240
      C    4    0.12416      0.99945     1.85976    0.01663     2.87584
      C    5   -0.20514      0.99959     2.19505    0.01050     3.20514
      C    6   -0.19051      0.99963     2.18179    0.00909     3.19051
      C    7   -0.18965      0.99963     2.18172    0.00830     3.18965
      C    8   -0.19121      0.99963     2.18416    0.00743     3.19121
      C    9   -0.18933      0.99958     2.18105    0.00869     3.18933
      C   10    0.17450      0.99956     1.80625    0.01970     2.82550
      N   11   -0.25647      0.99969     2.74838    0.00840     3.75647
      C   12   -0.03334      0.99951     2.02144    0.01239     3.03334
      C   13    0.05340      0.99954     1.93285    0.01422     2.94660
      N   14   -0.26852      0.99961     2.76066    0.00825     3.76852
      C   15   -0.10152      0.99960     2.08986    0.01206     3.10152
      N   16   -0.42560      0.99978     2.91494    0.01088     3.92560
      H   17    0.09962      0.00000     0.39932    0.00106     0.40038
      H   18    0.09867      0.00000     0.40060    0.00073     0.40133
      H   19    0.09685      0.00000     0.40198    0.00117     0.40315
      H   20    0.08510      0.00000     0.41250    0.00239     0.41490
      H   21    0.07752      0.00000     0.42078    0.00170     0.42248
      H   22    0.10219      0.00000     0.39638    0.00143     0.39781
      H   23    0.10166      0.00000     0.39658    0.00176     0.39834
      H   24    0.09831      0.00000     0.40024    0.00144     0.40169
      H   25    0.09928      0.00000     0.39973    0.00099     0.40072
      H   26    0.09646      0.00000     0.40270    0.00084     0.40354
      H   27    0.09117      0.00000     0.40775    0.00107     0.40883
      H   28    0.10095      0.00000     0.39774    0.00131     0.39905
      H   29    0.09528      0.00000     0.40378    0.00094     0.40472
      H   30    0.11351      0.00000     0.38526    0.00124     0.38649
      H   31    0.09780      0.00000     0.40116    0.00104     0.40220
      H   32    0.09515      0.00000     0.40376    0.00109     0.40485
      H   33    0.21564      0.00000     0.28097    0.00339     0.28436
      H   34    0.09792      0.00000     0.40017    0.00191     0.40208
      H   35    0.08967      0.00000     0.40834    0.00199     0.41033
      H   36    0.18353      0.00000     0.30666    0.00981     0.31647
      H   37    0.17735      0.00000     0.31746    0.00519     0.32265
 =======================================================================
   * Total *    0.00000     15.99392    44.79017    0.21592    61.00000

 Normal termination of Gaussian 16 at Thu Dec 10 23:08:25 2020.
