 Gaussian 16, Revision A.03,

 -----------------------------------------------------------
 # opt freq B3LYP/6-31G(d) empiricaldispersion=gd3bj scf=xqc
 -----------------------------------------------------------

 -------------------------------
 CID_150882400_JID_4918_neutraal
 -------------------------------
 Symbolic Z-matrix:
 Charge =  0 Multiplicity = 1

 SCF Done:  E(RB3LYP) =  -772.855977134     A.U. after   15 cycles
 SCF Done:  E(RB3LYP) =  -772.863154188     A.U. after   14 cycles
 SCF Done:  E(RB3LYP) =  -772.863926130     A.U. after   15 cycles
 SCF Done:  E(RB3LYP) =  -772.864625353     A.U. after   14 cycles
 SCF Done:  E(RB3LYP) =  -772.867174798     A.U. after   10 cycles
 SCF Done:  E(RB3LYP) =  -772.868286501     A.U. after   14 cycles
 SCF Done:  E(RB3LYP) =  -772.871205842     A.U. after   14 cycles
 SCF Done:  E(RB3LYP) =  -772.871878653     A.U. after   15 cycles
 SCF Done:  E(RB3LYP) =  -772.872333652     A.U. after   14 cycles
 SCF Done:  E(RB3LYP) =  -772.872691014     A.U. after   13 cycles
 SCF Done:  E(RB3LYP) =  -772.873113184     A.U. after   13 cycles
 SCF Done:  E(RB3LYP) =  -772.873113598     A.U. after    8 cycles
 SCF Done:  E(RB3LYP) =  -772.873113873     A.U. after    9 cycles
 SCF Done:  E(RB3LYP) =  -772.873113846     A.U. after    7 cycles
 SCF Done:  E(RB3LYP) =  -772.873113904     A.U. after    7 cycles
 Optimization completed.
    -- Stationary point found.
 Normal termination of Gaussian 16 at Thu Dec 10 11:03:18 2020.

 --------------------------------------------------------------------
 #N Geom=AllCheck Guess=TCheck SCRF=Check GenChk RB3LYP/6-31G(d) Freq
 --------------------------------------------------------------------

 Structure from the checkpoint file:  "JID_4918.chk"
 -------------------------------
 CID_150882400_JID_4918_neutraal
 -------------------------------
 Charge =  0 Multiplicity = 1

 SCF Done:  E(RB3LYP) =  -772.873113904     A.U. after    1 cycles

  Exact polarizability: 140.277  19.165  97.175   2.562   0.464  78.885
 Approx polarizability: 180.375  46.067 165.543   7.155   7.903 118.740

                      1                      2                      3
                      A                      A                      A
 Frequencies --     13.4026                36.0604                47.9333
 Red. masses --      8.9725                 7.7725                 7.6478
 Frc consts  --      0.0009                 0.0060                 0.0104
 IR Inten    --      0.1225                 0.9129                 0.3182

                      4                      5                      6
                      A                      A                      A
 Frequencies --     74.5141                97.8823               118.4460
 Red. masses --      5.7959                 3.6862                 5.5196
 Frc consts  --      0.0190                 0.0208                 0.0456
 IR Inten    --      4.8294                 3.1351                 0.3530

                      7                      8                      9
                      A                      A                      A
 Frequencies --    145.0722               202.3466               211.5832
 Red. masses --      7.4115                 4.6184                 4.9211
 Frc consts  --      0.0919                 0.1114                 0.1298
 IR Inten    --      0.9426                 3.6462                 5.5784

                     10                     11                     12
                      A                      A                      A
 Frequencies --    235.6013               246.3140               276.2932
 Red. masses --      5.3237                 3.4220                 2.6144
 Frc consts  --      0.1741                 0.1223                 0.1176
 IR Inten    --      0.4687                 1.3383                24.2830

                     13                     14                     15
                      A                      A                      A
 Frequencies --    319.9951               337.2554               367.6269
 Red. masses --      2.7365                 1.2930                 2.2761
 Frc consts  --      0.1651                 0.0866                 0.1812
 IR Inten    --     17.6756                70.4876                10.0866

                     16                     17                     18
                      A                      A                      A
 Frequencies --    386.8397               402.4305               425.3692
 Red. masses --      2.0125                 4.2082                 1.6523
 Frc consts  --      0.1774                 0.4015                 0.1761
 IR Inten    --     23.5750                11.7389                54.5354

                     19                     20                     21
                      A                      A                      A
 Frequencies --    448.5759               481.3240               506.2946
 Red. masses --      2.4542                 2.3471                10.6301
 Frc consts  --      0.2910                 0.3204                 1.6054
 IR Inten    --     69.1609                12.9174                19.5977

                     22                     23                     24
                      A                      A                      A
 Frequencies --    510.1991               551.0021               626.5454
 Red. masses --      2.7536                 2.2962                 6.7609
 Frc consts  --      0.4223                 0.4107                 1.5637
 IR Inten    --     59.6992                58.0716                 8.3163

                     25                     26                     27
                      A                      A                      A
 Frequencies --    682.8958               686.3901               732.2271
 Red. masses --      1.3220                 3.7364                 3.9195
 Frc consts  --      0.3632                 1.0371                 1.2381
 IR Inten    --    177.8689                47.9950                 5.5417

                     28                     29                     30
                      A                      A                      A
 Frequencies --    857.5771               871.1461               892.8533
 Red. masses --      2.9981                 2.6767                 2.5512
 Frc consts  --      1.2991                 1.1968                 1.1983
 IR Inten    --     27.5886                 2.7064                21.4456

                     31                     32                     33
                      A                      A                      A
 Frequencies --    919.3254               928.1285               952.8986
 Red. masses --      6.5595                 2.3494                 2.1657
 Frc consts  --      3.2663                 1.1924                 1.1586
 IR Inten    --     75.0544                31.4452                27.8529

                     34                     35                     36
                      A                      A                      A
 Frequencies --    985.9510              1005.6009              1036.7844
 Red. masses --      2.2215                 1.7285                 3.1510
 Frc consts  --      1.2723                 1.0298                 1.9956
 IR Inten    --    206.5583                29.8798               285.4737

                     37                     38                     39
                      A                      A                      A
 Frequencies --   1053.4474              1100.1663              1109.6670
 Red. masses --      2.6159                 2.1692                 3.3406
 Frc consts  --      1.7104                 1.5469                 2.4236
 IR Inten    --     87.9594                32.6751                50.4213

                     40                     41                     42
                      A                      A                      A
 Frequencies --   1116.7236              1156.7910              1177.1034
 Red. masses --      4.1230                 2.5682                 1.6931
 Frc consts  --      3.0294                 2.0248                 1.3822
 IR Inten    --    172.8396                37.6221                33.2912

                     43                     44                     45
                      A                      A                      A
 Frequencies --   1230.8017              1234.5276              1252.5745
 Red. masses --      1.3206                 8.5820                 1.2184
 Frc consts  --      1.1787                 7.7062                 1.1263
 IR Inten    --      6.3467                20.9053                27.3524

                     46                     47                     48
                      A                      A                      A
 Frequencies --   1274.6302              1284.2532              1332.9992
 Red. masses --      1.3917                 1.4421                 1.4649
 Frc consts  --      1.3322                 1.4014                 1.5336
 IR Inten    --      4.6660                18.9225                 1.3602

                     49                     50                     51
                      A                      A                      A
 Frequencies --   1353.8102              1366.9115              1412.0403
 Red. masses --      1.3159                 1.2291                 1.3709
 Frc consts  --      1.4210                 1.3531                 1.6105
 IR Inten    --      8.0152                 9.6331                17.8169

                     52                     53                     54
                      A                      A                      A
 Frequencies --   1423.7124              1428.4863              1441.8003
 Red. masses --      1.2997                 1.2442                 1.2116
 Frc consts  --      1.5521                 1.4959                 1.4839
 IR Inten    --      8.1011                21.5257                60.9165

                     55                     56                     57
                      A                      A                      A
 Frequencies --   1451.9595              1453.2085              1463.1278
 Red. masses --      1.3246                 1.4330                 1.2240
 Frc consts  --      1.6453                 1.7830                 1.5438
 IR Inten    --      5.2613                 1.5689                66.7182

                     58                     59                     60
                      A                      A                      A
 Frequencies --   1519.1877              1536.5383              1692.6193
 Red. masses --      1.0841                 1.0829                 1.0929
 Frc consts  --      1.4742                 1.5064                 1.8448
 IR Inten    --      1.3141                22.0926                45.5172

                     61                     62                     63
                      A                      A                      A
 Frequencies --   1727.8252              2199.0770              3003.0172
 Red. masses --      1.0826                13.9785                 1.0693
 Frc consts  --      1.9042                39.8283                 5.6815
 IR Inten    --     22.8866               379.1126                37.2035

                     64                     65                     66
                      A                      A                      A
 Frequencies --   3031.4487              3090.6304              3094.9611
 Red. masses --      1.0618                 1.0883                 1.0972
 Frc consts  --      5.7489                 6.1246                 6.1924
 IR Inten    --     36.0826                26.0181                23.6040

                     67                     68                     69
                      A                      A                      A
 Frequencies --   3102.7468              3104.7523              3119.7654
 Red. masses --      1.0896                 1.0864                 1.0945
 Frc consts  --      6.1806                 6.1703                 6.2764
 IR Inten    --     52.2737                18.6598                42.3602

                     70                     71                     72
                      A                      A                      A
 Frequencies --   3364.2251              3462.2799              3558.5566
 Red. masses --      1.0626                 1.0508                 1.0820
 Frc consts  --      7.0861                 7.4217                 8.0726
 IR Inten    --    247.8412                16.4252                20.5599

                     73                     74                     75
                      A                      A                      A
 Frequencies --   3568.3894              3617.1325              3706.0595
 Red. masses --      1.0930                 1.0642                 1.0656
 Frc consts  --      8.1997                 8.2038                 8.6233
 IR Inten    --     11.9084                53.5457                 6.3847

 - Thermochemistry -
 -------------------
 Temperature   298.150 Kelvin.  Pressure   1.00000 Atm.
 Atom     1 has atomic number  6 and mass  12.00000

 Molecular mass:   207.09675 amu.
 Principal axes and moments of inertia in atomic units:
                           1         2         3
     Eigenvalues --   963.624056860.708416929.74540
           X            0.99998  -0.00273   0.00520
           Y            0.00375   0.97792  -0.20896
           Z           -0.00451   0.20897   0.97791
 This molecule is an asymmetric top.
 Rotational symmetry number  1.
 Warning -- assumption of classical behavior for rotation
           may cause significant error
 Rotational temperatures (Kelvin)      0.08988     0.01262     0.01250
 Rotational constants (GHZ):           1.87287     0.26305     0.26043
 Zero-point vibrational energy     575634.9 (Joules/Mol)
                                  137.58004 (Kcal/Mol)
 Warning -- explicit consideration of  23 degrees of freedom as
           vibrations may cause significant error
 Vibrational temperatures:     19.28    51.88    68.97   107.21   140.83
          (Kelvin)            170.42   208.73   291.13   304.42   338.98
                              354.39   397.52   460.40   485.24   528.93
                              556.58   579.01   612.01   645.40   692.52
                              728.45   734.06   792.77   901.46   982.53
                              987.56  1053.51  1233.86  1253.38  1284.62
                             1322.70  1335.37  1371.01  1418.56  1446.84
                             1491.70  1515.68  1582.89  1596.56  1606.72
                             1664.36  1693.59  1770.85  1776.21  1802.18
                             1833.91  1847.75  1917.89  1947.83  1966.68
                             2031.61  2048.40  2055.27  2074.43  2089.05
                             2090.84  2105.11  2185.77  2210.74  2435.30
                             2485.96  3163.98  4320.67  4361.58  4446.73
                             4452.96  4464.16  4467.05  4488.65  4840.37
                             4981.45  5119.97  5134.12  5204.25  5332.19

 Zero-point correction=                           0.219248 (Hartree/Particle)
 Thermal correction to Energy=                    0.234485
 Thermal correction to Enthalpy=                  0.235429
 Thermal correction to Gibbs Free Energy=         0.174852
 Sum of electronic and zero-point Energies=           -772.653866
 Sum of electronic and thermal Energies=              -772.638629
 Sum of electronic and thermal Enthalpies=            -772.637685
 Sum of electronic and thermal Free Energies=         -772.698262

                     E (Thermal)             CV                S
                      KCal/Mol        Cal/Mol-Kelvin    Cal/Mol-Kelvin
 Total                  147.141             55.245            127.494
 Electronic               0.000              0.000              0.000
 Translational            0.889              2.981             41.888
 Rotational               0.889              2.981             32.194
 Vibrational            145.364             49.283             53.412
 Vibration     1          0.593              1.987              7.429
 Vibration     2          0.594              1.982              5.465
 Vibration     3          0.595              1.978              4.901
 Vibration     4          0.599              1.966              4.030
 Vibration     5          0.603              1.951              3.496
 Vibration     6          0.609              1.934              3.126
 Vibration     7          0.616              1.908              2.736
 Vibration     8          0.639              1.837              2.112
 Vibration     9          0.643              1.823              2.030
 Vibration    10          0.655              1.786              1.836
 Vibration    11          0.661              1.769              1.757
 Vibration    12          0.678              1.717              1.557
 Vibration    13          0.706              1.635              1.310
 Vibration    14          0.718              1.601              1.225
 Vibration    15          0.740              1.539              1.090
 Vibration    16          0.755              1.498              1.012
 Vibration    17          0.768              1.465              0.954
 Vibration    18          0.787              1.415              0.874
 Vibration    19          0.808              1.364              0.800
 Vibration    20          0.838              1.291              0.707
 Vibration    21          0.862              1.236              0.643
 Vibration    22          0.865              1.227              0.633
 Vibration    23          0.906              1.137              0.542

 Optimization completed.
    -- Stationary point found.
 Normal termination of Gaussian 16 at Thu Dec 10 11:11:02 2020.

 ----------------------------------------------------------------------
 # B3LYP/6-311++G(d,p) empiricaldispersion=gd3bj scf=xqc pop=npa geom=c
 heck
 ----------------------------------------------------------------------

 ---------------------------------------
 CID_150882400_JID_4918_Energie_neutraal
 ---------------------------------------
 Structure from the checkpoint file:  "JID_4918.chk"
 Charge =  0 Multiplicity = 1

 SCF Done:  E(RB3LYP) =  -773.132815651     A.U. after   15 cycles
 Normal termination of Gaussian 16 at Thu Dec 10 11:14:21 2020.

 ----------------------------------------------------------------------
 # B3LYP/6-311++G(d,p) empiricaldispersion=gd3bj scf=xqc pop=npa geom=c
 heck
 ----------------------------------------------------------------------

 -------------------------------------
 CID_150882400_JID_4918_Energie_kation
 -------------------------------------
 Structure from the checkpoint file:  "JID_4918.chk"
 Charge =  1 Multiplicity = 2

 SCF Done:  E(UB3LYP) =  -772.812389759     A.U. after   33 cycles
 SCF Done:  E(UB3LYP) =  -772.812389774     a.u. after    2 cycles
 Normal termination of Gaussian 16 at Thu Dec 10 11:34:26 2020.
 Gaussian 16:  ES64L-G16RevA.03 25-Dec-2016

 ----------------------------------------------------------------------
 # B3LYP/6-311++G(d,p) empiricaldispersion=gd3bj scf=xqc pop=npa geom=c
 heck
 ----------------------------------------------------------------------

 ------------------------------------
 CID_150882400_JID_4918_Energie_anion
 ------------------------------------
 Structure from the checkpoint file:  "JID_4918.chk"
 Charge = -1 Multiplicity = 2

                         Standard orientation:
 ---------------------------------------------------------------------
 Center     Atomic      Atomic             Coordinates (Angstroms)
 Number     Number       Type             X           Y           Z
 ---------------------------------------------------------------------
      1          6           0        1.645268   -1.303765    0.290887
      2          6           0        0.166307   -0.964695    0.115223
      3          6           0       -0.225703    0.361056    0.822246
      4          7           0       -0.132063    1.447417   -0.127170
      5          8           0       -1.476408    0.271559    1.531993
      6          6           0       -2.594971   -0.370672    0.949290
      7          6           0       -3.454535    0.456753   -0.020729
      8          7           0       -2.750275    0.748347   -1.249679
      9          8           0       -4.697747   -0.224652   -0.214240
     10          8           0       -0.195578   -0.942258   -1.258380
     11          8           0        2.414830   -0.214972   -0.222790
     12          7           0        3.791042   -0.652033   -0.264728
     13          7           0        4.505361    0.353624   -0.069474
     14          7           0        5.280170    1.183924    0.061676
     15          1           0        1.876507   -2.215386   -0.271290
     16          1           0        1.879546   -1.467203    1.352246
     17          1           0       -0.377587   -1.798192    0.571042
     18          1           0        0.490970    0.550136    1.625662
     19          1           0        0.018625    2.325356    0.361851
     20          1           0       -1.018276    1.518723   -0.639953
     21          1           0       -2.314489   -1.306438    0.439233
     22          1           0       -3.245135   -0.639041    1.786223
     23          1           0       -3.735988    1.401006    0.454080
     24          1           0       -2.301736   -0.085935   -1.629767
     25          1           0       -3.389863    1.135188   -1.939831
     26          1           0       -4.495052   -1.083378   -0.622730
     27          1           0        0.173872   -0.093285   -1.575312
 ---------------------------------------------------------------------

 SCF Done:  E(UB3LYP) =  -773.145611346     A.U. after   30 cycles

 The electronic state is 2-A.
 Alpha  occ. eigenvalues --  -19.03838 -19.03219 -19.01966 -19.01496 -14.28135
 Alpha  occ. eigenvalues --  -14.23183 -14.21533 -14.19912 -14.18934 -10.16161
 Alpha  occ. eigenvalues --  -10.14886 -10.12811 -10.12196 -10.10011  -0.98370
 Alpha  occ. eigenvalues --   -0.95292  -0.94200  -0.92560  -0.90928  -0.79728
 Alpha  occ. eigenvalues --   -0.78129  -0.77049  -0.65261  -0.63169  -0.55895
 Alpha  occ. eigenvalues --   -0.53063  -0.48885  -0.45123  -0.43765  -0.42066
 Alpha  occ. eigenvalues --   -0.41406  -0.39303  -0.39108  -0.37695  -0.36268
 Alpha  occ. eigenvalues --   -0.35654  -0.34281  -0.33243  -0.32636  -0.31375
 Alpha  occ. eigenvalues --   -0.30172  -0.28837  -0.28337  -0.26743  -0.26205
 Alpha  occ. eigenvalues --   -0.25347  -0.23569  -0.22393  -0.20555  -0.19260
 Alpha  occ. eigenvalues --   -0.17020  -0.16692  -0.16293  -0.14672  -0.07836
 Alpha  occ. eigenvalues --    0.03978
 Alpha virt. eigenvalues --    0.05453   0.07391   0.08186   0.09220   0.09989
 Alpha virt. eigenvalues --    0.10755   0.10955   0.11835   0.12610   0.13471
 Alpha virt. eigenvalues --    0.14283   0.15006   0.15679   0.16063   0.16350

  Beta  occ. eigenvalues --  -19.03803 -19.03213 -19.01957 -19.01191 -14.27735
  Beta  occ. eigenvalues --  -14.23187 -14.21511 -14.19152 -14.18924 -10.16158
  Beta  occ. eigenvalues --  -10.14883 -10.12789 -10.12193 -10.09994  -0.97562
  Beta  occ. eigenvalues --   -0.95251  -0.94144  -0.92442  -0.90240  -0.79680
  Beta  occ. eigenvalues --   -0.78092  -0.76443  -0.65171  -0.63052  -0.55808
  Beta  occ. eigenvalues --   -0.52947  -0.48758  -0.45024  -0.43569  -0.41877
  Beta  occ. eigenvalues --   -0.41209  -0.39259  -0.38957  -0.37641  -0.36128
  Beta  occ. eigenvalues --   -0.34606  -0.34145  -0.33143  -0.32296  -0.30995
  Beta  occ. eigenvalues --   -0.29584  -0.28720  -0.27188  -0.26243  -0.25741
  Beta  occ. eigenvalues --   -0.25148  -0.23539  -0.22327  -0.20455  -0.18524
  Beta  occ. eigenvalues --   -0.16976  -0.16580  -0.15895  -0.14483  -0.07513
  Beta virt. eigenvalues --    0.06310   0.07728   0.08220   0.09128   0.10092
  Beta virt. eigenvalues --    0.10699   0.10978   0.11293   0.12189   0.12703
  Beta virt. eigenvalues --    0.13387   0.14530   0.15014   0.15697   0.16182

 Mulliken charges and spin densities:
               1          2
     1  C   -0.149531  -0.521638
     2  C    0.081040   0.195975
     3  C   -0.425617  -0.158484
     4  N   -0.533311   0.010451
     5  O   -0.038899   0.015062
     6  C   -0.296569   0.026924
     7  C    0.473825  -0.734609
     8  N   -0.587601   0.032239
     9  O   -0.233727   0.013704
    10  O   -0.192315   0.003134
    11  O    0.033274   0.022936
    12  N   -0.569891   0.182638
    13  N    0.360505   0.064702
    14  N   -0.312956   0.349301
    15  H    0.085142   0.107941
    16  H    0.064485   0.053333
    17  H    0.002785   0.159441
    18  H    0.228092  -0.005005
    19  H    0.218299   0.012047
    20  H    0.348124  -0.000157
    21  H   -0.097202   0.278342
    22  H    0.021496   0.169044
    23  H    0.206224  -0.011914
    24  H    0.177067   0.117723
    25  H    0.071871   0.203351
    26  H   -0.137484   0.383045
    27  H    0.202875   0.030476
 Sum of Mulliken charges =  -1.00000   1.00000

 Dipole moment (field-independent basis, Debye):
    X=             -6.2991    Y=              0.6786    Z=              1.5405  Tot=              6.5201
 Quadrupole moment (field-independent basis, Debye-Ang):
   XX=           -190.4513   YY=           -100.2008   ZZ=            -97.6888
   XY=            -14.2457   XZ=              0.8816   YZ=             -2.8603

 Summary of Natural Population Analysis:

                                       Natural Population
                Natural  -----------------------------------------------
    Atom  No    Charge         Core      Valence    Rydberg      Total
 -----------------------------------------------------------------------
      C    1   -0.01295      0.99957     2.00070    0.01268     3.01295
      C    2    0.03481      0.99953     1.94746    0.01820     2.96519
      C    3    0.13856      0.99957     1.84543    0.01644     2.86144
      N    4   -0.44221      0.99974     2.93275    0.00972     3.94221
      O    5   -0.30726      0.99988     3.29877    0.00861     4.30726
      C    6   -0.02855      0.99953     2.01263    0.01639     3.02855
      C    7    0.13082      0.99964     1.85345    0.01609     2.86918
      N    8   -0.44055      0.99975     2.92974    0.01105     3.94055
      O    9   -0.37498      0.99990     3.36856    0.00652     4.37498
      O   10   -0.38450      0.99990     3.37722    0.00738     4.38450
      O   11   -0.21190      0.99989     3.20194    0.01007     4.21190
      N   12   -0.09854      0.99973     2.58281    0.01600     3.59854
      N   13    0.12152      0.99972     2.36207    0.01669     3.37848
      N   14    0.05020      0.99982     2.43653    0.01345     3.44980
      H   15    0.08887      0.00000     0.40892    0.00221     0.41113
      H   16    0.07871      0.00000     0.41924    0.00205     0.42129
      H   17    0.09144      0.00000     0.40714    0.00143     0.40856
      H   18    0.09299      0.00000     0.40574    0.00127     0.40701
      H   19    0.17758      0.00000     0.32079    0.00163     0.32242
      H   20    0.19604      0.00000     0.30173    0.00223     0.30396
      H   21    0.08179      0.00000     0.41634    0.00186     0.41821
      H   22    0.09474      0.00000     0.40403    0.00122     0.40526
      H   23    0.08031      0.00000     0.41781    0.00187     0.41969
      H   24    0.19087      0.00000     0.30705    0.00207     0.30913
      H   25    0.18265      0.00000     0.31587    0.00148     0.31735
      H   26    0.22798      0.00000     0.26581    0.00621     0.27202
      H   27    0.24157      0.00000     0.25456    0.00387     0.25843
 =======================================================================
   * Total *    0.00000     13.99619    40.79510    0.20871    55.00000

 Normal termination of Gaussian 16 at Thu Dec 10 11:43:28 2020.
