 Gaussian 16, Revision A.03,

 -----------------------------------------------------------
 # opt freq B3LYP/6-31G(d) empiricaldispersion=gd3bj scf=xqc
 -----------------------------------------------------------

 ------------------------------
 CID_64664783_JID_2878_neutraal
 ------------------------------
 Symbolic Z-matrix:
 Charge =  0 Multiplicity = 1

 SCF Done:  E(RB3LYP) =  -486.545695655     A.U. after   13 cycles
 SCF Done:  E(RB3LYP) =  -486.548674004     A.U. after   11 cycles
 SCF Done:  E(RB3LYP) =  -486.546901399     A.U. after   12 cycles
 SCF Done:  E(RB3LYP) =  -486.549220545     A.U. after   11 cycles
 SCF Done:  E(RB3LYP) =  -486.549432057     A.U. after   10 cycles
 SCF Done:  E(RB3LYP) =  -486.549503014     A.U. after   10 cycles
 SCF Done:  E(RB3LYP) =  -486.549425148     A.U. after   10 cycles
 SCF Done:  E(RB3LYP) =  -486.549228245     A.U. after   11 cycles
 SCF Done:  E(RB3LYP) =  -486.549496160     A.U. after   10 cycles
 SCF Done:  E(RB3LYP) =  -486.549508849     A.U. after    9 cycles
 SCF Done:  E(RB3LYP) =  -486.549525119     A.U. after    9 cycles
 SCF Done:  E(RB3LYP) =  -486.549525917     A.U. after    8 cycles
 SCF Done:  E(RB3LYP) =  -486.549526327     A.U. after    8 cycles
 SCF Done:  E(RB3LYP) =  -486.549526395     A.U. after    7 cycles
 Optimization completed.
    -- Stationary point found.
 Normal termination of Gaussian 16 at Wed Dec  9 18:12:53 2020.

 --------------------------------------------------------------------
 #N Geom=AllCheck Guess=TCheck SCRF=Check GenChk RB3LYP/6-31G(d) Freq
 --------------------------------------------------------------------

 Structure from the checkpoint file:  "JID_2878.chk"
 ------------------------------
 CID_64664783_JID_2878_neutraal
 ------------------------------
 Charge =  0 Multiplicity = 1

 SCF Done:  E(RB3LYP) =  -486.549526395     A.U. after    1 cycles

  Exact polarizability: 129.378  -0.251 110.626  -7.816  -3.871 115.289
 Approx polarizability: 160.132   2.354 151.994 -18.014  -7.105 180.165

                      1                      2                      3
                      A                      A                      A
 Frequencies --     24.9055                34.2974                54.5181
 Red. masses --      4.5849                 2.6812                 2.8695
 Frc consts  --      0.0017                 0.0019                 0.0050
 IR Inten    --      0.1451                 0.2128                 0.1783

                      4                      5                      6
                      A                      A                      A
 Frequencies --     62.2729               108.7110               145.7733
 Red. masses --      3.4186                 2.8659                 3.7381
 Frc consts  --      0.0078                 0.0200                 0.0468
 IR Inten    --      0.2660                 0.1493                 0.1891

                      7                      8                      9
                      A                      A                      A
 Frequencies --    175.7787               219.5094               235.1856
 Red. masses --      2.6126                 1.3820                 1.3040
 Frc consts  --      0.0476                 0.0392                 0.0425
 IR Inten    --      0.3157                 0.6877                 0.1679

                     10                     11                     12
                      A                      A                      A
 Frequencies --    238.5036               264.2943               272.9804
 Red. masses --      1.6529                 2.2523                 1.1286
 Frc consts  --      0.0554                 0.0927                 0.0496
 IR Inten    --      0.7387                 0.6040                 0.0876

                     13                     14                     15
                      A                      A                      A
 Frequencies --    299.2057               318.1954               356.7555
 Red. masses --      1.9920                 2.3814                 2.6930
 Frc consts  --      0.1051                 0.1421                 0.2019
 IR Inten    --      3.2185                 1.5526                 2.3916

                     16                     17                     18
                      A                      A                      A
 Frequencies --    378.2563               402.3967               404.0056
 Red. masses --      2.2420                 2.1902                 2.0594
 Frc consts  --      0.1890                 0.2090                 0.1980
 IR Inten    --      0.5102                 0.4968                 3.0412

                     19                     20                     21
                      A                      A                      A
 Frequencies --    447.5966               473.7043               549.3315
 Red. masses --      1.8951                 2.5394                 2.9683
 Frc consts  --      0.2237                 0.3357                 0.5277
 IR Inten    --      4.6638                 4.3490                 0.4835

                     22                     23                     24
                      A                      A                      A
 Frequencies --    593.7281               603.0853               612.9343
 Red. masses --      2.9877                 1.2094                 1.2303
 Frc consts  --      0.6205                 0.2592                 0.2723
 IR Inten    --      0.9038                49.8479                44.8553

                     25                     26                     27
                      A                      A                      A
 Frequencies --    663.1455               751.3898               804.1813
 Red. masses --      1.7142                 1.5061                 2.1777
 Frc consts  --      0.4442                 0.5010                 0.8298
 IR Inten    --     90.7127                21.8631                 4.0066

                     28                     29                     30
                      A                      A                      A
 Frequencies --    839.1922               871.2461               892.3990
 Red. masses --      2.5059                 2.1872                 1.9655
 Frc consts  --      1.0398                 0.9782                 0.9222
 IR Inten    --     10.9494                10.9384                 1.5166

                     31                     32                     33
                      A                      A                      A
 Frequencies --    915.7836               931.7080               949.2102
 Red. masses --      1.6168                 1.2662                 1.8124
 Frc consts  --      0.7989                 0.6476                 0.9621
 IR Inten    --      3.0016                 2.1727                 1.6154

                     34                     35                     36
                      A                      A                      A
 Frequencies --    954.2812               963.5056               998.8007
 Red. masses --      1.4179                 1.6489                 1.8065
 Frc consts  --      0.7607                 0.9019                 1.0618
 IR Inten    --      0.3116                 0.0985                 0.9373

                     37                     38                     39
                      A                      A                      A
 Frequencies --   1033.7046              1076.0159              1114.9581
 Red. masses --      1.7177                 2.3940                 1.7335
 Frc consts  --      1.0814                 1.6331                 1.2697
 IR Inten    --      2.4824                 0.3903                 2.7433

                     40                     41                     42
                      A                      A                      A
 Frequencies --   1128.5779              1144.2155              1150.7679
 Red. masses --      2.4591                 2.2896                 1.9251
 Frc consts  --      1.8454                 1.7661                 1.5021
 IR Inten    --      8.1801                 8.0939                12.1760

                     43                     44                     45
                      A                      A                      A
 Frequencies --   1162.5673              1203.3392              1210.5552
 Red. masses --      2.1790                 1.6344                 1.9363
 Frc consts  --      1.7351                 1.3944                 1.6718
 IR Inten    --     23.5315                28.6448                12.5546

                     46                     47                     48
                      A                      A                      A
 Frequencies --   1228.8668              1242.0752              1307.6191
 Red. masses --      1.3672                 1.5292                 1.2633
 Frc consts  --      1.2164                 1.3900                 1.2726
 IR Inten    --      7.9455                 8.1349                 2.7914

                     49                     50                     51
                      A                      A                      A
 Frequencies --   1319.0313              1356.5761              1363.9299
 Red. masses --      1.3262                 1.3366                 1.2476
 Frc consts  --      1.3595                 1.4492                 1.3675
 IR Inten    --      2.8952                 0.6743                 0.5835

                     52                     53                     54
                      A                      A                      A
 Frequencies --   1368.9486              1379.3689              1395.9988
 Red. masses --      1.3364                 1.3400                 1.1989
 Frc consts  --      1.4756                 1.5021                 1.3765
 IR Inten    --     12.7708                 5.4620                13.6401

                     55                     56                     57
                      A                      A                      A
 Frequencies --   1403.1517              1418.8730              1423.0421
 Red. masses --      1.3339                 1.3117                 1.2913
 Frc consts  --      1.5474                 1.5559                 1.5407
 IR Inten    --      6.1755                 1.7385                 5.6072

                     58                     59                     60
                      A                      A                      A
 Frequencies --   1425.2362              1440.1756              1442.4461
 Red. masses --      1.4108                 1.2544                 1.2595
 Frc consts  --      1.6884                 1.5330                 1.5440
 IR Inten    --      0.2648                 9.7684                 9.0961

                     61                     62                     63
                      A                      A                      A
 Frequencies --   1505.5940              1507.7678              1511.8930
 Red. masses --      1.0839                 1.1190                 1.0962
 Frc consts  --      1.4477                 1.4988                 1.4764
 IR Inten    --      1.8212                13.7478                 2.2166

                     64                     65                     66
                      A                      A                      A
 Frequencies --   1512.7933              1515.1372              1519.1480
 Red. masses --      1.0807                 1.0566                 1.0676
 Frc consts  --      1.4572                 1.4291                 1.4517
 IR Inten    --      3.3337                 2.7107                 3.4914

                     67                     68                     69
                      A                      A                      A
 Frequencies --   1526.8427              1528.8653              1534.9744
 Red. masses --      1.0659                 1.0795                 1.0675
 Frc consts  --      1.4641                 1.4867                 1.4819
 IR Inten    --      2.5093                 9.2640                 8.3693

                     70                     71                     72
                      A                      A                      A
 Frequencies --   1539.2791              1544.8345              2240.2474
 Red. masses --      1.0509                 1.1067                 5.9805
 Frc consts  --      1.4670                 1.5561                17.6840
 IR Inten    --      8.6989                18.3993                 1.5972

                     73                     74                     75
                      A                      A                      A
 Frequencies --   2994.3176              3019.8302              3028.4907
 Red. masses --      1.0710                 1.0837                 1.0626
 Frc consts  --      5.6577                 5.8228                 5.7424
 IR Inten    --     46.9337                16.8315                19.0501

                     76                     77                     78
                      A                      A                      A
 Frequencies --   3037.4736              3037.9405              3039.2191
 Red. masses --      1.0393                 1.0391                 1.0594
 Frc consts  --      5.6497                 5.6505                 5.7653
 IR Inten    --     41.7831                11.7168                11.6954

                     79                     80                     81
                      A                      A                      A
 Frequencies --   3043.9032              3053.2411              3067.8595
 Red. masses --      1.0401                 1.0662                 1.0939
 Frc consts  --      5.6779                 5.8562                 6.0660
 IR Inten    --     30.5200                25.6332                 4.1310

                     82                     83                     84
                      A                      A                      A
 Frequencies --   3068.9873              3075.7551              3083.2432
 Red. masses --      1.0898                 1.0918                 1.0940
 Frc consts  --      6.0476                 6.0857                 6.1273
 IR Inten    --      5.3728                57.9759                24.7842

                     85                     86                     87
                      A                      A                      A
 Frequencies --   3096.8511              3099.1541              3103.8328
 Red. masses --      1.1028                 1.1007                 1.0993
 Frc consts  --      6.2312                 6.2288                 6.2398
 IR Inten    --     49.9368                15.0038                68.2112

                     88                     89                     90
                      A                      A                      A
 Frequencies --   3109.1545              3111.5331              3131.6412
 Red. masses --      1.0976                 1.1008                 1.0976
 Frc consts  --      6.2512                 6.2790                 6.3423
 IR Inten    --     72.3085                35.5352                43.4696

                     91                     92                     93
                      A                      A                      A
 Frequencies --   3138.0691              3496.7911              3512.9694
 Red. masses --      1.1025                 1.1597                 1.0729
 Frc consts  --      6.3966                 8.3550                 7.8015
 IR Inten    --     26.6441                53.9493                 0.9839

 - Thermochemistry -
 -------------------
 Temperature   298.150 Kelvin.  Pressure   1.00000 Atm.
 Atom     1 has atomic number  6 and mass  12.00000

 Molecular mass:   167.16740 amu.
 Principal axes and moments of inertia in atomic units:
                           1         2         3
     Eigenvalues --  1443.270943779.141784232.54839
           X            0.99969  -0.02359   0.00731
           Y            0.02341   0.99943   0.02427
           Z           -0.00788  -0.02409   0.99968
 This molecule is an asymmetric top.
 Rotational symmetry number  1.
 Warning -- assumption of classical behavior for rotation
           may cause significant error
 Rotational temperatures (Kelvin)      0.06001     0.02292     0.02046
 Rotational constants (GHZ):           1.25045     0.47755     0.42640
 Zero-point vibrational energy     794849.4 (Joules/Mol)
                                  189.97357 (Kcal/Mol)
 Warning -- explicit consideration of  24 degrees of freedom as
           vibrations may cause significant error
 Vibrational temperatures:     35.83    49.35    78.44    89.60   156.41
          (Kelvin)            209.74   252.91   315.83   338.38   343.15
                              380.26   392.76   430.49   457.81   513.29
                              544.23   578.96   581.27   643.99   681.55
                              790.37   854.24   867.71   881.88   954.12
                             1081.08  1157.04  1207.41  1253.53  1283.96
                             1317.61  1340.52  1365.70  1373.00  1386.27
                             1437.05  1487.27  1548.15  1604.18  1623.77
                             1646.27  1655.70  1672.67  1731.34  1741.72
                             1768.07  1787.07  1881.37  1897.79  1951.81
                             1962.39  1969.61  1984.60  2008.53  2018.82
                             2041.44  2047.44  2050.60  2072.09  2075.36
                             2166.21  2169.34  2175.28  2176.57  2179.94
                             2185.72  2196.79  2199.70  2208.49  2214.68
                             2222.67  3223.22  4308.16  4344.86  4357.32
                             4370.25  4370.92  4372.76  4379.50  4392.93
                             4413.97  4415.59  4425.33  4436.10  4455.68
                             4458.99  4465.72  4473.38  4476.80  4505.73
                             4514.98  5031.10  5054.38

 Zero-point correction=                           0.302742 (Hartree/Particle)
 Thermal correction to Energy=                    0.317820
 Thermal correction to Enthalpy=                  0.318764
 Thermal correction to Gibbs Free Energy=         0.259889
 Sum of electronic and zero-point Energies=           -486.246784
 Sum of electronic and thermal Energies=              -486.231707
 Sum of electronic and thermal Enthalpies=            -486.230763
 Sum of electronic and thermal Free Energies=         -486.289637

                     E (Thermal)             CV                S
                      KCal/Mol        Cal/Mol-Kelvin    Cal/Mol-Kelvin
 Total                  199.435             56.032            123.911
 Electronic               0.000              0.000              0.000
 Translational            0.889              2.981             41.250
 Rotational               0.889              2.981             31.513
 Vibrational            197.657             50.071             51.149
 Vibration     1          0.593              1.985              6.199
 Vibration     2          0.594              1.983              5.564
 Vibration     3          0.596              1.976              4.646
 Vibration     4          0.597              1.972              4.384
 Vibration     5          0.606              1.942              3.292
 Vibration     6          0.617              1.907              2.727
 Vibration     7          0.628              1.872              2.373
 Vibration     8          0.647              1.811              1.963
 Vibration     9          0.655              1.787              1.839
 Vibration    10          0.656              1.782              1.814
 Vibration    11          0.671              1.738              1.633
 Vibration    12          0.676              1.723              1.577
 Vibration    13          0.692              1.675              1.421
 Vibration    14          0.705              1.639              1.319
 Vibration    15          0.732              1.561              1.136
 Vibration    16          0.749              1.516              1.046
 Vibration    17          0.768              1.465              0.954
 Vibration    18          0.769              1.461              0.948
 Vibration    19          0.807              1.366              0.803
 Vibration    20          0.830              1.308              0.727
 Vibration    21          0.905              1.141              0.546
 Vibration    22          0.951              1.045              0.461
 Vibration    23          0.961              1.025              0.444
 Vibration    24          0.972              1.004              0.428

                           ! Non-Optimized Parameters !
 Normal termination of Gaussian 16 at Wed Dec  9 18:21:51 2020.

 ----------------------------------------------------------------------
 # B3LYP/6-311++G(d,p) empiricaldispersion=gd3bj scf=xqc pop=npa geom=c
 heck
 ----------------------------------------------------------------------

 --------------------------------------
 CID_64664783_JID_2878_Energie_neutraal
 --------------------------------------
 Structure from the checkpoint file:  "JID_2878.chk"
 Charge =  0 Multiplicity = 1

 SCF Done:  E(RB3LYP) =  -486.693164413     A.U. after   13 cycles
 Normal termination of Gaussian 16 at Wed Dec  9 18:25:35 2020.

 ----------------------------------------------------------------------
 # B3LYP/6-311++G(d,p) empiricaldispersion=gd3bj scf=xqc pop=npa geom=c
 heck
 ----------------------------------------------------------------------

 ------------------------------------
 CID_64664783_JID_2878_Energie_kation
 ------------------------------------
 Structure from the checkpoint file:  "JID_2878.chk"
 Charge =  1 Multiplicity = 2

 SCF Done:  E(UB3LYP) =  -486.400162926     A.U. after   28 cycles
 Normal termination of Gaussian 16 at Wed Dec  9 18:37:44 2020.
 Gaussian 16:  ES64L-G16RevA.03 25-Dec-2016

 ----------------------------------------------------------------------
 # B3LYP/6-311++G(d,p) empiricaldispersion=gd3bj scf=xqc pop=npa geom=c
 heck
 ----------------------------------------------------------------------

 -----------------------------------
 CID_64664783_JID_2878_Energie_anion
 -----------------------------------
 Structure from the checkpoint file:  "JID_2878.chk"
 Charge = -1 Multiplicity = 2

                         Standard orientation:
 ---------------------------------------------------------------------
 Center     Atomic      Atomic             Coordinates (Angstroms)
 Number     Number       Type             X           Y           Z
 ---------------------------------------------------------------------
      1          6           0        4.054769   -0.764190   -0.135797
      2          6           0        2.538049   -0.702617   -0.339947
      3          6           0        1.822654   -1.624844    0.665684
      4          7           0        2.135830    0.704854   -0.326915
      5          6           0        0.770906    1.044428   -0.711812
      6          6           0       -0.330919    1.014131    0.372464
      7          6           0        0.007463    1.953438    1.535937
      8          6           0       -1.701234    1.391302   -0.218628
      9          6           0       -2.210605    0.495265   -1.356774
     10          6           0       -2.214967   -1.013602   -1.025154
     11          6           0       -2.928501   -1.331641    0.211162
     12          6           0       -3.512329   -1.565617    1.242164
     13          1           0        4.322863   -0.406215    0.867526
     14          1           0        4.564717   -0.132390   -0.868620
     15          1           0        4.425589   -1.790634   -0.229148
     16          1           0        2.316014   -1.071158   -1.352037
     17          1           0        1.949427   -1.250443    1.689539
     18          1           0        0.749903   -1.697453    0.464813
     19          1           0        2.235631   -2.640252    0.625536
     20          1           0        2.390316    1.138177    0.557252
     21          1           0        0.779085    2.060890   -1.137389
     22          1           0        0.501387    0.374616   -1.536921
     23          1           0       -0.407771    0.000468    0.780799
     24          1           0        0.121381    2.988011    1.186122
     25          1           0       -0.786161    1.940443    2.291232
     26          1           0        0.937692    1.663895    2.038159
     27          1           0       -2.439630    1.373052    0.592114
     28          1           0       -1.663368    2.428477   -0.581589
     29          1           0       -3.231849    0.801331   -1.612765
     30          1           0       -1.608385    0.635757   -2.262089
     31          1           0       -2.665576   -1.564614   -1.860950
     32          1           0       -1.182105   -1.377440   -0.945806
     33          1           0       -4.031691   -1.784822    2.146832
 ---------------------------------------------------------------------

 SCF Done:  E(UB3LYP) =  -486.676220220     A.U. after   33 cycles
 SCF Done:  E(UB3LYP) =  -486.676220220     a.u. after    1 cycles

 The electronic state is 2-A.
 Alpha  occ. eigenvalues --  -14.19340 -10.10153 -10.09516 -10.09042 -10.07684
 Alpha  occ. eigenvalues --  -10.07648 -10.07138 -10.06714 -10.06320 -10.06287
 Alpha  occ. eigenvalues --  -10.06123 -10.05778  -0.80746  -0.72654  -0.69242
 Alpha  occ. eigenvalues --   -0.66173  -0.63754  -0.59236  -0.58983  -0.56758
 Alpha  occ. eigenvalues --   -0.51766  -0.48793  -0.46381  -0.43016  -0.39801
 Alpha  occ. eigenvalues --   -0.38268  -0.36830  -0.36234  -0.34611  -0.34278
 Alpha  occ. eigenvalues --   -0.32311  -0.31901  -0.30817  -0.30223  -0.28918
 Alpha  occ. eigenvalues --   -0.28467  -0.27066  -0.26669  -0.26113  -0.24864
 Alpha  occ. eigenvalues --   -0.24029  -0.23170  -0.22605  -0.21899  -0.17509
 Alpha  occ. eigenvalues --   -0.17442  -0.12012   0.04531
 Alpha virt. eigenvalues --    0.06385   0.06642   0.07125   0.08467   0.08624
 Alpha virt. eigenvalues --    0.08998   0.09648   0.09929   0.10763   0.11208
 Alpha virt. eigenvalues --    0.11579   0.11793   0.12373   0.12639   0.13333

  Beta  occ. eigenvalues --  -14.19331 -10.10141 -10.09486 -10.09028 -10.07687
  Beta  occ. eigenvalues --  -10.07630 -10.07132 -10.06705 -10.06298 -10.06261
  Beta  occ. eigenvalues --  -10.06098 -10.05753  -0.80725  -0.72625  -0.69212
  Beta  occ. eigenvalues --   -0.66143  -0.63725  -0.59189  -0.58933  -0.56711
  Beta  occ. eigenvalues --   -0.51713  -0.48734  -0.46340  -0.42957  -0.39767
  Beta  occ. eigenvalues --   -0.38239  -0.36782  -0.36203  -0.34582  -0.34241
  Beta  occ. eigenvalues --   -0.32270  -0.31873  -0.30782  -0.30186  -0.28891
  Beta  occ. eigenvalues --   -0.28436  -0.27033  -0.26640  -0.26083  -0.24836
  Beta  occ. eigenvalues --   -0.23987  -0.23138  -0.22574  -0.21870  -0.17474
  Beta  occ. eigenvalues --   -0.17418  -0.11996
  Beta virt. eigenvalues --    0.06538   0.07168   0.07462   0.07659   0.08975
  Beta virt. eigenvalues --    0.09083   0.09356   0.09980   0.10360   0.10999
  Beta virt. eigenvalues --    0.11493   0.11869   0.11933   0.12465   0.12869

 Mulliken charges and spin densities:
               1          2
     1  C    0.470924  -0.997178
     2  C   -0.968107   0.781184
     3  C    0.422725  -0.868964
     4  N    0.129355  -0.002596
     5  C   -0.701105  -0.256857
     6  C   -0.547256   1.183761
     7  C    0.695542  -1.279681
     8  C    0.144433  -0.319446
     9  C    0.082605  -0.663731
    10  C   -1.384596   1.330485
    11  C    4.490416  -3.733276
    12  C   -1.960203   0.814562
    13  H   -0.084280   0.218598
    14  H   -0.161272   0.319611
    15  H   -0.070512   0.197710
    16  H   -0.198435   0.330867
    17  H   -0.090572   0.233024
    18  H    0.529979  -0.393254
    19  H   -0.209066   0.350146
    20  H    0.236010  -0.048566
    21  H   -0.098285   0.262835
    22  H    0.297158  -0.120554
    23  H    0.471079  -0.363194
    24  H   -0.020956   0.167851
    25  H   -0.194442   0.343905
    26  H   -0.128992   0.233996
    27  H    0.133787  -0.016898
    28  H    0.133981   0.008999
    29  H   -0.220974   0.399741
    30  H   -0.208242   0.353646
    31  H   -0.626722   0.851795
    32  H   -0.347006   0.499161
    33  H   -1.016973   1.182316
 Sum of Mulliken charges =  -1.00000   1.00000

 Dipole moment (field-independent basis, Debye):
    X=              2.2588    Y=              3.1624    Z=              0.0434  Tot=              3.8865
 Quadrupole moment (field-independent basis, Debye-Ang):
   XX=           -155.6328   YY=           -121.8745   ZZ=           -122.6843
   XY=             -7.0114   XZ=              2.3857   YZ=             -0.8099

 Summary of Natural Population Analysis:

                                       Natural Population
                Natural  -----------------------------------------------
    Atom  No    Charge         Core      Valence    Rydberg      Total
 -----------------------------------------------------------------------
      C    1   -0.28330      0.99965     2.27855    0.00511     3.28330
      C    2   -0.01020      0.99962     1.99857    0.01201     3.01020
      C    3   -0.29416      0.99964     2.28825    0.00627     3.29416
      N    4   -0.34495      0.99974     2.83299    0.01222     3.84495
      C    5   -0.08468      0.99960     2.07369    0.01139     3.08468
      C    6   -0.12787      0.99959     2.11893    0.00935     3.12787
      C    7   -0.28495      0.99965     2.27855    0.00675     3.28495
      C    8   -0.19027      0.99961     2.18171    0.00895     3.19027
      C    9   -0.18069      0.99963     2.17222    0.00884     3.18069
      C   10   -0.23509      0.99956     2.22505    0.01047     3.23509
      C   11    0.00221      0.99937     1.98922    0.00920     2.99779
      C   12   -0.12450      0.99926     2.12183    0.00342     3.12450
      H   13    0.09397      0.00000     0.40491    0.00112     0.40603
      H   14    0.10249      0.00000     0.39611    0.00139     0.39751
      H   15    0.09863      0.00000     0.40036    0.00101     0.40137
      H   16    0.08787      0.00000     0.41019    0.00194     0.41213
      H   17    0.09610      0.00000     0.40274    0.00115     0.40390
      H   18    0.09845      0.00000     0.39970    0.00185     0.40155
      H   19    0.09929      0.00000     0.39971    0.00099     0.40071
      H   20    0.17077      0.00000     0.32638    0.00284     0.32923
      H   21    0.08850      0.00000     0.41022    0.00128     0.41150
      H   22    0.09443      0.00000     0.40369    0.00188     0.40557
      H   23    0.09860      0.00000     0.39831    0.00309     0.40140
      H   24    0.09492      0.00000     0.40413    0.00095     0.40508
      H   25    0.10214      0.00000     0.39696    0.00090     0.39786
      H   26    0.09660      0.00000     0.40233    0.00107     0.40340
      H   27    0.10289      0.00000     0.39595    0.00116     0.39711
      H   28    0.09637      0.00000     0.40253    0.00110     0.40363
      H   29    0.09916      0.00000     0.39972    0.00113     0.40084
      H   30    0.09830      0.00000     0.40031    0.00139     0.40170
      H   31    0.11666      0.00000     0.38116    0.00218     0.38334
      H   32    0.11096      0.00000     0.38683    0.00222     0.38904
      H   33    0.11135      0.00000     0.38678    0.00186     0.38865
 =======================================================================
   * Total *    0.00000     11.99491    34.86860    0.13650    47.00000

 Normal termination of Gaussian 16 at Wed Dec  9 18:50:13 2020.
