 Gaussian 16, Revision A.03,

 -----------------------------------------------------------
 # opt freq B3LYP/6-31G(d) empiricaldispersion=gd3bj scf=xqc
 -----------------------------------------------------------

 -------------------------------
 CID_116988373_JID_7590_neutraal
 -------------------------------
 Symbolic Z-matrix:
 Charge =  0 Multiplicity = 1

 SCF Done:  E(RB3LYP) =  -695.610314616     A.U. after   13 cycles
 SCF Done:  E(RB3LYP) =  -695.614543108     A.U. after   11 cycles
 SCF Done:  E(RB3LYP) =  -695.615138567     A.U. after   11 cycles
 SCF Done:  E(RB3LYP) =  -695.615331218     A.U. after   10 cycles
 SCF Done:  E(RB3LYP) =  -695.615402129     A.U. after   11 cycles
 SCF Done:  E(RB3LYP) =  -695.615454973     A.U. after   11 cycles
 SCF Done:  E(RB3LYP) =  -695.615489221     A.U. after   11 cycles
 SCF Done:  E(RB3LYP) =  -695.615517537     A.U. after    9 cycles
 SCF Done:  E(RB3LYP) =  -695.615539486     A.U. after   10 cycles
 SCF Done:  E(RB3LYP) =  -695.615542430     A.U. after   10 cycles
 SCF Done:  E(RB3LYP) =  -695.615551644     A.U. after    9 cycles
 SCF Done:  E(RB3LYP) =  -695.615551720     A.U. after    7 cycles
 SCF Done:  E(RB3LYP) =  -695.615551842     A.U. after    7 cycles
 SCF Done:  E(RB3LYP) =  -695.615551883     A.U. after    7 cycles
 Optimization completed.
    -- Stationary point found.
 Normal termination of Gaussian 16 at Sun Dec 13 16:12:59 2020.

 --------------------------------------------------------------------
 #N Geom=AllCheck Guess=TCheck SCRF=Check GenChk RB3LYP/6-31G(d) Freq
 --------------------------------------------------------------------

 Structure from the checkpoint file:  "JID_7590.chk"
 -------------------------------
 CID_116988373_JID_7590_neutraal
 -------------------------------
 Charge =  0 Multiplicity = 1

 SCF Done:  E(RB3LYP) =  -695.615551884     A.U. after    1 cycles

  Exact polarizability: 233.804  -0.010 155.207  -4.047   0.559 124.401
 Approx polarizability: 285.232   2.700 259.758 -11.014   0.135 179.222

                      1                      2                      3
                      A                      A                      A
 Frequencies --     22.4329                27.4748                36.7528
 Red. masses --      2.9604                 2.8974                 3.6340
 Frc consts  --      0.0009                 0.0013                 0.0029
 IR Inten    --      0.2269                 0.1027                 0.1964

                      4                      5                      6
                      A                      A                      A
 Frequencies --     62.8285                87.8767               119.7428
 Red. masses --      3.2045                 1.8905                 3.0613
 Frc consts  --      0.0075                 0.0086                 0.0259
 IR Inten    --      0.0207                 1.7876                 0.5961

                      7                      8                      9
                      A                      A                      A
 Frequencies --    143.5461               182.2967               217.1767
 Red. masses --      2.7715                 2.3319                 2.6715
 Frc consts  --      0.0336                 0.0457                 0.0742
 IR Inten    --      0.3919                 1.5944                 0.4765

                     10                     11                     12
                      A                      A                      A
 Frequencies --    222.1496               238.2221               259.5658
 Red. masses --      1.2621                 2.8024                 2.5600
 Frc consts  --      0.0367                 0.0937                 0.1016
 IR Inten    --      1.1269                 0.3840                 0.1855

                     13                     14                     15
                      A                      A                      A
 Frequencies --    265.2985               295.7998               310.9886
 Red. masses --      1.0875                 1.1657                 1.3773
 Frc consts  --      0.0451                 0.0601                 0.0785
 IR Inten    --      0.5535                 0.2599                 0.3002

                     16                     17                     18
                      A                      A                      A
 Frequencies --    325.2649               348.1809               365.8058
 Red. masses --      2.5633                 2.7699                 2.0903
 Frc consts  --      0.1598                 0.1978                 0.1648
 IR Inten    --      0.5222                 0.4735                 5.2263

                     19                     20                     21
                      A                      A                      A
 Frequencies --    372.5148               391.2719               419.0123
 Red. masses --      2.3522                 2.6524                 3.2505
 Frc consts  --      0.1923                 0.2392                 0.3362
 IR Inten    --      0.7014                 2.6988                 0.2900

                     22                     23                     24
                      A                      A                      A
 Frequencies --    420.7492               462.1888               477.3548
 Red. masses --      3.6015                 3.4576                 3.0146
 Frc consts  --      0.3757                 0.4352                 0.4047
 IR Inten    --      1.5973                 2.1973                 2.3347

                     25                     26                     27
                      A                      A                      A
 Frequencies --    555.0350               587.4698               598.9205
 Red. masses --      2.6491                 2.7681                 2.9563
 Frc consts  --      0.4808                 0.5629                 0.6248
 IR Inten    --      0.9365                 9.8288                10.9041

                     28                     29                     30
                      A                      A                      A
 Frequencies --    629.0730               662.5794               700.0399
 Red. masses --      3.3978                 6.1561                 3.5041
 Frc consts  --      0.7922                 1.5923                 1.0117
 IR Inten    --      0.4451                 0.2342                16.6018

                     31                     32                     33
                      A                      A                      A
 Frequencies --    760.5599               771.9579               791.8120
 Red. masses --      3.6022                 1.9935                 1.7288
 Frc consts  --      1.2277                 0.6999                 0.6386
 IR Inten    --      9.5975                35.1704                31.8160

                     34                     35                     36
                      A                      A                      A
 Frequencies --    847.5038               848.0383               865.3847
 Red. masses --      2.0345                 1.4902                 1.6446
 Frc consts  --      0.8610                 0.6314                 0.7257
 IR Inten    --      5.1852                15.6516                10.7795

                     37                     38                     39
                      A                      A                      A
 Frequencies --    867.3108               909.1651               936.8840
 Red. masses --      1.9557                 2.7042                 1.8709
 Frc consts  --      0.8668                 1.3170                 0.9675
 IR Inten    --      2.4379                14.0746                 1.1304

                     40                     41                     42
                      A                      A                      A
 Frequencies --    938.6463               956.4007               965.4529
 Red. masses --      2.0315                 1.4043                 1.6953
 Frc consts  --      1.0546                 0.7568                 0.9310
 IR Inten    --      0.3808                 0.6746                 2.7488

                     43                     44                     45
                      A                      A                      A
 Frequencies --    983.4200               990.8459              1023.3335
 Red. masses --      2.0185                 1.3389                 1.6655
 Frc consts  --      1.1502                 0.7745                 1.0276
 IR Inten    --      0.8942                 0.5126                 3.4856

                     46                     47                     48
                      A                      A                      A
 Frequencies --   1029.9680              1043.9893              1062.8642
 Red. masses --      1.3432                 2.6834                 1.9000
 Frc consts  --      0.8395                 1.7232                 1.2646
 IR Inten    --      2.5683                 8.0080                 9.5067

                     49                     50                     51
                      A                      A                      A
 Frequencies --   1075.6596              1101.8593              1104.8945
 Red. masses --      3.2195                 2.1020                 1.8970
 Frc consts  --      2.1948                 1.5036                 1.3644
 IR Inten    --      0.4715                 0.7502                 5.5960

                     52                     53                     54
                      A                      A                      A
 Frequencies --   1120.7372              1144.8307              1154.0251
 Red. masses --      1.6751                 2.8793                 1.3996
 Frc consts  --      1.2396                 2.2234                 1.0982
 IR Inten    --      4.5052                28.8769                 9.5800

                     55                     56                     57
                      A                      A                      A
 Frequencies --   1156.9089              1170.3008              1194.5622
 Red. masses --      1.3548                 1.4123                 2.3202
 Frc consts  --      1.0684                 1.1396                 1.9507
 IR Inten    --     17.3354                 5.3484                29.0380

                     58                     59                     60
                      A                      A                      A
 Frequencies --   1212.7032              1216.5779              1224.9567
 Red. masses --      1.2758                 2.4097                 1.2463
 Frc consts  --      1.1054                 2.1013                 1.1018
 IR Inten    --      1.6463                30.7657                 6.4499

                     61                     62                     63
                      A                      A                      A
 Frequencies --   1227.1560              1243.8407              1255.8889
 Red. masses --      1.3914                 1.9060                 2.7070
 Frc consts  --      1.2345                 1.7374                 2.5156
 IR Inten    --      2.5567                 0.3832                38.4085

                     64                     65                     66
                      A                      A                      A
 Frequencies --   1277.6980              1299.8131              1301.9938
 Red. masses --      1.7606                 1.9386                 2.7336
 Frc consts  --      1.6934                 1.9297                 2.7302
 IR Inten    --     13.7009                41.5224                12.3282

                     67                     68                     69
                      A                      A                      A
 Frequencies --   1323.1690              1330.2839              1339.9228
 Red. masses --      1.7121                 1.5604                 1.2438
 Frc consts  --      1.7661                 1.6269                 1.3158
 IR Inten    --      5.1431                 8.4518                 2.7362

                     70                     71                     72
                      A                      A                      A
 Frequencies --   1349.1753              1375.1957              1393.1200
 Red. masses --      2.0357                 1.5571                 1.6893
 Frc consts  --      2.1833                 1.7350                 1.9317
 IR Inten    --      1.7994                 1.4445                14.6103

                     73                     74                     75
                      A                      A                      A
 Frequencies --   1410.3745              1420.6173              1439.0765
 Red. masses --      1.6217                 1.2385                 1.2382
 Frc consts  --      1.9007                 1.4726                 1.5107
 IR Inten    --     12.0210                12.0543                 5.3146

                     76                     77                     78
                      A                      A                      A
 Frequencies --   1464.8241              1480.8829              1482.6420
 Red. masses --      2.3646                 1.1974                 1.1621
 Frc consts  --      2.9894                 1.5471                 1.5051
 IR Inten    --      9.2446                 2.4888                 0.8700

                     79                     80                     81
                      A                      A                      A
 Frequencies --   1500.4201              1511.7584              1517.1995
 Red. masses --      1.1765                 1.0507                 1.0486
 Frc consts  --      1.5605                 1.4148                 1.4222
 IR Inten    --     18.2352                 0.9907                15.5305

                     82                     83                     84
                      A                      A                      A
 Frequencies --   1518.7728              1526.0554              1530.9784
 Red. masses --      1.0824                 1.0818                 1.0615
 Frc consts  --      1.4710                 1.4843                 1.4660
 IR Inten    --      2.2467                 7.1707                 1.3764

                     85                     86                     87
                      A                      A                      A
 Frequencies --   1531.0968              1536.9698              1537.1222
 Red. masses --      1.0639                 1.0658                 1.0712
 Frc consts  --      1.4694                 1.4833                 1.4911
 IR Inten    --      1.3136                 2.9011                 0.6562

                     88                     89                     90
                      A                      A                      A
 Frequencies --   1549.0446              1552.8051              1555.2820
 Red. masses --      1.0735                 1.0757                 1.1190
 Frc consts  --      1.5177                 1.5282                 1.5948
 IR Inten    --      8.3857                12.7232                 6.9028

                     91                     92                     93
                      A                      A                      A
 Frequencies --   1563.8509              1629.3231              1676.4467
 Red. masses --      2.2130                 6.0709                 5.8354
 Frc consts  --      3.1888                 9.4954                 9.6627
 IR Inten    --     30.6759                 0.2684                 0.5627

                     94                     95                     96
                      A                      A                      A
 Frequencies --   2903.7979              2919.0149              2931.9575
 Red. masses --      1.0740                 1.0698                 1.0652
 Frc consts  --      5.3358                 5.3708                 5.3952
 IR Inten    --     46.3820                39.1546               142.3764

                     97                     98                     99
                      A                      A                      A
 Frequencies --   2973.8482              3052.3074              3058.0868
 Red. masses --      1.0597                 1.0357                 1.0370
 Frc consts  --      5.5217                 5.6851                 5.7139
 IR Inten    --     97.6003                21.1202                21.3775

                    100                    101                    102
                      A                      A                      A
 Frequencies --   3068.8363              3074.3148              3077.3831
 Red. masses --      1.0839                 1.0729                 1.0785
 Frc consts  --      6.0143                 5.9746                 6.0176
 IR Inten    --      8.8643                21.8183                55.6021

                    103                    104                    105
                      A                      A                      A
 Frequencies --   3085.5152              3087.3576              3091.7158
 Red. masses --      1.0775                 1.0728                 1.0789
 Frc consts  --      6.0441                 6.0246                 6.0761
 IR Inten    --     68.7610                44.8892                26.6126

                    106                    107                    108
                      A                      A                      A
 Frequencies --   3118.3426              3119.6958              3122.4881
 Red. masses --      1.1042                 1.1021                 1.1015
 Frc consts  --      6.3261                 6.3195                 6.3278
 IR Inten    --     30.9434                 6.2335                51.2247

                    109                    110                    111
                      A                      A                      A
 Frequencies --   3127.8689              3129.0057              3131.2186
 Red. masses --      1.1016                 1.1058                 1.1011
 Frc consts  --      6.3502                 6.3785                 6.3608
 IR Inten    --     21.5837                36.2002                57.7422

                    112                    113                    114
                      A                      A                      A
 Frequencies --   3141.4342              3175.2006              3175.6980
 Red. masses --      1.1034                 1.0887                 1.0887
 Frc consts  --      6.4155                 6.4672                 6.4687
 IR Inten    --     18.4500                17.7645                21.4818

                    115                    116                    117
                      A                      A                      A
 Frequencies --   3215.2952              3223.4483              3492.6095
 Red. masses --      1.0907                 1.0913                 1.0741
 Frc consts  --      6.6433                 6.6807                 7.7194
 IR Inten    --     18.8759                 2.8900                 0.7939

 - Thermochemistry -
 -------------------
 Temperature   298.150 Kelvin.  Pressure   1.00000 Atm.
 Atom     1 has atomic number  6 and mass  12.00000

 Molecular mass:   232.19395 amu.
 Principal axes and moments of inertia in atomic units:
                           1         2         3
     Eigenvalues --  1384.09809********************
           X            0.99999  -0.00363   0.00070
           Y            0.00364   0.99994  -0.01069
           Z           -0.00066   0.01069   0.99994
 This molecule is an asymmetric top.
 Rotational symmetry number  1.
 Warning -- assumption of classical behavior for rotation
           may cause significant error
 Rotational temperatures (Kelvin)      0.06258     0.00856     0.00835
 Rotational constants (GHZ):           1.30391     0.17832     0.17399
 Zero-point vibrational energy     971537.6 (Joules/Mol)
                                  232.20307 (Kcal/Mol)
 Warning -- explicit consideration of  27 degrees of freedom as
           vibrations may cause significant error
 Vibrational temperatures:     32.28    39.53    52.88    90.40   126.43
          (Kelvin)            172.28   206.53   262.28   312.47   319.62
                              342.75   373.46   381.71   425.59   447.44
                              467.98   500.95   526.31   535.97   562.95
                              602.87   605.36   664.99   686.81   798.57
                              845.24   861.71   905.10   953.30  1007.20
                             1094.28  1110.68  1139.24  1219.37  1220.14
                             1245.10  1247.87  1308.09  1347.97  1350.50
                             1376.05  1389.07  1414.92  1425.61  1472.35
                             1481.89  1502.07  1529.22  1547.63  1585.33
                             1589.70  1612.49  1647.16  1660.38  1664.53
                             1683.80  1718.71  1744.81  1750.38  1762.44
                             1765.60  1789.61  1806.94  1838.32  1870.14
                             1873.28  1903.75  1913.98  1927.85  1941.16
                             1978.60  2004.39  2029.21  2043.95  2070.51
                             2107.56  2130.66  2133.19  2158.77  2175.08
                             2182.91  2185.18  2195.65  2202.74  2202.91
                             2211.36  2211.58  2228.73  2234.14  2237.70
                             2250.03  2344.23  2412.03  4177.92  4199.81
                             4218.43  4278.70  4391.59  4399.90  4415.37
                             4423.25  4427.67  4439.37  4442.02  4448.29
                             4486.60  4488.55  4492.56  4500.31  4501.94
                             4505.13  4519.82  4568.41  4569.12  4626.09
                             4637.82  5025.09

 Zero-point correction=                           0.370039 (Hartree/Particle)
 Thermal correction to Energy=                    0.387502
 Thermal correction to Enthalpy=                  0.388446
 Thermal correction to Gibbs Free Energy=         0.323593
 Sum of electronic and zero-point Energies=           -695.245513
 Sum of electronic and thermal Energies=              -695.228050
 Sum of electronic and thermal Enthalpies=            -695.227106
 Sum of electronic and thermal Free Energies=         -695.291959

                     E (Thermal)             CV                S
                      KCal/Mol        Cal/Mol-Kelvin    Cal/Mol-Kelvin
 Total                  243.161             67.717            136.494
 Electronic               0.000              0.000              0.000
 Translational            0.889              2.981             42.229
 Rotational               0.889              2.981             33.341
 Vibrational            241.384             61.755             60.925
 Vibration     1          0.593              1.985              6.406
 Vibration     2          0.593              1.984              6.004
 Vibration     3          0.594              1.982              5.427
 Vibration     4          0.597              1.972              4.366
 Vibration     5          0.601              1.958              3.707
 Vibration     6          0.609              1.933              3.105
 Vibration     7          0.616              1.910              2.756
 Vibration     8          0.630              1.864              2.305
 Vibration     9          0.646              1.815              1.983
 Vibration    10          0.648              1.807              1.942
 Vibration    11          0.656              1.782              1.816
 Vibration    12          0.668              1.747              1.665
 Vibration    13          0.671              1.737              1.627
 Vibration    14          0.690              1.682              1.441
 Vibration    15          0.700              1.653              1.357
 Vibration    16          0.709              1.625              1.284
 Vibration    17          0.726              1.579              1.174
 Vibration    18          0.739              1.543              1.097
 Vibration    19          0.744              1.529              1.069
 Vibration    20          0.759              1.489              0.995
 Vibration    21          0.782              1.429              0.895
 Vibration    22          0.783              1.425              0.889
 Vibration    23          0.820              1.334              0.760
 Vibration    24          0.834              1.300              0.717
 Vibration    25          0.910              1.129              0.534
 Vibration    26          0.945              1.059              0.472
 Vibration    27          0.957              1.034              0.452

                           ! Non-Optimized Parameters !
 Normal termination of Gaussian 16 at Sun Dec 13 16:30:19 2020.

 ----------------------------------------------------------------------
 # B3LYP/6-311++G(d,p) empiricaldispersion=gd3bj scf=xqc pop=npa geom=c
 heck
 ----------------------------------------------------------------------

 ---------------------------------------
 CID_116988373_JID_7590_Energie_neutraal
 ---------------------------------------
 Structure from the checkpoint file:  "JID_7590.chk"
 Charge =  0 Multiplicity = 1

 SCF Done:  E(RB3LYP) =  -695.802788368     A.U. after   15 cycles
 Normal termination of Gaussian 16 at Sun Dec 13 16:38:46 2020.

 ----------------------------------------------------------------------
 # B3LYP/6-311++G(d,p) empiricaldispersion=gd3bj scf=xqc pop=npa geom=c
 heck
 ----------------------------------------------------------------------

 -------------------------------------
 CID_116988373_JID_7590_Energie_kation
 -------------------------------------
 Structure from the checkpoint file:  "JID_7590.chk"
 Charge =  1 Multiplicity = 2

 SCF Done:  E(UB3LYP) =  -695.527319137     A.U. after   33 cycles
 SCF Done:  E(UB3LYP) =  -695.527319138     a.u. after    2 cycles
 Normal termination of Gaussian 16 at Sun Dec 13 17:24:53 2020.
 Gaussian 16:  ES64L-G16RevA.03 25-Dec-2016

 ----------------------------------------------------------------------
 # B3LYP/6-311++G(d,p) empiricaldispersion=gd3bj scf=xqc pop=npa geom=c
 heck
 ----------------------------------------------------------------------

 ------------------------------------
 CID_116988373_JID_7590_Energie_anion
 ------------------------------------
 Structure from the checkpoint file:  "JID_7590.chk"
 Charge = -1 Multiplicity = 2

                         Standard orientation:
 ---------------------------------------------------------------------
 Center     Atomic      Atomic             Coordinates (Angstroms)
 Number     Number       Type             X           Y           Z
 ---------------------------------------------------------------------
      1          6           0       -3.603551   -0.141703    1.725764
      2          6           0       -3.350798    0.102368    0.223663
      3          6           0       -4.158487    1.335167   -0.230891
      4          6           0       -1.842056    0.302131    0.021499
      5          6           0       -1.253875    1.566423   -0.079549
      6          6           0        0.128766    1.708559   -0.212747
      7          6           0        0.973619    0.597568   -0.249445
      8          6           0        0.382719   -0.670133   -0.147187
      9          6           0       -0.993929   -0.815591   -0.013753
     10          6           0        2.468865    0.761714   -0.383155
     11          6           0        3.127257   -0.034556   -1.557154
     12          6           0        4.301103   -0.791283   -0.908590
     13          7           0        4.578181   -0.037608    0.312210
     14          6           0        3.260890    0.276896    0.850770
     15          6           0        5.449942   -0.724495    1.242617
     16          7           0       -3.721498   -1.115563   -0.531140
     17          6           0       -5.096784   -1.586612   -0.426514
     18          1           0       -3.189695    0.685027    2.310690
     19          1           0       -3.118586   -1.068632    2.045897
     20          1           0       -4.673984   -0.209706    1.949139
     21          1           0       -3.951730    2.213295    0.389105
     22          1           0       -3.932397    1.591699   -1.272146
     23          1           0       -5.231097    1.134901   -0.151596
     24          1           0       -1.867180    2.460687   -0.058956
     25          1           0        0.556715    2.705250   -0.293954
     26          1           0        1.009904   -1.558342   -0.173040
     27          1           0       -1.437241   -1.803121    0.049953
     28          1           0        2.687315    1.824989   -0.522859
     29          1           0        3.478039    0.655975   -2.329216
     30          1           0        2.418408   -0.720034   -2.028722
     31          1           0        5.194463   -0.841872   -1.541089
     32          1           0        3.999836   -1.833753   -0.676449
     33          1           0        2.770659   -0.616129    1.288836
     34          1           0        3.327936    1.036199    1.637644
     35          1           0        5.619521   -0.098361    2.125309
     36          1           0        5.036400   -1.695394    1.583383
     37          1           0        6.419729   -0.915888    0.770169
     38          1           0       -3.487763   -0.961840   -1.510169
     39          1           0       -5.876003   -0.848199   -0.684072
     40          1           0       -5.216517   -2.443574   -1.097150
     41          1           0       -5.295606   -1.939690    0.589838
 ---------------------------------------------------------------------

 SCF Done:  E(UB3LYP) =  -695.788900182     A.U. after   33 cycles
 SCF Done:  E(UB3LYP) =  -695.788900182     a.u. after    1 cycles

 The electronic state is 2-A.
 Alpha  occ. eigenvalues --  -14.21762 -14.20464 -10.12369 -10.10407 -10.10323
 Alpha  occ. eigenvalues --  -10.10025 -10.09270 -10.09184 -10.08933 -10.08667
 Alpha  occ. eigenvalues --  -10.08180 -10.08175 -10.08098 -10.08048 -10.07694
 Alpha  occ. eigenvalues --  -10.06835 -10.06648  -0.85076  -0.82071  -0.76811
 Alpha  occ. eigenvalues --   -0.71414  -0.68512  -0.65586  -0.65051  -0.62686
 Alpha  occ. eigenvalues --   -0.59968  -0.58983  -0.57829  -0.52610  -0.51512
 Alpha  occ. eigenvalues --   -0.49115  -0.48228  -0.46327  -0.42626  -0.41129
 Alpha  occ. eigenvalues --   -0.40330  -0.37896  -0.37047  -0.36387  -0.35612
 Alpha  occ. eigenvalues --   -0.35411  -0.34655  -0.33613  -0.32860  -0.32241
 Alpha  occ. eigenvalues --   -0.31752  -0.30964  -0.30188  -0.29074  -0.28861
 Alpha  occ. eigenvalues --   -0.28455  -0.27561  -0.27347  -0.26864  -0.25756
 Alpha  occ. eigenvalues --   -0.25507  -0.25132  -0.24384  -0.23366  -0.23270
 Alpha  occ. eigenvalues --   -0.16411  -0.15138  -0.13534  -0.13322   0.03964
 Alpha virt. eigenvalues --    0.05170   0.06429   0.06922   0.07307   0.07463
 Alpha virt. eigenvalues --    0.07541   0.07752   0.07890   0.08738   0.08907
 Alpha virt. eigenvalues --    0.09607   0.10083   0.10228   0.10438   0.10479

  Beta  occ. eigenvalues --  -14.21756 -14.20456 -10.12366 -10.10389 -10.10311
  Beta  occ. eigenvalues --  -10.09997 -10.09233 -10.09180 -10.08932 -10.08666
  Beta  occ. eigenvalues --  -10.08174 -10.08168 -10.08088 -10.08038 -10.07691
  Beta  occ. eigenvalues --  -10.06812 -10.06617  -0.85061  -0.82055  -0.76800
  Beta  occ. eigenvalues --   -0.71397  -0.68490  -0.65570  -0.65027  -0.62660
  Beta  occ. eigenvalues --   -0.59921  -0.58937  -0.57771  -0.52581  -0.51490
  Beta  occ. eigenvalues --   -0.49063  -0.48202  -0.46297  -0.42601  -0.41102
  Beta  occ. eigenvalues --   -0.40295  -0.37871  -0.37010  -0.36358  -0.35587
  Beta  occ. eigenvalues --   -0.35388  -0.34629  -0.33591  -0.32843  -0.32210
  Beta  occ. eigenvalues --   -0.31725  -0.30930  -0.30157  -0.29053  -0.28838
  Beta  occ. eigenvalues --   -0.28426  -0.27530  -0.27323  -0.26836  -0.25732
  Beta  occ. eigenvalues --   -0.25486  -0.25115  -0.24364  -0.23349  -0.23253
  Beta  occ. eigenvalues --   -0.16394  -0.15124  -0.13496  -0.13303
  Beta virt. eigenvalues --    0.05717   0.06127   0.06820   0.07254   0.07423
  Beta virt. eigenvalues --    0.07739   0.07991   0.08017   0.08120   0.09129
  Beta virt. eigenvalues --    0.09255   0.09803   0.10351   0.10377   0.10615

 Mulliken charges and spin densities:
               1          2
     1  C    0.368433  -1.169072
     2  C   -0.476541   0.723236
     3  C    0.444253  -0.835394
     4  C    0.190647   0.185928
     5  C   -1.027908   0.359657
     6  C    0.676450  -1.215937
     7  C    0.698753   0.472326
     8  C   -1.523362   0.852587
     9  C   -0.328992  -0.094527
    10  C    0.758580  -0.838316
    11  C   -0.315097  -0.019767
    12  C    0.287115  -0.690514
    13  N    0.014674   0.140269
    14  C   -0.525700  -0.282039
    15  C    0.576383  -0.834443
    16  N   -0.077452   0.078489
    17  C    0.840677  -1.147612
    18  H   -0.003894   0.153706
    19  H    0.039385   0.128529
    20  H   -0.004978   0.159138
    21  H   -0.194216   0.336860
    22  H   -0.096405   0.254082
    23  H   -0.291243   0.449289
    24  H    0.096131   0.048941
    25  H   -0.264177   0.422180
    26  H    0.007935   0.171999
    27  H   -0.016985   0.232924
    28  H    0.208368  -0.008746
    29  H   -0.020959   0.173862
    30  H    0.070041   0.085399
    31  H   -0.157471   0.345759
    32  H    0.018350   0.085064
    33  H    0.113832  -0.003523
    34  H   -0.011198   0.207155
    35  H   -0.185472   0.316096
    36  H   -0.096645   0.204145
    37  H   -0.239983   0.372146
    38  H    0.126516   0.094683
    39  H   -0.231744   0.358560
    40  H   -0.189452   0.325501
    41  H   -0.256651   0.401378
 Sum of Mulliken charges =  -1.00000   1.00000

 Dipole moment (field-independent basis, Debye):
    X=              1.8796    Y=              0.7828    Z=             -0.5047  Tot=              2.0977
 Quadrupole moment (field-independent basis, Debye-Ang):
   XX=           -250.7587   YY=           -146.1387   ZZ=           -141.3456
   XY=              1.1597   XZ=             -3.6750   YZ=             -0.0535

 Summary of Natural Population Analysis:

                                       Natural Population
                Natural  -----------------------------------------------
    Atom  No    Charge         Core      Valence    Rydberg      Total
 -----------------------------------------------------------------------
      C    1   -0.28646      0.99962     2.27993    0.00691     3.28646
      C    2    0.05447      0.99955     1.93150    0.01449     2.94553
      C    3   -0.29722      0.99963     2.28952    0.00807     3.29722
      C    4   -0.02291      0.99949     2.00963    0.01379     3.02291
      C    5   -0.08290      0.99951     2.07785    0.00554     3.08290
      C    6   -0.10292      0.99954     2.09199    0.01139     3.10292
      C    7   -0.01550      0.99949     2.00525    0.01075     3.01550
      C    8   -0.10029      0.99951     2.09260    0.00817     3.10029
      C    9   -0.09457      0.99951     2.08621    0.00885     3.09457
      C   10   -0.11944      0.99957     2.10791    0.01196     3.11944
      C   11   -0.18729      0.99962     2.18066    0.00701     3.18729
      C   12   -0.08539      0.99963     2.07387    0.01189     3.08539
      N   13   -0.27928      0.99972     2.76670    0.01286     3.77928
      C   14   -0.07748      0.99960     2.06612    0.01176     3.07748
      C   15   -0.17355      0.99965     2.16676    0.00714     3.17355
      N   16   -0.34441      0.99973     2.83197    0.01271     3.84441
      C   17   -0.18020      0.99965     2.17190    0.00865     3.18020
      H   18    0.10308      0.00000     0.39612    0.00080     0.39692
      H   19    0.10443      0.00000     0.39454    0.00103     0.39557
      H   20    0.10036      0.00000     0.39873    0.00091     0.39964
      H   21    0.10061      0.00000     0.39815    0.00124     0.39939
      H   22    0.10134      0.00000     0.39740    0.00126     0.39866
      H   23    0.10411      0.00000     0.39468    0.00121     0.39589
      H   24    0.10043      0.00000     0.39793    0.00164     0.39957
      H   25    0.09801      0.00000     0.40028    0.00170     0.40199
      H   26    0.09977      0.00000     0.39869    0.00154     0.40023
      H   27    0.11221      0.00000     0.38637    0.00141     0.38779
      H   28    0.10171      0.00000     0.39621    0.00208     0.39829
      H   29    0.10007      0.00000     0.39881    0.00112     0.39993
      H   30    0.10172      0.00000     0.39710    0.00118     0.39828
      H   31    0.09718      0.00000     0.40151    0.00132     0.40282
      H   32    0.07769      0.00000     0.42066    0.00165     0.42231
      H   33    0.08082      0.00000     0.41757    0.00161     0.41918
      H   34    0.09864      0.00000     0.40016    0.00120     0.40136
      H   35    0.09523      0.00000     0.40343    0.00134     0.40477
      H   36    0.07911      0.00000     0.41890    0.00200     0.42089
      H   37    0.09604      0.00000     0.40243    0.00154     0.40396
      H   38    0.17345      0.00000     0.32413    0.00242     0.32655
      H   39    0.08067      0.00000     0.41747    0.00186     0.41933
      H   40    0.09618      0.00000     0.40293    0.00089     0.40382
      H   41    0.09251      0.00000     0.40614    0.00135     0.40749
 =======================================================================
   * Total *    0.00003     16.99301    46.80071    0.20625    63.99997

 Normal termination of Gaussian 16 at Sun Dec 13 17:49:37 2020.
