 Gaussian 16, Revision A.03,

 -----------------------------------------------------------
 # opt freq B3LYP/6-31G(d) empiricaldispersion=gd3bj scf=xqc
 -----------------------------------------------------------

 -------------------------------
 CID_100586089_JID_7554_neutraal
 -------------------------------
 Symbolic Z-matrix:
 Charge =  0 Multiplicity = 1

 SCF Done:  E(RB3LYP) =  -714.279995930     A.U. after   15 cycles
 SCF Done:  E(RB3LYP) =  -714.283298069     A.U. after   12 cycles
 SCF Done:  E(RB3LYP) =  -714.283991859     A.U. after   12 cycles
 SCF Done:  E(RB3LYP) =  -714.284475899     A.U. after   12 cycles
 SCF Done:  E(RB3LYP) =  -714.284661781     A.U. after   12 cycles
 SCF Done:  E(RB3LYP) =  -714.284768774     A.U. after   11 cycles
 SCF Done:  E(RB3LYP) =  -714.284829255     A.U. after   11 cycles
 SCF Done:  E(RB3LYP) =  -714.284961224     A.U. after   12 cycles
 SCF Done:  E(RB3LYP) =  -714.285223969     A.U. after   12 cycles
 SCF Done:  E(RB3LYP) =  -714.285091593     A.U. after   10 cycles
 SCF Done:  E(RB3LYP) =  -714.287346358     A.U. after   10 cycles
 SCF Done:  E(RB3LYP) =  -714.287348420     A.U. after    8 cycles
 SCF Done:  E(RB3LYP) =  -714.287348821     A.U. after    8 cycles
 SCF Done:  E(RB3LYP) =  -714.287348929     A.U. after    7 cycles
 SCF Done:  E(RB3LYP) =  -714.287348975     A.U. after    7 cycles
 Optimization completed.
    -- Stationary point found.
 Normal termination of Gaussian 16 at Sun Dec 13 16:23:39 2020.

 --------------------------------------------------------------------
 #N Geom=AllCheck Guess=TCheck SCRF=Check GenChk RB3LYP/6-31G(d) Freq
 --------------------------------------------------------------------

 Structure from the checkpoint file:  "JID_7554.chk"
 -------------------------------
 CID_100586089_JID_7554_neutraal
 -------------------------------
 Charge =  0 Multiplicity = 1

 SCF Done:  E(RB3LYP) =  -714.287348975     A.U. after    1 cycles

  Exact polarizability: 219.760  11.218 171.485  -8.133   3.469 111.575
 Approx polarizability: 284.273  27.728 292.586 -15.212   5.630 158.396

                      1                      2                      3
                      A                      A                      A
 Frequencies --     22.7462                29.1599                39.7601
 Red. masses --      3.6640                 3.4403                 3.4873
 Frc consts  --      0.0011                 0.0017                 0.0032
 IR Inten    --      0.1706                 0.4384                 1.0055

                      4                      5                      6
                      A                      A                      A
 Frequencies --     65.0177                85.6177               111.9986
 Red. masses --      3.0419                 3.2432                 5.0925
 Frc consts  --      0.0076                 0.0140                 0.0376
 IR Inten    --      0.1200                 0.9320                 1.4498

                      7                      8                      9
                      A                      A                      A
 Frequencies --    126.6481               142.3692               166.1210
 Red. masses --      5.0075                 4.7241                 2.0007
 Frc consts  --      0.0473                 0.0564                 0.0325
 IR Inten    --      2.8961                 0.9763                 0.7460

                     10                     11                     12
                      A                      A                      A
 Frequencies --    221.2773               225.1189               244.5256
 Red. masses --      1.8208                 1.5514                 2.6824
 Frc consts  --      0.0525                 0.0463                 0.0945
 IR Inten    --      1.3769                 0.5097                 1.3030

                     13                     14                     15
                      A                      A                      A
 Frequencies --    260.1449               280.4530               285.2431
 Red. masses --      1.9370                 1.2502                 1.4644
 Frc consts  --      0.0772                 0.0579                 0.0702
 IR Inten    --      0.9656                 0.0212                 1.0083

                     16                     17                     18
                      A                      A                      A
 Frequencies --    286.8799               335.2788               336.4732
 Red. masses --      2.4419                 2.3077                 1.0687
 Frc consts  --      0.1184                 0.1528                 0.0713
 IR Inten    --      0.2351                 0.4037                 0.0479

                     19                     20                     21
                      A                      A                      A
 Frequencies --    364.6858               376.6178               405.4925
 Red. masses --      2.5745                 2.3181                 4.1759
 Frc consts  --      0.2017                 0.1937                 0.4045
 IR Inten    --      0.8789                 0.0787                 1.0842

                     22                     23                     24
                      A                      A                      A
 Frequencies --    411.2616               442.3244               444.1746
 Red. masses --      4.8315                 3.4364                 3.5994
 Frc consts  --      0.4815                 0.3961                 0.4184
 IR Inten    --      0.0092                 0.8718                 0.5039

                     25                     26                     27
                      A                      A                      A
 Frequencies --    474.7022               522.7928               525.3690
 Red. masses --      3.3994                 3.9258                 3.4815
 Frc consts  --      0.4513                 0.6322                 0.5662
 IR Inten    --      0.5486                 6.9492                 0.1428

                     28                     29                     30
                      A                      A                      A
 Frequencies --    552.7949               636.3777               649.8092
 Red. masses --      2.8505                 5.8188                 3.9854
 Frc consts  --      0.5132                 1.3884                 0.9915
 IR Inten    --      1.9449                 1.2304                 2.3052

                     31                     32                     33
                      A                      A                      A
 Frequencies --    685.4453               750.2836               754.3194
 Red. masses --      5.5800                 3.9592                 1.3145
 Frc consts  --      1.5447                 1.3131                 0.4407
 IR Inten    --      2.4060                 4.8097                10.3705

                     34                     35                     36
                      A                      A                      A
 Frequencies --    791.8672               825.0115               834.4574
 Red. masses --      3.3258                 2.4814                 1.8879
 Frc consts  --      1.2287                 0.9951                 0.7745
 IR Inten    --      3.1783                 1.2890                17.2456

                     37                     38                     39
                      A                      A                      A
 Frequencies --    840.7940               893.5554               923.2789
 Red. masses --      2.1521                 1.6729                 1.4744
 Frc consts  --      0.8964                 0.7870                 0.7405
 IR Inten    --      9.7973                14.2547                 4.4933

                     40                     41                     42
                      A                      A                      A
 Frequencies --    931.0926               942.0858               953.6228
 Red. masses --      3.2656                 1.6853                 1.7056
 Frc consts  --      1.6680                 0.8813                 0.9138
 IR Inten    --      2.2832                 2.0359                 1.2385

                     43                     44                     45
                      A                      A                      A
 Frequencies --    960.0033               976.2815               980.8993
 Red. masses --      1.3200                 1.2043                 1.9057
 Frc consts  --      0.7168                 0.6763                 1.0803
 IR Inten    --      0.0181                 0.0966                 3.4607

                     46                     47                     48
                      A                      A                      A
 Frequencies --   1003.6140              1038.9145              1059.0089
 Red. masses --      1.5434                 2.2452                 1.4037
 Frc consts  --      0.9159                 1.4278                 0.9275
 IR Inten    --      9.4146                46.4494                 1.7008

                     49                     50                     51
                      A                      A                      A
 Frequencies --   1064.5646              1102.2293              1141.5278
 Red. masses --      1.3895                 2.3196                 1.9465
 Frc consts  --      0.9278                 1.6604                 1.4944
 IR Inten    --      0.0053                21.0111                 9.8039

                     52                     53                     54
                      A                      A                      A
 Frequencies --   1150.5947              1169.3243              1176.4314
 Red. masses --      1.9018                 2.1789                 2.2562
 Frc consts  --      1.4834                 1.7554                 1.8397
 IR Inten    --      4.2617                 9.9244                50.2400

                     55                     56                     57
                      A                      A                      A
 Frequencies --   1227.2351              1244.3657              1247.2813
 Red. masses --      1.8524                 2.7105                 2.5494
 Frc consts  --      1.6438                 2.4728                 2.3367
 IR Inten    --      5.7854                 3.4850                 4.5463

                     58                     59                     60
                      A                      A                      A
 Frequencies --   1264.9734              1289.4702              1304.8041
 Red. masses --      1.1652                 1.2987                 2.2035
 Frc consts  --      1.0985                 1.2723                 2.2104
 IR Inten    --      4.4253                 0.8193                 7.4846

                     61                     62                     63
                      A                      A                      A
 Frequencies --   1326.0650              1333.4237              1340.1078
 Red. masses --      3.8115                 1.7867                 1.1485
 Frc consts  --      3.9489                 1.8717                 1.2152
 IR Inten    --    291.0546                87.9585                 1.7618

                     64                     65                     66
                      A                      A                      A
 Frequencies --   1353.1915              1395.7684              1410.7751
 Red. masses --      5.2425                 1.3591                 1.4825
 Frc consts  --      5.6560                 1.5600                 1.7385
 IR Inten    --     28.3878                 4.2940                 2.7234

                     67                     68                     69
                      A                      A                      A
 Frequencies --   1426.4459              1428.0262              1438.4404
 Red. masses --      1.3357                 1.2129                 1.3741
 Frc consts  --      1.6013                 1.4573                 1.6752
 IR Inten    --      5.8016                 4.2482                36.3220

                     70                     71                     72
                      A                      A                      A
 Frequencies --   1445.9642              1454.3379              1460.8759
 Red. masses --      1.3541                 2.6055                 1.2739
 Frc consts  --      1.6681                 3.2469                 1.6018
 IR Inten    --      8.4514                 5.8088                 6.6517

                     73                     74                     75
                      A                      A                      A
 Frequencies --   1506.0325              1513.3191              1516.4508
 Red. masses --      1.0880                 1.0495                 1.0455
 Frc consts  --      1.4540                 1.4161                 1.4166
 IR Inten    --      3.7600                 0.0032                 0.0862

                     76                     77                     78
                      A                      A                      A
 Frequencies --   1519.8526              1522.2173              1530.8032
 Red. masses --      1.0691                 1.0598                 1.0870
 Frc consts  --      1.4550                 1.4469                 1.5008
 IR Inten    --     11.0220                 2.3975                 8.0590

                     79                     80                     81
                      A                      A                      A
 Frequencies --   1533.2809              1535.4345              1539.3385
 Red. masses --      1.1075                 1.0721                 1.0502
 Frc consts  --      1.5340                 1.4892                 1.4662
 IR Inten    --     45.8759                11.0486                 5.6486

                     82                     83                     84
                      A                      A                      A
 Frequencies --   1547.3151              1551.3751              1564.2289
 Red. masses --      1.2489                 1.0664                 1.7400
 Frc consts  --      1.7617                 1.5122                 2.5084
 IR Inten    --     79.1956                21.8850                71.8122

                     85                     86                     87
                      A                      A                      A
 Frequencies --   1627.0570              1666.6899              2348.1505
 Red. masses --      6.6616                 5.7273                12.6787
 Frc consts  --     10.3905                 9.3737                41.1885
 IR Inten    --      7.6877                45.1993                37.6856

                     88                     89                     90
                      A                      A                      A
 Frequencies --   3027.5906              3040.7690              3044.9925
 Red. masses --      1.0565                 1.0510                 1.0503
 Frc consts  --      5.7056                 5.7255                 5.7377
 IR Inten    --     16.4468                19.4472                36.3209

                     91                     92                     93
                      A                      A                      A
 Frequencies --   3046.1922              3046.6814              3054.1297
 Red. masses --      1.0347                 1.0347                 1.0363
 Frc consts  --      5.6570                 5.6589                 5.6952
 IR Inten    --     25.9113                27.1810                24.5859

                     94                     95                     96
                      A                      A                      A
 Frequencies --   3055.1214              3068.3372              3088.3584
 Red. masses --      1.0657                 1.1068                 1.0996
 Frc consts  --      5.8608                 6.1395                 6.1795
 IR Inten    --     30.0511                26.6257                24.9775

                     97                     98                     99
                      A                      A                      A
 Frequencies --   3096.4313              3113.0818              3114.7314
 Red. masses --      1.0991                 1.1022                 1.1025
 Frc consts  --      6.2087                 6.2937                 6.3017
 IR Inten    --     23.2970                 2.6307                10.4805

                    100                    101                    102
                      A                      A                      A
 Frequencies --   3115.3298              3118.2414              3119.0695
 Red. masses --      1.1008                 1.1032                 1.1018
 Frc consts  --      6.2947                 6.3203                 6.3155
 IR Inten    --     56.6020                13.1240                51.5822

                    103                    104                    105
                      A                      A                      A
 Frequencies --   3122.5508              3123.3272              3124.9073
 Red. masses --      1.1013                 1.1024                 1.1021
 Frc consts  --      6.3267                 6.3364                 6.3407
 IR Inten    --     93.1098                31.6418                35.9820

                    106                    107                    108
                      A                      A                      A
 Frequencies --   3198.0197              3233.1243              3240.2973
 Red. masses --      1.0882                 1.0917                 1.0900
 Frc consts  --      6.5571                 6.7236                 6.7427
 IR Inten    --     14.1702                10.3660                 1.1104

 - Thermochemistry -
 -------------------
 Temperature   298.150 Kelvin.  Pressure   1.00000 Atm.
 Atom     1 has atomic number  6 and mass  12.00000

 Molecular mass:   231.16231 amu.
 Principal axes and moments of inertia in atomic units:
                           1         2         3
     Eigenvalues --  1940.592568285.641859201.95487
           X            0.99997  -0.00705   0.00335
           Y            0.00703   0.99994   0.00830
           Z           -0.00340  -0.00828   0.99996
 This molecule is an asymmetric top.
 Rotational symmetry number  1.
 Warning -- assumption of classical behavior for rotation
           may cause significant error
 Rotational temperatures (Kelvin)      0.04463     0.01045     0.00941
 Rotational constants (GHZ):           0.92999     0.21782     0.19613
 Zero-point vibrational energy     871029.9 (Joules/Mol)
                                  208.18114 (Kcal/Mol)
 Warning -- explicit consideration of  28 degrees of freedom as
           vibrations may cause significant error
 Vibrational temperatures:     32.73    41.95    57.21    93.55   123.18
          (Kelvin)            161.14   182.22   204.84   239.01   318.37
                              323.90   351.82   374.29   403.51   410.40
                              412.76   482.39   484.11   524.70   541.87
                              583.41   591.71   636.41   639.07   682.99
                              752.18   755.89   795.35   915.61   934.93
                              986.20  1079.49  1085.30  1139.32  1187.01
                             1200.60  1209.71  1285.63  1328.39  1339.63
                             1355.45  1372.05  1381.23  1404.65  1411.30
                             1443.98  1494.77  1523.68  1531.67  1585.86
                             1642.40  1655.45  1682.40  1692.62  1765.72
                             1790.36  1794.56  1820.01  1855.26  1877.32
                             1907.91  1918.50  1928.12  1946.94  2008.20
                             2029.79  2052.34  2054.61  2069.59  2080.42
                             2092.47  2101.87  2166.84  2177.33  2181.83
                             2186.73  2190.13  2202.48  2206.05  2209.15
                             2214.76  2226.24  2232.08  2250.58  2340.97
                             2398.00  3378.46  4356.03  4374.99  4381.06
                             4382.79  4383.50  4394.21  4395.64  4414.65
                             4443.46  4455.07  4479.03  4481.40  4482.26
                             4486.45  4487.65  4492.65  4493.77  4496.04
                             4601.24  4651.74  4662.07

 Zero-point correction=                           0.331758 (Hartree/Particle)
 Thermal correction to Energy=                    0.349904
 Thermal correction to Enthalpy=                  0.350848
 Thermal correction to Gibbs Free Energy=         0.284588
 Sum of electronic and zero-point Energies=           -713.955591
 Sum of electronic and thermal Energies=              -713.937445
 Sum of electronic and thermal Enthalpies=            -713.936501
 Sum of electronic and thermal Free Energies=         -714.002761

                     E (Thermal)             CV                S
                      KCal/Mol        Cal/Mol-Kelvin    Cal/Mol-Kelvin
 Total                  219.568             68.440            139.457
 Electronic               0.000              0.000              0.000
 Translational            0.889              2.981             42.216
 Rotational               0.889              2.981             33.359
 Vibrational            217.791             62.478             63.882
 Vibration     1          0.593              1.985              6.379
 Vibration     2          0.593              1.984              5.886
 Vibration     3          0.594              1.981              5.271
 Vibration     4          0.597              1.971              4.299
 Vibration     5          0.601              1.959              3.758
 Vibration     6          0.607              1.940              3.234
 Vibration     7          0.611              1.926              2.996
 Vibration     8          0.616              1.911              2.772
 Vibration     9          0.624              1.884              2.479
 Vibration    10          0.648              1.809              1.949
 Vibration    11          0.650              1.803              1.918
 Vibration    12          0.660              1.772              1.770
 Vibration    13          0.668              1.746              1.661
 Vibration    14          0.680              1.710              1.531
 Vibration    15          0.683              1.701              1.502
 Vibration    16          0.684              1.698              1.492
 Vibration    17          0.716              1.605              1.235
 Vibration    18          0.717              1.603              1.229
 Vibration    19          0.738              1.545              1.102
 Vibration    20          0.747              1.520              1.053
 Vibration    21          0.770              1.458              0.943
 Vibration    22          0.775              1.446              0.922
 Vibration    23          0.802              1.378              0.819
 Vibration    24          0.804              1.374              0.814
 Vibration    25          0.831              1.306              0.724
 Vibration    26          0.878              1.200              0.604
 Vibration    27          0.880              1.194              0.598
 Vibration    28          0.908              1.134              0.538

 Optimization completed.
    -- Stationary point found.
 Normal termination of Gaussian 16 at Sun Dec 13 16:36:41 2020.

 ----------------------------------------------------------------------
 # B3LYP/6-311++G(d,p) empiricaldispersion=gd3bj scf=xqc pop=npa geom=c
 heck
 ----------------------------------------------------------------------

 ---------------------------------------
 CID_100586089_JID_7554_Energie_neutraal
 ---------------------------------------
 Structure from the checkpoint file:  "JID_7554.chk"
 Charge =  0 Multiplicity = 1

 SCF Done:  E(RB3LYP) =  -714.478468622     A.U. after   15 cycles
 Normal termination of Gaussian 16 at Sun Dec 13 16:43:56 2020.

 ----------------------------------------------------------------------
 # B3LYP/6-311++G(d,p) empiricaldispersion=gd3bj scf=xqc pop=npa geom=c
 heck
 ----------------------------------------------------------------------

 -------------------------------------
 CID_100586089_JID_7554_Energie_kation
 -------------------------------------
 Structure from the checkpoint file:  "JID_7554.chk"
 Charge =  1 Multiplicity = 2

 SCF Done:  E(UB3LYP) =  -714.177510182     A.U. after   22 cycles
 Normal termination of Gaussian 16 at Sun Dec 13 16:59:09 2020.
 Gaussian 16:  ES64L-G16RevA.03 25-Dec-2016

 ----------------------------------------------------------------------
 # B3LYP/6-311++G(d,p) empiricaldispersion=gd3bj scf=xqc pop=npa geom=c
 heck
 ----------------------------------------------------------------------

 ------------------------------------
 CID_100586089_JID_7554_Energie_anion
 ------------------------------------
 Structure from the checkpoint file:  "JID_7554.chk"
 Charge = -1 Multiplicity = 2

                         Standard orientation:
 ---------------------------------------------------------------------
 Center     Atomic      Atomic             Coordinates (Angstroms)
 Number     Number       Type             X           Y           Z
 ---------------------------------------------------------------------
      1          6           0        4.577055   -0.476640    1.768314
      2          6           0        4.718747    0.134498    0.371466
      3          6           0        4.268797   -0.794334   -0.766029
      4          6           0        2.815555   -1.234852   -0.666675
      5          8           0        2.015066   -0.050988   -0.611591
      6          6           0        0.682669   -0.161534   -0.418407
      7          6           0       -0.021536    1.046141   -0.235147
      8          6           0       -1.410263    1.032565   -0.037424
      9          6           0       -2.134871   -0.159620   -0.010777
     10          6           0       -1.409500   -1.347583   -0.190791
     11          6           0       -0.031529   -1.363074   -0.390966
     12          6           0       -3.652897   -0.208728    0.204386
     13          6           0       -3.962652   -1.034737    1.471613
     14          6           0       -4.258108    1.193225    0.382006
     15          6           0       -4.320542   -0.873768   -1.018786
     16          6           0        0.692277    2.284707   -0.238975
     17          7           0        1.258084    3.301314   -0.232271
     18          1           0        3.526843   -0.652788    2.027163
     19          1           0        4.989767    0.193168    2.530122
     20          1           0        5.107280   -1.434733    1.843200
     21          1           0        4.142008    1.064127    0.317683
     22          1           0        5.767398    0.405025    0.195762
     23          1           0        4.415720   -0.290872   -1.729028
     24          1           0        4.886827   -1.702680   -0.781715
     25          1           0        2.527330   -1.836769   -1.539018
     26          1           0        2.638926   -1.833995    0.235902
     27          1           0       -1.904314    1.986222    0.098732
     28          1           0       -1.930964   -2.299942   -0.177073
     29          1           0        0.478855   -2.308495   -0.528946
     30          1           0       -3.500570   -0.580538    2.354891
     31          1           0       -5.045018   -1.084732    1.638343
     32          1           0       -3.590282   -2.061006    1.388505
     33          1           0       -4.092976    1.821746   -0.500003
     34          1           0       -5.339754    1.110205    0.531636
     35          1           0       -3.841524    1.707930    1.254830
     36          1           0       -4.116803   -0.303274   -1.931465
     37          1           0       -3.958136   -1.895248   -1.173752
     38          1           0       -5.406923   -0.922233   -0.879987
 ---------------------------------------------------------------------

 SCF Done:  E(UB3LYP) =  -714.477374758     A.U. after   33 cycles
 SCF Done:  E(UB3LYP) =  -714.477374758     a.u. after    1 cycles

 The electronic state is 2-A.
 Alpha  occ. eigenvalues --  -19.03956 -14.16079 -10.12086 -10.11394 -10.08921
 Alpha  occ. eigenvalues --  -10.07230 -10.06777 -10.06599 -10.06410 -10.06369
 Alpha  occ. eigenvalues --  -10.06362 -10.06224 -10.05835 -10.05379 -10.04735
 Alpha  occ. eigenvalues --  -10.04569 -10.03804  -0.95930  -0.76497  -0.74414
 Alpha  occ. eigenvalues --   -0.71565  -0.69797  -0.64536  -0.63449  -0.60571
 Alpha  occ. eigenvalues --   -0.59218  -0.59045  -0.55491  -0.51217  -0.50207
 Alpha  occ. eigenvalues --   -0.47192  -0.44984  -0.43032  -0.38860  -0.38513
 Alpha  occ. eigenvalues --   -0.37176  -0.36302  -0.35014  -0.34479  -0.32997
 Alpha  occ. eigenvalues --   -0.32633  -0.31761  -0.31054  -0.29991  -0.29652
 Alpha  occ. eigenvalues --   -0.29032  -0.27959  -0.27613  -0.27211  -0.26513
 Alpha  occ. eigenvalues --   -0.24768  -0.24414  -0.23889  -0.23532  -0.23093
 Alpha  occ. eigenvalues --   -0.22666  -0.22276  -0.21615  -0.20622  -0.19903
 Alpha  occ. eigenvalues --   -0.19106  -0.13451  -0.10495   0.04471
 Alpha virt. eigenvalues --    0.06192   0.06364   0.07847   0.08332   0.08805
 Alpha virt. eigenvalues --    0.08939   0.09280   0.09989   0.10448   0.11192
 Alpha virt. eigenvalues --    0.11474   0.11669   0.11965   0.12274   0.12585

  Beta  occ. eigenvalues --  -19.03950 -14.15854 -10.12072 -10.11339 -10.08917
  Beta  occ. eigenvalues --  -10.07218 -10.06773 -10.06590 -10.06409 -10.06368
  Beta  occ. eigenvalues --  -10.06355 -10.06213 -10.05631 -10.05460 -10.04552
  Beta  occ. eigenvalues --  -10.04535 -10.03458  -0.95891  -0.76160  -0.74215
  Beta  occ. eigenvalues --   -0.71470  -0.69707  -0.64291  -0.63098  -0.60402
  Beta  occ. eigenvalues --   -0.59186  -0.59027  -0.55442  -0.50576  -0.50148
  Beta  occ. eigenvalues --   -0.47096  -0.44875  -0.42951  -0.38793  -0.38402
  Beta  occ. eigenvalues --   -0.37085  -0.36168  -0.34970  -0.34448  -0.32932
  Beta  occ. eigenvalues --   -0.32535  -0.31642  -0.30995  -0.29931  -0.29555
  Beta  occ. eigenvalues --   -0.28970  -0.27901  -0.27255  -0.27074  -0.26445
  Beta  occ. eigenvalues --   -0.24707  -0.24302  -0.23744  -0.23491  -0.22854
  Beta  occ. eigenvalues --   -0.22617  -0.22140  -0.21047  -0.20445  -0.19195
  Beta  occ. eigenvalues --   -0.18979  -0.12096  -0.09620
  Beta virt. eigenvalues --    0.06289   0.06586   0.08067   0.08409   0.08765
  Beta virt. eigenvalues --    0.08820   0.09282   0.09459   0.10208   0.10409
  Beta virt. eigenvalues --    0.11224   0.11424   0.11618   0.12028   0.12211

 Mulliken charges and spin densities:
               1          2
     1  C   -0.159088  -0.396703
     2  C   -0.493255   0.315044
     3  C    0.220866  -0.763806
     4  C   -0.037630  -0.000938
     5  O   -0.049319   0.018559
     6  C   -0.250957  -0.387210
     7  C    1.035000   0.298064
     8  C   -0.294031   0.358545
     9  C    0.671063   0.108128
    10  C   -0.621236   0.483571
    11  C    0.566053  -0.556977
    12  C    0.208270   0.307547
    13  C   -0.301052  -0.354654
    14  C   -0.452439  -0.012768
    15  C   -0.520403  -0.142361
    16  C   -1.371004  -0.187757
    17  N   -0.298602   0.117295
    18  H    0.132296   0.022906
    19  H    0.078995   0.048891
    20  H   -0.015838   0.137865
    21  H    0.198508  -0.009139
    22  H    0.001894   0.133250
    23  H    0.101657   0.053871
    24  H   -0.231553   0.379642
    25  H   -0.152486   0.312963
    26  H    0.223279  -0.086737
    27  H    0.173934  -0.021573
    28  H    0.169057  -0.081374
    29  H   -0.226708   0.382946
    30  H    0.130950   0.005839
    31  H    0.033519   0.090390
    32  H   -0.036327   0.178726
    33  H    0.074455   0.058292
    34  H    0.098793   0.047387
    35  H    0.128600   0.003075
    36  H    0.115242   0.023766
    37  H    0.071555   0.069392
    38  H    0.077945   0.046041
 Sum of Mulliken charges =  -1.00000   1.00000

 Dipole moment (field-independent basis, Debye):
    X=             -3.3965    Y=             -2.8745    Z=              1.2443  Tot=              4.6203
 Quadrupole moment (field-independent basis, Debye-Ang):
   XX=           -164.6922   YY=           -149.7110   ZZ=           -124.5228
   XY=             -4.8121   XZ=              3.2104   YZ=              0.6857

 Summary of Natural Population Analysis:

                                       Natural Population
                Natural  -----------------------------------------------
    Atom  No    Charge         Core      Valence    Rydberg      Total
 -----------------------------------------------------------------------
      C    1   -0.28778      0.99967     2.28388    0.00424     3.28778
      C    2   -0.19617      0.99964     2.18767    0.00886     3.19617
      C    3   -0.19718      0.99962     2.18755    0.01001     3.19718
      C    4   -0.01087      0.99957     1.99880    0.01250     3.01087
      O    5   -0.27650      0.99984     3.26722    0.00944     4.27650
      C    6    0.19448      0.99937     1.79364    0.01250     2.80552
      C    7   -0.08311      0.99939     2.07503    0.00868     3.08311
      C    8   -0.04257      0.99950     2.03486    0.00822     3.04257
      C    9   -0.04891      0.99948     2.03747    0.01195     3.04891
      C   10   -0.02331      0.99953     2.01509    0.00869     3.02331
      C   11   -0.14494      0.99953     2.13679    0.00863     3.14494
      C   12   -0.04821      0.99956     2.03919    0.00947     3.04821
      C   13   -0.27877      0.99964     2.27358    0.00556     3.27877
      C   14   -0.28441      0.99964     2.27910    0.00567     3.28441
      C   15   -0.27950      0.99963     2.27432    0.00555     3.27950
      C   16    0.15395      0.99964     1.82674    0.01967     2.84605
      N   17   -0.17413      0.99978     2.66355    0.01079     3.67413
      H   18    0.09953      0.00000     0.39946    0.00100     0.40047
      H   19    0.09734      0.00000     0.40188    0.00078     0.40266
      H   20    0.09212      0.00000     0.40681    0.00107     0.40788
      H   21    0.10897      0.00000     0.38968    0.00135     0.39103
      H   22    0.09187      0.00000     0.40720    0.00093     0.40813
      H   23    0.10031      0.00000     0.39857    0.00112     0.39969
      H   24    0.09596      0.00000     0.40289    0.00115     0.40404
      H   25    0.08805      0.00000     0.41041    0.00153     0.41195
      H   26    0.08274      0.00000     0.41583    0.00143     0.41726
      H   27    0.09851      0.00000     0.40043    0.00106     0.40149
      H   28    0.08822      0.00000     0.41031    0.00147     0.41178
      H   29    0.09988      0.00000     0.39897    0.00115     0.40012
      H   30    0.10072      0.00000     0.39852    0.00076     0.39928
      H   31    0.09153      0.00000     0.40757    0.00090     0.40847
      H   32    0.10121      0.00000     0.39789    0.00089     0.39879
      H   33    0.10177      0.00000     0.39736    0.00087     0.39823
      H   34    0.09525      0.00000     0.40397    0.00077     0.40475
      H   35    0.10090      0.00000     0.39827    0.00083     0.39910
      H   36    0.10128      0.00000     0.39799    0.00074     0.39872
      H   37    0.10023      0.00000     0.39894    0.00082     0.39977
      H   38    0.09153      0.00000     0.40759    0.00088     0.40847
 =======================================================================
   * Total *   -0.00000     16.99304    45.82503    0.18192    63.00000

 Normal termination of Gaussian 16 at Sun Dec 13 17:21:44 2020.
