 Gaussian 16, Revision A.03,

 -----------------------------------------------------------
 # opt freq B3LYP/6-31G(d) empiricaldispersion=gd3bj scf=xqc
 -----------------------------------------------------------

 -------------------------------
 CID_148030527_JID_2623_neutraal
 -------------------------------
 Symbolic Z-matrix:
 Charge =  0 Multiplicity = 1

 SCF Done:  E(RB3LYP) =  -541.147611940     A.U. after   13 cycles
 SCF Done:  E(RB3LYP) =  -541.151848166     A.U. after   11 cycles
 SCF Done:  E(RB3LYP) =  -541.153194965     A.U. after   12 cycles
 SCF Done:  E(RB3LYP) =  -541.153919294     A.U. after   12 cycles
 SCF Done:  E(RB3LYP) =  -541.154080847     A.U. after   11 cycles
 SCF Done:  E(RB3LYP) =  -541.154136931     A.U. after   11 cycles
 SCF Done:  E(RB3LYP) =  -541.154142405     A.U. after   10 cycles
 SCF Done:  E(RB3LYP) =  -541.154143632     A.U. after    8 cycles
 SCF Done:  E(RB3LYP) =  -541.154143771     A.U. after    7 cycles
 SCF Done:  E(RB3LYP) =  -541.154143802     A.U. after    7 cycles
 Optimization completed.
    -- Stationary point found.
 Normal termination of Gaussian 16 at Wed Dec  9 17:41:45 2020.

 --------------------------------------------------------------------
 #N Geom=AllCheck Guess=TCheck SCRF=Check GenChk RB3LYP/6-31G(d) Freq
 --------------------------------------------------------------------

 Structure from the checkpoint file:  "JID_2623.chk"
 -------------------------------
 CID_148030527_JID_2623_neutraal
 -------------------------------
 Charge =  0 Multiplicity = 1

 SCF Done:  E(RB3LYP) =  -541.154143802     A.U. after    1 cycles

  Exact polarizability: 130.329   2.207 119.617  -0.077  -0.040  80.920
 Approx polarizability: 181.033  -1.905 173.575  -2.523  -0.890 125.916

                      1                      2                      3
                      A                      A                      A
 Frequencies --     45.9538                75.3681               118.6571
 Red. masses --      3.4876                 4.9437                 3.2301
 Frc consts  --      0.0043                 0.0165                 0.0268
 IR Inten    --      1.0071                 1.8250                 0.4210

                      4                      5                      6
                      A                      A                      A
 Frequencies --    149.2078               186.1157               202.3814
 Red. masses --      2.8110                 1.6024                 1.3880
 Frc consts  --      0.0369                 0.0327                 0.0335
 IR Inten    --      0.8590                 0.7204                 0.5337

                      7                      8                      9
                      A                      A                      A
 Frequencies --    225.5179               237.9385               263.0185
 Red. masses --      2.2896                 1.3942                 2.3157
 Frc consts  --      0.0686                 0.0465                 0.0944
 IR Inten    --      0.6248                 0.8582                 0.9774

                     10                     11                     12
                      A                      A                      A
 Frequencies --    273.0306               285.9232               311.6039
 Red. masses --      2.6325                 1.1522                 1.4978
 Frc consts  --      0.1156                 0.0555                 0.0857
 IR Inten    --      1.9177                 0.2144                45.5252

                     13                     14                     15
                      A                      A                      A
 Frequencies --    342.2168               366.5671               379.7200
 Red. masses --      1.8351                 1.5644                 2.5894
 Frc consts  --      0.1266                 0.1239                 0.2200
 IR Inten    --     18.5470               109.1791                29.0853

                     16                     17                     18
                      A                      A                      A
 Frequencies --    411.0254               467.1864               495.6573
 Red. masses --      2.6723                 3.4775                 3.2697
 Frc consts  --      0.2660                 0.4472                 0.4733
 IR Inten    --      9.1045                12.5230                13.2428

                     19                     20                     21
                      A                      A                      A
 Frequencies --    500.6090               557.8152               585.9571
 Red. masses --      4.2920                 3.6080                 3.1232
 Frc consts  --      0.6337                 0.6615                 0.6318
 IR Inten    --     11.7172                 2.3376                 1.9803

                     22                     23                     24
                      A                      A                      A
 Frequencies --    697.8395               705.0140               838.8146
 Red. masses --      2.4737                 2.9625                 3.2806
 Frc consts  --      0.7097                 0.8676                 1.3600
 IR Inten    --     12.0764                 7.4334                 4.9269

                     25                     26                     27
                      A                      A                      A
 Frequencies --    853.2412               887.4425               899.1934
 Red. masses --      1.4230                 1.6225                 2.5886
 Frc consts  --      0.6104                 0.7529                 1.2332
 IR Inten    --     17.8456                 2.3880                11.5761

                     28                     29                     30
                      A                      A                      A
 Frequencies --    920.5257               950.7879               961.6541
 Red. masses --      2.1869                 2.8546                 2.4069
 Frc consts  --      1.0918                 1.5204                 1.3114
 IR Inten    --     23.5407                11.1535                14.0301

                     31                     32                     33
                      A                      A                      A
 Frequencies --    997.7979              1030.6462              1044.8608
 Red. masses --      1.8970                 1.5661                 1.6617
 Frc consts  --      1.1128                 0.9801                 1.0688
 IR Inten    --     38.7637                 1.6119                24.9647

                     34                     35                     36
                      A                      A                      A
 Frequencies --   1066.1946              1077.1177              1090.1890
 Red. masses --      2.0239                 1.5917                 2.0249
 Frc consts  --      1.3555                 1.0880                 1.4180
 IR Inten    --     68.2661                 5.9467                 2.3664

                     37                     38                     39
                      A                      A                      A
 Frequencies --   1124.2908              1127.9143              1169.6756
 Red. masses --      2.1876                 2.3326                 1.7502
 Frc consts  --      1.6292                 1.7484                 1.4108
 IR Inten    --     15.9341                23.7159                12.2245

                     40                     41                     42
                      A                      A                      A
 Frequencies --   1191.9485              1227.7592              1263.0922
 Red. masses --      1.4208                 2.0632                 1.5861
 Frc consts  --      1.1893                 1.8324                 1.4909
 IR Inten    --     30.0025                 2.4536                19.9323

                     43                     44                     45
                      A                      A                      A
 Frequencies --   1288.5349              1306.9303              1322.2289
 Red. masses --      1.4576                 1.3516                 1.4233
 Frc consts  --      1.4259                 1.3602                 1.4661
 IR Inten    --      3.7371                 5.2908                 3.7347

                     46                     47                     48
                      A                      A                      A
 Frequencies --   1356.8525              1369.5847              1404.8908
 Red. masses --      1.6128                 1.5120                 1.8348
 Frc consts  --      1.7494                 1.6710                 2.1337
 IR Inten    --      6.0813                25.7948                 1.2939

                     49                     50                     51
                      A                      A                      A
 Frequencies --   1415.7180              1430.6390              1434.7806
 Red. masses --      1.7212                 1.2044                 1.2469
 Frc consts  --      2.0326                 1.4524                 1.5124
 IR Inten    --      2.3378                52.5384                17.8636

                     52                     53                     54
                      A                      A                      A
 Frequencies --   1434.9079              1438.2389              1447.2194
 Red. masses --      1.3020                 1.3540                 1.2347
 Frc consts  --      1.5795                 1.6502                 1.5236
 IR Inten    --      9.9726                16.9227                30.5836

                     55                     56                     57
                      A                      A                      A
 Frequencies --   1506.6478              1520.9921              1524.5749
 Red. masses --      1.0471                 1.0708                 1.0471
 Frc consts  --      1.4004                 1.4595                 1.4339
 IR Inten    --      8.5838                 7.8722                 3.0673

                     58                     59                     60
                      A                      A                      A
 Frequencies --   1524.8775              1527.2227              1530.7098
 Red. masses --      1.0489                 1.0538                 1.0508
 Frc consts  --      1.4370                 1.4481                 1.4506
 IR Inten    --      8.5739                 2.9700                 6.1077

                     61                     62                     63
                      A                      A                      A
 Frequencies --   1674.8900              1736.4359              2962.5473
 Red. masses --      7.5064                 6.5845                 1.0808
 Frc consts  --     12.4067                11.6973                 5.5888
 IR Inten    --      3.9694                 8.4775                21.1048

                     64                     65                     66
                      A                      A                      A
 Frequencies --   3030.5350              3041.9907              3051.3326
 Red. masses --      1.0389                 1.0814                 1.0406
 Frc consts  --      5.6218                 5.8961                 5.7085
 IR Inten    --     31.4367                16.9303                18.7247

                     67                     68                     69
                      A                      A                      A
 Frequencies --   3054.7982              3079.9358              3081.2399
 Red. masses --      1.0364                 1.0918                 1.0919
 Frc consts  --      5.6983                 6.1018                 6.1080
 IR Inten    --     33.5218                15.6329                40.0361

                     70                     71                     72
                      A                      A                      A
 Frequencies --   3117.6373              3118.1632              3125.4936
 Red. masses --      1.1026                 1.0998                 1.1009
 Frc consts  --      6.3144                 6.3005                 6.3365
 IR Inten    --     29.9096                29.8131                21.1977

                     73                     74                     75
                      A                      A                      A
 Frequencies --   3138.6603              3142.0071              3183.1391
 Red. masses --      1.1012                 1.1021                 1.0897
 Frc consts  --      6.3917                 6.4105                 6.5056
 IR Inten    --     21.6154                23.2501                15.9877

                     76                     77                     78
                      A                      A                      A
 Frequencies --   3190.3094              3720.5632              3721.8083
 Red. masses --      1.0895                 1.0657                 1.0659
 Frc consts  --      6.5333                 8.6916                 8.6990
 IR Inten    --      9.8142                 3.1429                 8.9770

 - Thermochemistry -
 -------------------
 Temperature   298.150 Kelvin.  Pressure   1.00000 Atm.
 Atom     1 has atomic number  6 and mass  12.00000

 Molecular mass:   168.11503 amu.
 Principal axes and moments of inertia in atomic units:
                           1         2         3
     Eigenvalues --  1448.602182597.907243529.04841
           X            0.99952   0.03055   0.00533
           Y           -0.03058   0.99951   0.00628
           Z           -0.00514  -0.00644   0.99997
 This molecule is an asymmetric top.
 Rotational symmetry number  1.
 Warning -- assumption of classical behavior for rotation
           may cause significant error
 Rotational temperatures (Kelvin)      0.05979     0.03334     0.02454
 Rotational constants (GHZ):           1.24585     0.69469     0.51140
 Zero-point vibrational energy     643378.6 (Joules/Mol)
                                  153.77118 (Kcal/Mol)
 Warning -- explicit consideration of  21 degrees of freedom as
           vibrations may cause significant error
 Vibrational temperatures:     66.12   108.44   170.72   214.68   267.78
          (Kelvin)            291.18   324.47   342.34   378.42   392.83
                              411.38   448.33   492.37   527.41   546.33
                              591.37   672.18   713.14   720.26   802.57
                              843.06  1004.04  1014.36  1206.87  1227.62
                             1276.83  1293.74  1324.43  1367.97  1383.61
                             1435.61  1482.87  1503.32  1534.02  1549.73
                             1568.54  1617.60  1622.82  1682.90  1714.95
                             1766.47  1817.31  1853.91  1880.38  1902.39
                             1952.21  1970.53  2021.32  2036.90  2058.37
                             2064.33  2064.51  2069.31  2082.23  2167.73
                             2188.37  2193.52  2193.96  2197.33  2202.35
                             2409.79  2498.34  4262.44  4360.26  4376.75
                             4390.19  4395.17  4431.34  4433.22  4485.58
                             4486.34  4496.89  4515.83  4520.65  4579.83
                             4590.14  5353.06  5354.85

 Zero-point correction=                           0.245050 (Hartree/Particle)
 Thermal correction to Energy=                    0.258204
 Thermal correction to Enthalpy=                  0.259148
 Thermal correction to Gibbs Free Energy=         0.206327
 Sum of electronic and zero-point Energies=           -540.909094
 Sum of electronic and thermal Energies=              -540.895940
 Sum of electronic and thermal Enthalpies=            -540.894996
 Sum of electronic and thermal Free Energies=         -540.947817

                     E (Thermal)             CV                S
                      KCal/Mol        Cal/Mol-Kelvin    Cal/Mol-Kelvin
 Total                  162.025             50.198            111.171
 Electronic               0.000              0.000              0.000
 Translational            0.889              2.981             41.266
 Rotational               0.889              2.981             30.963
 Vibrational            160.248             44.236             38.942
 Vibration     1          0.595              1.979              4.984
 Vibration     2          0.599              1.965              4.008
 Vibration     3          0.609              1.934              3.122
 Vibration     4          0.618              1.904              2.682
 Vibration     5          0.632              1.859              2.266
 Vibration     6          0.639              1.837              2.111
 Vibration     7          0.650              1.802              1.914
 Vibration     8          0.656              1.783              1.818
 Vibration     9          0.670              1.741              1.642
 Vibration    10          0.676              1.723              1.577
 Vibration    11          0.684              1.700              1.498
 Vibration    12          0.700              1.652              1.354
 Vibration    13          0.721              1.591              1.202
 Vibration    14          0.739              1.541              1.094
 Vibration    15          0.750              1.513              1.040
 Vibration    16          0.775              1.446              0.923
 Vibration    17          0.824              1.323              0.745
 Vibration    18          0.851              1.260              0.669
 Vibration    19          0.856              1.249              0.657
 Vibration    20          0.913              1.123              0.528
 Vibration    21          0.943              1.062              0.474

 Optimization completed.
    -- Stationary point found.
 Normal termination of Gaussian 16 at Wed Dec  9 17:48:53 2020.

 ----------------------------------------------------------------------
 # B3LYP/6-311++G(d,p) empiricaldispersion=gd3bj scf=xqc pop=npa geom=c
 heck
 ----------------------------------------------------------------------

 ---------------------------------------
 CID_148030527_JID_2623_Energie_neutraal
 ---------------------------------------
 Structure from the checkpoint file:  "JID_2623.chk"
 Charge =  0 Multiplicity = 1

 SCF Done:  E(RB3LYP) =  -541.324674287     A.U. after   15 cycles
 Normal termination of Gaussian 16 at Wed Dec  9 17:52:03 2020.

 ----------------------------------------------------------------------
 # B3LYP/6-311++G(d,p) empiricaldispersion=gd3bj scf=xqc pop=npa geom=c
 heck
 ----------------------------------------------------------------------

 -------------------------------------
 CID_148030527_JID_2623_Energie_kation
 -------------------------------------
 Structure from the checkpoint file:  "JID_2623.chk"
 Charge =  1 Multiplicity = 2

 SCF Done:  E(UB3LYP) =  -541.028974337     A.U. after   22 cycles
 Normal termination of Gaussian 16 at Wed Dec  9 17:57:30 2020.
 Gaussian 16:  ES64L-G16RevA.03 25-Dec-2016

 ----------------------------------------------------------------------
 # B3LYP/6-311++G(d,p) empiricaldispersion=gd3bj scf=xqc pop=npa geom=c
 heck
 ----------------------------------------------------------------------

 ------------------------------------
 CID_148030527_JID_2623_Energie_anion
 ------------------------------------
 Structure from the checkpoint file:  "JID_2623.chk"
 Charge = -1 Multiplicity = 2

                         Standard orientation:
 ---------------------------------------------------------------------
 Center     Atomic      Atomic             Coordinates (Angstroms)
 Number     Number       Type             X           Y           Z
 ---------------------------------------------------------------------
      1          6           0       -1.660766    2.623903   -0.023618
      2          6           0       -1.119297    1.293880   -0.556035
      3          6           0        0.370252    1.149602   -0.361295
      4          6           0        0.952771   -0.063931   -0.354634
      5          6           0        0.114513   -1.266851   -0.465829
      6          6           0       -1.225310   -1.228761   -0.342903
      7          6           0       -1.886185    0.089530    0.019181
      8          8           0       -2.040225    0.153103    1.446535
      9          6           0       -2.100820   -2.445690   -0.373032
     10          6           0        2.446230   -0.300050   -0.239853
     11          6           0        3.294534    0.955106   -0.057665
     12          8           0        2.717906   -1.253881    0.799282
     13          1           0       -1.123533    3.467690   -0.471090
     14          1           0       -1.552078    2.678176    1.063157
     15          1           0       -2.725155    2.735744   -0.256943
     16          1           0       -1.297949    1.257844   -1.646110
     17          1           0        0.960724    2.058981   -0.290955
     18          1           0        0.624443   -2.217235   -0.604686
     19          1           0       -2.913454    0.120671   -0.358674
     20          1           0       -1.148667    0.038461    1.815265
     21          1           0       -1.518549   -3.364357   -0.494328
     22          1           0       -2.677816   -2.517466    0.558095
     23          1           0       -2.830375   -2.391437   -1.192916
     24          1           0        2.777123   -0.817462   -1.150262
     25          1           0        2.994407    1.504718    0.842959
     26          1           0        4.343590    0.666875    0.050730
     27          1           0        3.204611    1.631328   -0.914299
     28          1           0        2.345690   -0.886736    1.617630
 ---------------------------------------------------------------------

 SCF Done:  E(UB3LYP) =  -541.315160854     A.U. after   33 cycles
 SCF Done:  E(UB3LYP) =  -541.315160853     a.u. after    1 cycles

 The electronic state is 2-A.
 Alpha  occ. eigenvalues --  -19.01060 -18.98830 -10.10966 -10.08358 -10.05767
 Alpha  occ. eigenvalues --  -10.04225 -10.04111 -10.03105 -10.02676 -10.02645
 Alpha  occ. eigenvalues --  -10.02319 -10.02087  -0.91159  -0.88967  -0.70785
 Alpha  occ. eigenvalues --   -0.65643  -0.64576  -0.60773  -0.55280  -0.54254
 Alpha  occ. eigenvalues --   -0.52173  -0.46339  -0.43384  -0.39358  -0.37926
 Alpha  occ. eigenvalues --   -0.35256  -0.34649  -0.33383  -0.32650  -0.30789
 Alpha  occ. eigenvalues --   -0.29077  -0.29035  -0.27767  -0.27185  -0.26728
 Alpha  occ. eigenvalues --   -0.26236  -0.24980  -0.23540  -0.22600  -0.20967
 Alpha  occ. eigenvalues --   -0.20834  -0.18871  -0.17357  -0.16006  -0.13868
 Alpha  occ. eigenvalues --   -0.08662   0.05370
 Alpha virt. eigenvalues --    0.07684   0.08617   0.09086   0.09448   0.10387
 Alpha virt. eigenvalues --    0.10604   0.11222   0.11959   0.12396   0.12574
 Alpha virt. eigenvalues --    0.13096   0.13846   0.14353   0.15090   0.15808

  Beta  occ. eigenvalues --  -19.01028 -18.98772 -10.10971 -10.08351 -10.05763
  Beta  occ. eigenvalues --  -10.04246 -10.04124 -10.02996 -10.02620 -10.02375
  Beta  occ. eigenvalues --  -10.02271 -10.01863  -0.91093  -0.88818  -0.70466
  Beta  occ. eigenvalues --   -0.65495  -0.64347  -0.60593  -0.55160  -0.54023
  Beta  occ. eigenvalues --   -0.52099  -0.46234  -0.43003  -0.39189  -0.37820
  Beta  occ. eigenvalues --   -0.35180  -0.34538  -0.33199  -0.32547  -0.30635
  Beta  occ. eigenvalues --   -0.28898  -0.28849  -0.27715  -0.27114  -0.26647
  Beta  occ. eigenvalues --   -0.26139  -0.24870  -0.23438  -0.22472  -0.20745
  Beta  occ. eigenvalues --   -0.20717  -0.18722  -0.16987  -0.15531  -0.13674
  Beta  occ. eigenvalues --   -0.07447
  Beta virt. eigenvalues --    0.07606   0.08548   0.08980   0.09442   0.10313
  Beta virt. eigenvalues --    0.10578   0.11116   0.11434   0.11958   0.12741
  Beta virt. eigenvalues --    0.12859   0.13477   0.13947   0.14356   0.15236

 Mulliken charges and spin densities:
               1          2
     1  C    1.484808  -2.293054
     2  C   -3.344980   3.536728
     3  C   -0.671264   0.600152
     4  C    2.143604  -1.092102
     5  C   -0.389601  -1.248014
     6  C   -0.029764   1.171980
     7  C    1.778390  -2.162144
     8  O   -0.186024   0.009033
     9  C   -0.131223  -0.216488
    10  C   -1.109120   0.161741
    11  C   -0.142822  -0.181361
    12  O   -0.166387   0.021232
    13  H   -0.395439   0.517276
    14  H   -0.052249   0.205885
    15  H   -0.493328   0.636596
    16  H   -0.292046   0.479266
    17  H    0.062908   0.081474
    18  H    0.109195  -0.003792
    19  H    0.004945   0.182639
    20  H    0.086081   0.121074
    21  H    0.133195  -0.008062
    22  H    0.127751   0.020002
    23  H   -0.176921   0.326572
    24  H    0.123892   0.009306
    25  H    0.007655   0.135371
    26  H    0.157500  -0.007225
    27  H    0.148138  -0.011859
    28  H    0.213107   0.007775
 Sum of Mulliken charges =  -1.00000   1.00000

 Dipole moment (field-independent basis, Debye):
    X=              5.4621    Y=             -2.6964    Z=              0.9428  Tot=              6.1639
 Quadrupole moment (field-independent basis, Debye-Ang):
   XX=           -119.9795   YY=           -113.5469   ZZ=            -94.5101
   XY=             10.9924   XZ=             -3.6137   YZ=             -1.1995

 Summary of Natural Population Analysis:

                                       Natural Population
                Natural  -----------------------------------------------
    Atom  No    Charge         Core      Valence    Rydberg      Total
 -----------------------------------------------------------------------
      C    1   -0.27991      0.99965     2.27377    0.00649     3.27991
      C    2   -0.13844      0.99958     2.12751    0.01135     3.13844
      C    3   -0.04968      0.99946     2.03986    0.01036     3.04968
      C    4   -0.03596      0.99946     2.02556    0.01094     3.03596
      C    5   -0.11572      0.99944     2.10559    0.01069     3.11572
      C    6    0.03495      0.99949     1.95536    0.01021     2.96505
      C    7    0.05953      0.99949     1.92508    0.01590     2.94047
      O    8   -0.37213      0.99990     3.36580    0.00643     4.37213
      C    9   -0.29723      0.99963     2.29167    0.00594     3.29723
      C   10    0.05785      0.99953     1.92917    0.01344     2.94215
      C   11   -0.29833      0.99965     2.29146    0.00721     3.29833
      O   12   -0.37112      0.99990     3.36491    0.00630     4.37112
      H   13    0.09375      0.00000     0.40513    0.00112     0.40625
      H   14    0.10275      0.00000     0.39593    0.00132     0.39725
      H   15    0.09882      0.00000     0.39971    0.00147     0.40118
      H   16    0.10706      0.00000     0.39019    0.00275     0.39294
      H   17    0.09044      0.00000     0.40823    0.00133     0.40956
      H   18    0.09455      0.00000     0.40431    0.00114     0.40545
      H   19    0.08901      0.00000     0.40887    0.00212     0.41099
      H   20    0.22719      0.00000     0.27014    0.00268     0.27281
      H   21    0.09500      0.00000     0.40420    0.00080     0.40500
      H   22    0.10291      0.00000     0.39602    0.00107     0.39709
      H   23    0.10127      0.00000     0.39728    0.00145     0.39873
      H   24    0.08320      0.00000     0.41507    0.00173     0.41680
      H   25    0.09801      0.00000     0.40056    0.00143     0.40199
      H   26    0.09763      0.00000     0.40151    0.00086     0.40237
      H   27    0.10115      0.00000     0.39807    0.00079     0.39885
      H   28    0.22346      0.00000     0.27400    0.00254     0.27654
 =======================================================================
   * Total *    0.00000     11.99520    33.86494    0.13986    46.00000

 Normal termination of Gaussian 16 at Wed Dec  9 18:06:19 2020.
