 Gaussian 16, Revision A.03,

 -----------------------------------------------------------
 # opt freq B3LYP/6-31G(d) empiricaldispersion=gd3bj scf=xqc
 -----------------------------------------------------------

 -------------------------------
 CID_106961680_JID_7696_neutraal
 -------------------------------
 Symbolic Z-matrix:
 Charge =  0 Multiplicity = 1

 SCF Done:  E(RB3LYP) =  -1124.87132412     A.U. after   14 cycles
 SCF Done:  E(RB3LYP) =  -1124.87870342     A.U. after   13 cycles
 SCF Done:  E(RB3LYP) =  -1124.88000266     A.U. after   12 cycles
 SCF Done:  E(RB3LYP) =  -1124.87961291     A.U. after   12 cycles
 SCF Done:  E(RB3LYP) =  -1124.87846975     A.U. after   12 cycles
 SCF Done:  E(RB3LYP) =  -1124.87853897     A.U. after   12 cycles
 SCF Done:  E(RB3LYP) =  -1124.88046915     A.U. after    9 cycles
 SCF Done:  E(RB3LYP) =  -1124.88136811     A.U. after   12 cycles
 SCF Done:  E(RB3LYP) =  -1124.88141409     A.U. after   12 cycles
 SCF Done:  E(RB3LYP) =  -1124.88158421     A.U. after   11 cycles
 SCF Done:  E(RB3LYP) =  -1124.88166336     A.U. after   10 cycles
 SCF Done:  E(RB3LYP) =  -1124.88166545     A.U. after    9 cycles
 SCF Done:  E(RB3LYP) =  -1124.88166584     A.U. after    7 cycles
 SCF Done:  E(RB3LYP) =  -1124.88166602     A.U. after    7 cycles
 SCF Done:  E(RB3LYP) =  -1124.88166607     A.U. after    7 cycles
 SCF Done:  E(RB3LYP) =  -1124.88166610     A.U. after    7 cycles
 Optimization completed.
    -- Stationary point found.
 Normal termination of Gaussian 16 at Sun Dec 13 16:11:07 2020.

 --------------------------------------------------------------------
 #N Geom=AllCheck Guess=TCheck SCRF=Check GenChk RB3LYP/6-31G(d) Freq
 --------------------------------------------------------------------

 Structure from the checkpoint file:  "JID_7696.chk"
 -------------------------------
 CID_106961680_JID_7696_neutraal
 -------------------------------
 Charge =  0 Multiplicity = 1

 SCF Done:  E(RB3LYP) =  -1124.88166610     A.U. after    1 cycles

  Exact polarizability: 198.105 -10.995 153.752  -5.555  -4.908 129.577
 Approx polarizability: 234.748 -18.155 229.722 -14.374 -21.744 217.684

                      1                      2                      3
                      A                      A                      A
 Frequencies --     19.4820                27.8061                44.0989
 Red. masses --      4.8479                 5.2303                 3.3154
 Frc consts  --      0.0011                 0.0024                 0.0038
 IR Inten    --      0.0400                 0.0399                 0.7195

                      4                      5                      6
                      A                      A                      A
 Frequencies --     50.6291                67.9669                77.1899
 Red. masses --      4.4301                 3.8148                 3.9078
 Frc consts  --      0.0067                 0.0104                 0.0137
 IR Inten    --      0.7815                 1.4770                 1.5261

                      7                      8                      9
                      A                      A                      A
 Frequencies --    107.7845               118.9988               155.7854
 Red. masses --      3.6852                 4.5911                 3.4058
 Frc consts  --      0.0252                 0.0383                 0.0487
 IR Inten    --     12.3101                 0.2211                 5.5120

                     10                     11                     12
                      A                      A                      A
 Frequencies --    180.9215               200.2982               214.7288
 Red. masses --      3.2802                 1.1646                 3.7603
 Frc consts  --      0.0633                 0.0275                 0.1022
 IR Inten    --      0.3395                 1.0898                 1.7422

                     13                     14                     15
                      A                      A                      A
 Frequencies --    232.2108               243.5443               271.2133
 Red. masses --      3.0016                 1.0677                 2.5104
 Frc consts  --      0.0954                 0.0373                 0.1088
 IR Inten    --      3.2582                 0.1505                 1.0758

                     16                     17                     18
                      A                      A                      A
 Frequencies --    290.1469               294.6779               300.8771
 Red. masses --      2.2059                 1.1942                 1.2032
 Frc consts  --      0.1094                 0.0611                 0.0642
 IR Inten    --      0.5129                 0.6895                 1.6451

                     19                     20                     21
                      A                      A                      A
 Frequencies --    341.3852               352.5063               357.0568
 Red. masses --      2.8493                 2.6566                 1.8329
 Frc consts  --      0.1957                 0.1945                 0.1377
 IR Inten    --      0.9929                 1.6682                 7.0897

                     22                     23                     24
                      A                      A                      A
 Frequencies --    361.9181               401.5614               430.4029
 Red. masses --      2.3874                 2.8121                 2.3718
 Frc consts  --      0.1842                 0.2672                 0.2589
 IR Inten    --      0.7985                 1.2753                 3.5182

                     25                     26                     27
                      A                      A                      A
 Frequencies --    448.9740               452.6247               464.0918
 Red. masses --      1.9838                 2.4342                 2.3288
 Frc consts  --      0.2356                 0.2938                 0.2955
 IR Inten    --     31.9509                 9.7849                34.8669

                     28                     29                     30
                      A                      A                      A
 Frequencies --    543.8664               562.8925               653.2661
 Red. masses --      1.7021                 3.6223                 5.2796
 Frc consts  --      0.2966                 0.6762                 1.3275
 IR Inten    --     85.5948                 1.5340                 3.0836

                     31                     32                     33
                      A                      A                      A
 Frequencies --    658.8724               689.5851               713.3569
 Red. masses --      4.2379                 2.7758                 5.0275
 Frc consts  --      1.0839                 0.7777                 1.5074
 IR Inten    --      3.3868                48.0634                 2.2889

                     34                     35                     36
                      A                      A                      A
 Frequencies --    724.3481               751.7598               779.2520
 Red. masses --      8.2319                 2.3904                 2.4537
 Frc consts  --      2.5447                 0.7959                 0.8779
 IR Inten    --     21.7692                10.9175                20.4282

                     37                     38                     39
                      A                      A                      A
 Frequencies --    794.1393               805.9994               881.6212
 Red. masses --      2.0233                 4.0829                 2.6093
 Frc consts  --      0.7518                 1.5628                 1.1949
 IR Inten    --     29.5567                60.6257                 3.8367

                     40                     41                     42
                      A                      A                      A
 Frequencies --    888.3190               924.2012               938.3128
 Red. masses --      2.0350                 1.7434                 1.9433
 Frc consts  --      0.9461                 0.8774                 1.0081
 IR Inten    --      4.3286                 0.6654                12.3024

                     43                     44                     45
                      A                      A                      A
 Frequencies --    943.6658               963.6224               975.8180
 Red. masses --      1.7773                 3.8201                 1.2068
 Frc consts  --      0.9325                 2.0900                 0.6771
 IR Inten    --      1.2664                25.3690                 0.0832

                     46                     47                     48
                      A                      A                      A
 Frequencies --    984.1157              1002.4001              1008.3868
 Red. masses --      5.2633                 1.3347                 1.6113
 Frc consts  --      3.0033                 0.7901                 0.9654
 IR Inten    --      6.7171                 3.0928                 9.2969

                     49                     50                     51
                      A                      A                      A
 Frequencies --   1019.6075              1049.5255              1064.7118
 Red. masses --      1.6675                 1.6885                 1.4604
 Frc consts  --      1.0214                 1.0958                 0.9754
 IR Inten    --      3.9072                15.4178                 4.0565

                     52                     53                     54
                      A                      A                      A
 Frequencies --   1067.6678              1082.6315              1099.6141
 Red. masses --      1.6005                 3.6566                 2.3334
 Frc consts  --      1.0749                 2.5252                 1.6623
 IR Inten    --      4.0295                41.3783                 2.6840

                     55                     56                     57
                      A                      A                      A
 Frequencies --   1125.1184              1145.1845              1207.6981
 Red. masses --      3.3699                 3.7851                 1.4802
 Frc consts  --      2.5134                 2.9247                 1.2720
 IR Inten    --      4.0692                17.5998                 3.2047

                     58                     59                     60
                      A                      A                      A
 Frequencies --   1217.4938              1229.5768              1247.2192
 Red. masses --      1.7493                 1.3844                 2.3156
 Frc consts  --      1.5277                 1.2332                 2.1222
 IR Inten    --      6.1025                50.2500                25.1736

                     61                     62                     63
                      A                      A                      A
 Frequencies --   1266.5943              1272.8433              1313.9185
 Red. masses --      2.2231                 2.5611                 1.5351
 Frc consts  --      2.1012                 2.4447                 1.5614
 IR Inten    --     54.2999                37.3332                 8.3619

                     64                     65                     66
                      A                      A                      A
 Frequencies --   1324.1127              1337.7258              1360.1215
 Red. masses --      1.4608                 1.2214                 1.6319
 Frc consts  --      1.5090                 1.2878                 1.7787
 IR Inten    --     38.7988                18.0280                12.0277

                     67                     68                     69
                      A                      A                      A
 Frequencies --   1393.0404              1404.8912              1407.4507
 Red. masses --      1.3273                 1.1784                 1.4138
 Frc consts  --      1.5176                 1.3704                 1.6500
 IR Inten    --     19.4772                 2.0148                21.8542

                     70                     71                     72
                      A                      A                      A
 Frequencies --   1422.3068              1425.5120              1427.8673
 Red. masses --      1.5447                 1.2419                 1.2629
 Frc consts  --      1.8411                 1.4869                 1.5171
 IR Inten    --      9.1463                 4.9170                10.6812

                     73                     74                     75
                      A                      A                      A
 Frequencies --   1454.4772              1488.7729              1491.7166
 Red. masses --      1.2250                 1.0860                 1.0744
 Frc consts  --      1.5268                 1.4182                 1.4086
 IR Inten    --     14.5904                 9.2631                 6.1585

                     76                     77                     78
                      A                      A                      A
 Frequencies --   1503.1256              1506.8012              1507.6638
 Red. masses --      1.0534                 1.1144                 1.0785
 Frc consts  --      1.4023                 1.4907                 1.4444
 IR Inten    --     12.6201                 7.5106                 5.3147

                     79                     80                     81
                      A                      A                      A
 Frequencies --   1510.9695              1518.1344              1524.2756
 Red. masses --      1.0827                 1.0665                 1.0728
 Frc consts  --      1.4564                 1.4482                 1.4685
 IR Inten    --      7.5646                 1.8224                 0.5289

                     82                     83                     84
                      A                      A                      A
 Frequencies --   1526.9446              1536.5669              1539.5395
 Red. masses --      1.0542                 1.0643                 1.1579
 Frc consts  --      1.4482                 1.4806                 1.6170
 IR Inten    --      8.7103                 4.8456                15.5454

                     85                     86                     87
                      A                      A                      A
 Frequencies --   1554.2956              1556.5576              1561.1890
 Red. masses --      1.1338                 1.0661                 1.6477
 Frc consts  --      1.6138                 1.5218                 2.3661
 IR Inten    --     14.4349                 5.5764                41.3892

                     88                     89                     90
                      A                      A                      A
 Frequencies --   1630.9781              1683.9647              3013.8929
 Red. masses --      9.2850                 9.6170                 1.0703
 Frc consts  --     14.5522                16.0679                 5.7280
 IR Inten    --    111.3466               396.0185                34.6918

                     91                     92                     93
                      A                      A                      A
 Frequencies --   3033.5158              3041.0244              3046.5263
 Red. masses --      1.0740                 1.0386                 1.0383
 Frc consts  --      5.8229                 5.6592                 5.6781
 IR Inten    --     59.1536                15.6874                41.9990

                     94                     95                     96
                      A                      A                      A
 Frequencies --   3056.8463              3062.4204              3063.7658
 Red. masses --      1.0369                 1.0320                 1.0676
 Frc consts  --      5.7087                 5.7023                 5.9044
 IR Inten    --     10.2958                12.9874                30.6618

                     97                     98                     99
                      A                      A                      A
 Frequencies --   3076.2319              3091.7947              3101.3735
 Red. masses --      1.0597                 1.0919                 1.1007
 Frc consts  --      5.9083                 6.1496                 6.2375
 IR Inten    --     17.8812                20.8401                 3.2073

                    100                    101                    102
                      A                      A                      A
 Frequencies --   3109.5095              3125.4301              3127.1342
 Red. masses --      1.0991                 1.1023                 1.1062
 Frc consts  --      6.2616                 6.3439                 6.3732
 IR Inten    --     57.1631                17.7088                19.0522

                    103                    104                    105
                      A                      A                      A
 Frequencies --   3130.7237              3136.4497              3139.8323
 Red. masses --      1.1023                 1.1024                 1.0963
 Frc consts  --      6.3655                 6.3892                 6.3676
 IR Inten    --     17.3093                36.3705                 4.8310

                    106                    107                    108
                      A                      A                      A
 Frequencies --   3146.7411              3148.2727              3153.6343
 Red. masses --      1.1039                 1.0978                 1.0917
 Frc consts  --      6.4403                 6.4111                 6.3971
 IR Inten    --     12.7282                24.4248                 3.2545

                    109                    110                    111
                      A                      A                      A
 Frequencies --   3164.4718              3497.7483              3595.0274
 Red. masses --      1.1062                 1.0738                 1.0757
 Frc consts  --      6.5269                 7.7402                 8.1915
 IR Inten    --      2.7184                 0.6548                24.8474

 - Thermochemistry -
 -------------------
 Temperature   298.150 Kelvin.  Pressure   1.00000 Atm.
 Atom     1 has atomic number  6 and mass  12.00000

 Molecular mass:   258.15143 amu.
 Principal axes and moments of inertia in atomic units:
                           1         2         3
     Eigenvalues --  1648.67076********************
           X            0.99998  -0.00040   0.00600
           Y            0.00031   0.99989   0.01469
           Z           -0.00600  -0.01469   0.99987
 This molecule is an asymmetric top.
 Rotational symmetry number  1.
 Warning -- assumption of classical behavior for rotation
           may cause significant error
 Rotational temperatures (Kelvin)      0.05254     0.00776     0.00733
 Rotational constants (GHZ):           1.09466     0.16166     0.15269
 Zero-point vibrational energy     889827.0 (Joules/Mol)
                                  212.67376 (Kcal/Mol)
 Warning -- explicit consideration of  29 degrees of freedom as
           vibrations may cause significant error
 Vibrational temperatures:     28.03    40.01    63.45    72.84    97.79
          (Kelvin)            111.06   155.08   171.21   224.14   260.31
                              288.18   308.95   334.10   350.41   390.22
                              417.46   423.98   432.90   491.18   507.18
                              513.73   520.72   577.76   619.25   645.97
                              651.23   667.72   782.50   809.88   939.90
                              947.97   992.16  1026.36  1042.18  1081.61
                             1121.17  1142.59  1159.65  1268.46  1278.09
                             1329.72  1350.02  1357.72  1386.44  1403.98
                             1415.92  1442.23  1450.84  1466.99  1510.03
                             1531.88  1536.14  1557.67  1582.10  1618.79
                             1647.67  1737.61  1751.70  1769.09  1794.47
                             1822.35  1831.34  1890.44  1905.10  1924.69
                             1956.91  2004.27  2021.33  2025.01  2046.38
                             2050.99  2054.38  2092.67  2142.01  2146.25
                             2162.66  2167.95  2169.19  2173.95  2184.26
                             2193.09  2196.93  2210.78  2215.05  2236.28
                             2239.54  2246.20  2346.61  2422.85  4336.32
                             4364.55  4375.36  4383.27  4398.12  4406.14
                             4408.08  4426.01  4448.40  4462.18  4473.89
                             4496.80  4499.25  4504.41  4512.65  4517.52
                             4527.46  4529.66  4537.38  4552.97  5032.48
                             5172.44

 Zero-point correction=                           0.338917 (Hartree/Particle)
 Thermal correction to Energy=                    0.358283
 Thermal correction to Enthalpy=                  0.359227
 Thermal correction to Gibbs Free Energy=         0.289550
 Sum of electronic and zero-point Energies=          -1124.542749
 Sum of electronic and thermal Energies=             -1124.523384
 Sum of electronic and thermal Enthalpies=           -1124.522439
 Sum of electronic and thermal Free Energies=        -1124.592116

                     E (Thermal)             CV                S
                      KCal/Mol        Cal/Mol-Kelvin    Cal/Mol-Kelvin
 Total                  224.826             72.013            146.646
 Electronic               0.000              0.000              0.000
 Translational            0.889              2.981             42.545
 Rotational               0.889              2.981             33.742
 Vibrational            223.048             66.052             70.360
 Vibration     1          0.593              1.986              6.686
 Vibration     2          0.593              1.984              5.980
 Vibration     3          0.595              1.980              5.066
 Vibration     4          0.595              1.977              4.793
 Vibration     5          0.598              1.969              4.211
 Vibration     6          0.599              1.964              3.961
 Vibration     7          0.606              1.943              3.308
 Vibration     8          0.609              1.933              3.117
 Vibration     9          0.620              1.896              2.600
 Vibration    10          0.630              1.866              2.319
 Vibration    11          0.638              1.839              2.130
 Vibration    12          0.645              1.819              2.003
 Vibration    13          0.653              1.792              1.862
 Vibration    14          0.659              1.773              1.777
 Vibration    15          0.675              1.726              1.588
 Vibration    16          0.686              1.692              1.473
 Vibration    17          0.689              1.684              1.447
 Vibration    18          0.693              1.672              1.412
 Vibration    19          0.721              1.593              1.206
 Vibration    20          0.729              1.570              1.155
 Vibration    21          0.732              1.561              1.135
 Vibration    22          0.736              1.551              1.114
 Vibration    23          0.767              1.467              0.957
 Vibration    24          0.792              1.404              0.857
 Vibration    25          0.808              1.363              0.799
 Vibration    26          0.811              1.355              0.788
 Vibration    27          0.822              1.330              0.754
 Vibration    28          0.899              1.153              0.557
 Vibration    29          0.919              1.112              0.518

                           ! Non-Optimized Parameters !
 Normal termination of Gaussian 16 at Sun Dec 13 16:27:04 2020.

 ----------------------------------------------------------------------
 # B3LYP/6-311++G(d,p) empiricaldispersion=gd3bj scf=xqc pop=npa geom=c
 heck
 ----------------------------------------------------------------------

 ---------------------------------------
 CID_106961680_JID_7696_Energie_neutraal
 ---------------------------------------
 Structure from the checkpoint file:  "JID_7696.chk"
 Charge =  0 Multiplicity = 1

 SCF Done:  E(RB3LYP) =  -1125.11628755     A.U. after   15 cycles
 Normal termination of Gaussian 16 at Sun Dec 13 16:34:56 2020.

 ----------------------------------------------------------------------
 # B3LYP/6-311++G(d,p) empiricaldispersion=gd3bj scf=xqc pop=npa geom=c
 heck
 ----------------------------------------------------------------------

 -------------------------------------
 CID_106961680_JID_7696_Energie_kation
 -------------------------------------
 Structure from the checkpoint file:  "JID_7696.chk"
 Charge =  1 Multiplicity = 2

 SCF Done:  E(UB3LYP) =  -1124.83431723     A.U. after   32 cycles
 Normal termination of Gaussian 16 at Sun Dec 13 16:59:46 2020.
 Gaussian 16:  ES64L-G16RevA.03 25-Dec-2016

 ----------------------------------------------------------------------
 # B3LYP/6-311++G(d,p) empiricaldispersion=gd3bj scf=xqc pop=npa geom=c
 heck
 ----------------------------------------------------------------------

 ------------------------------------
 CID_106961680_JID_7696_Energie_anion
 ------------------------------------
 Structure from the checkpoint file:  "JID_7696.chk"
 Charge = -1 Multiplicity = 2

                         Standard orientation:
 ---------------------------------------------------------------------
 Center     Atomic      Atomic             Coordinates (Angstroms)
 Number     Number       Type             X           Y           Z
 ---------------------------------------------------------------------
      1          6           0        4.473364   -0.791849    1.175579
      2          6           0        4.134726    0.310140    0.163488
      3          6           0        3.126772    1.301346    0.787132
      4          6           0        5.413424    1.074042   -0.215921
      5          7           0        3.658578   -0.307040   -1.097955
      6          6           0        2.630403   -1.342424   -1.054425
      7          6           0        1.330231   -0.971031   -0.414249
      8          7           0        0.800381   -1.397379    0.680519
      9          7           0       -0.361824   -0.635096    0.910645
     10          6           0       -0.434344    0.194689   -0.093449
     11          8           0        0.590437    0.057834   -0.980491
     12          7           0       -1.408011    1.094168   -0.388473
     13          6           0       -2.375171    1.488200    0.638991
     14          6           0       -3.707463    1.881774    0.008407
     15          6           0       -4.399306    0.748189   -0.755049
     16         16           0       -4.939456   -0.664088    0.292628
     17          6           0       -3.576630   -1.861720    0.045357
     18          1           0        4.971705   -0.353739    2.046463
     19          1           0        5.148970   -1.529526    0.728920
     20          1           0        3.574771   -1.304884    1.532339
     21          1           0        3.586213    1.834257    1.627723
     22          1           0        2.815381    2.050960    0.048863
     23          1           0        2.235619    0.796999    1.168549
     24          1           0        6.152411    0.390290   -0.643856
     25          1           0        5.197255    1.849887   -0.961655
     26          1           0        5.848941    1.566418    0.660439
     27          1           0        3.368511    0.431173   -1.736191
     28          1           0        2.447130   -1.655541   -2.089181
     29          1           0        3.004611   -2.216133   -0.516453
     30          1           0       -1.136045    1.808078   -1.052528
     31          1           0       -2.509756    0.633401    1.303704
     32          1           0       -1.978893    2.313026    1.247765
     33          1           0       -4.367197    2.245811    0.804143
     34          1           0       -3.553315    2.726547   -0.681053
     35          1           0       -5.304654    1.130876   -1.235769
     36          1           0       -3.748201    0.358342   -1.543508
     37          1           0       -3.423163   -2.050007   -1.021441
     38          1           0       -2.640427   -1.542050    0.507905
     39          1           0       -3.901979   -2.792163    0.518388
 ---------------------------------------------------------------------

 SCF Done:  E(UB3LYP) =  -1125.11032244     A.U. after   31 cycles

 The electronic state is 2-A.
 Alpha  occ. eigenvalues --  -88.74787 -19.11189 -14.25062 -14.24399 -14.22872
 Alpha  occ. eigenvalues --  -14.21397 -10.20518 -10.16786 -10.12758 -10.12301
 Alpha  occ. eigenvalues --  -10.11556 -10.10685 -10.10039 -10.08426 -10.07209
 Alpha  occ. eigenvalues --  -10.06999 -10.06262  -7.83384  -5.79787  -5.79417
 Alpha  occ. eigenvalues --   -5.78748  -1.06268  -0.88170  -0.86467  -0.82882
 Alpha  occ. eigenvalues --   -0.73998  -0.71898  -0.69778  -0.66882  -0.61787
 Alpha  occ. eigenvalues --   -0.61363  -0.59900  -0.59620  -0.55480  -0.52531
 Alpha  occ. eigenvalues --   -0.51567  -0.48333  -0.46737  -0.45521  -0.41963
 Alpha  occ. eigenvalues --   -0.40721  -0.39461  -0.38568  -0.37775  -0.36876
 Alpha  occ. eigenvalues --   -0.35907  -0.35593  -0.34483  -0.33772  -0.33471
 Alpha  occ. eigenvalues --   -0.32933  -0.31263  -0.29868  -0.29783  -0.29665
 Alpha  occ. eigenvalues --   -0.29378  -0.27863  -0.27801  -0.27213  -0.25453
 Alpha  occ. eigenvalues --   -0.25272  -0.24747  -0.24220  -0.23399  -0.22359
 Alpha  occ. eigenvalues --   -0.21646  -0.19029  -0.14915  -0.13746  -0.13226
 Alpha  occ. eigenvalues --    0.03858
 Alpha virt. eigenvalues --    0.05949   0.06945   0.07401   0.07692   0.08121
 Alpha virt. eigenvalues --    0.08246   0.08724   0.09226   0.09627   0.10123
 Alpha virt. eigenvalues --    0.10386   0.10676   0.10971   0.11605   0.11993

  Beta  occ. eigenvalues --  -88.74786 -19.11169 -14.25010 -14.24395 -14.22868
  Beta  occ. eigenvalues --  -14.21381 -10.20516 -10.16782 -10.12749 -10.12301
  Beta  occ. eigenvalues --  -10.11543 -10.10668 -10.10035 -10.08394 -10.07196
  Beta  occ. eigenvalues --  -10.06980 -10.06235  -7.83383  -5.79786  -5.79416
  Beta  occ. eigenvalues --   -5.78747  -1.06248  -0.88155  -0.86402  -0.82856
  Beta  occ. eigenvalues --   -0.73973  -0.71869  -0.69757  -0.66848  -0.61757
  Beta  occ. eigenvalues --   -0.61329  -0.59865  -0.59578  -0.55445  -0.52485
  Beta  occ. eigenvalues --   -0.51522  -0.48274  -0.46697  -0.45479  -0.41926
  Beta  occ. eigenvalues --   -0.40677  -0.39431  -0.38519  -0.37717  -0.36842
  Beta  occ. eigenvalues --   -0.35880  -0.35561  -0.34463  -0.33750  -0.33445
  Beta  occ. eigenvalues --   -0.32917  -0.31241  -0.29846  -0.29755  -0.29642
  Beta  occ. eigenvalues --   -0.29343  -0.27839  -0.27769  -0.27187  -0.25430
  Beta  occ. eigenvalues --   -0.25233  -0.24725  -0.24194  -0.23376  -0.22332
  Beta  occ. eigenvalues --   -0.21625  -0.19023  -0.14894  -0.13730  -0.13204
  Beta virt. eigenvalues --    0.06000   0.06817   0.07158   0.07742   0.08089
  Beta virt. eigenvalues --    0.08386   0.08547   0.08814   0.09625   0.09919
  Beta virt. eigenvalues --    0.10414   0.10505   0.10782   0.11211   0.11662

 Mulliken charges and spin densities:
               1          2
     1  C   -0.068579  -0.545983
     2  C   -0.683644   0.700871
     3  C    0.181775  -0.735636
     4  C    0.015480  -0.422041
     5  N    0.105928   0.005951
     6  C    0.147388  -1.074737
     7  C    0.399709  -0.348333
     8  N    0.031571   0.109733
     9  N    0.053184  -0.162606
    10  C   -0.087241  -0.060089
    11  O    0.083919  -0.013815
    12  N   -0.493533   0.425562
    13  C   -0.580905   0.328862
    14  C    1.198044  -1.653990
    15  C   -0.383258   0.288646
    16  S    0.014173   0.079562
    17  C   -0.510208  -0.210079
    18  H    0.108202   0.024747
    19  H    0.012377   0.131706
    20  H    0.124009   0.053041
    21  H   -0.010588   0.156156
    22  H   -0.194057   0.369003
    23  H    0.218528  -0.052335
    24  H   -0.003358   0.160155
    25  H   -0.119752   0.261405
    26  H    0.062310   0.059244
    27  H    0.041481   0.210388
    28  H   -0.180637   0.373308
    29  H    0.220591  -0.030799
    30  H   -0.526734   0.845754
    31  H    0.244052  -0.075823
    32  H   -0.258442   0.449977
    33  H    0.110696   0.024870
    34  H   -0.528223   0.684793
    35  H   -0.175185   0.448952
    36  H    0.038694   0.090697
    37  H    0.081019   0.107674
    38  H    0.130584   0.008018
    39  H    0.180629  -0.012809
 Sum of Mulliken charges =  -1.00000   1.00000

 Dipole moment (field-independent basis, Debye):
    X=              1.0877    Y=             -5.4820    Z=              2.3463  Tot=              6.0614
 Quadrupole moment (field-independent basis, Debye-Ang):
   XX=           -201.3593   YY=           -160.5718   ZZ=           -148.8549
   XY=              4.8544   XZ=              0.2988   YZ=             11.2892

 Summary of Natural Population Analysis:

                                       Natural Population
                Natural  -----------------------------------------------
    Atom  No    Charge         Core      Valence    Rydberg      Total
 -----------------------------------------------------------------------
      C    1   -0.29423      0.99961     2.28895    0.00567     3.29423
      C    2    0.05399      0.99959     1.93368    0.01273     2.94601
      C    3   -0.29629      0.99961     2.28913    0.00755     3.29629
      C    4   -0.28266      0.99962     2.27662    0.00642     3.28266
      N    5   -0.34105      0.99972     2.82878    0.01255     3.84105
      C    6   -0.11816      0.99956     2.10591    0.01268     3.11816
      C    7    0.23949      0.99958     1.74076    0.02017     2.76051
      N    8   -0.16152      0.99965     2.65078    0.01109     3.66152
      N    9   -0.21159      0.99966     2.70037    0.01156     3.71159
      C   10    0.34807      0.99958     1.63203    0.02033     2.65193
      O   11   -0.24864      0.99985     3.24060    0.00819     4.24864
      N   12   -0.32072      0.99966     2.80809    0.01298     3.82072
      C   13   -0.08987      0.99960     2.07761    0.01266     3.08987
      C   14   -0.19910      0.99961     2.18816    0.01133     3.19910
      C   15   -0.25143      0.99959     2.23992    0.01192     3.25143
      S   16    0.07119      4.99964     2.91067    0.01849     7.92881
      C   17   -0.34964      0.99961     2.34485    0.00518     3.34964
      H   18    0.10119      0.00000     0.39812    0.00070     0.39881
      H   19    0.10032      0.00000     0.39882    0.00086     0.39968
      H   20    0.10702      0.00000     0.39191    0.00108     0.39298
      H   21    0.09896      0.00000     0.40017    0.00087     0.40104
      H   22    0.10396      0.00000     0.39451    0.00153     0.39604
      H   23    0.10332      0.00000     0.39503    0.00164     0.39668
      H   24    0.10181      0.00000     0.39704    0.00115     0.39819
      H   25    0.10069      0.00000     0.39829    0.00103     0.39931
      H   26    0.09700      0.00000     0.40218    0.00082     0.40300
      H   27    0.17877      0.00000     0.31794    0.00329     0.32123
      H   28    0.10713      0.00000     0.39185    0.00102     0.39287
      H   29    0.10752      0.00000     0.39133    0.00115     0.39248
      H   30    0.20546      0.00000     0.27807    0.01646     0.29454
      H   31    0.10866      0.00000     0.38906    0.00228     0.39134
      H   32    0.09551      0.00000     0.40320    0.00129     0.40449
      H   33    0.10076      0.00000     0.39793    0.00131     0.39924
      H   34    0.10489      0.00000     0.39161    0.00350     0.39511
      H   35    0.10593      0.00000     0.39268    0.00139     0.39407
      H   36    0.10777      0.00000     0.39069    0.00154     0.39223
      H   37    0.09936      0.00000     0.39930    0.00134     0.40064
      H   38    0.11329      0.00000     0.38487    0.00184     0.38671
      H   39    0.10280      0.00000     0.39641    0.00079     0.39720
 =======================================================================
   * Total *    0.00000     20.99376    48.75789    0.24836    70.00000

 Normal termination of Gaussian 16 at Sun Dec 13 17:22:27 2020.
