 Gaussian 16, Revision A.03,

 -----------------------------------------------------------
 # opt freq B3LYP/6-31G(d) empiricaldispersion=gd3bj scf=xqc
 -----------------------------------------------------------

 ------------------------------
 CID_80707101_JID_6208_neutraal
 ------------------------------
 Symbolic Z-matrix:
 Charge =  0 Multiplicity = 1

 SCF Done:  E(RB3LYP) =  -726.890141050     A.U. after   15 cycles
 SCF Done:  E(RB3LYP) =  -726.899553552     A.U. after   13 cycles
 SCF Done:  E(RB3LYP) =  -726.899459359     A.U. after   13 cycles
 SCF Done:  E(RB3LYP) =  -726.901010407     A.U. after   12 cycles
 SCF Done:  E(RB3LYP) =  -726.901302743     A.U. after   11 cycles
 SCF Done:  E(RB3LYP) =  -726.901396476     A.U. after   11 cycles
 SCF Done:  E(RB3LYP) =  -726.901424085     A.U. after   11 cycles
 SCF Done:  E(RB3LYP) =  -726.901451957     A.U. after   10 cycles
 SCF Done:  E(RB3LYP) =  -726.901470721     A.U. after   11 cycles
 SCF Done:  E(RB3LYP) =  -726.901483135     A.U. after   10 cycles
 SCF Done:  E(RB3LYP) =  -726.901600831     A.U. after   11 cycles
 SCF Done:  E(RB3LYP) =  -726.901607867     A.U. after   11 cycles
 SCF Done:  E(RB3LYP) =  -726.901608139     A.U. after   10 cycles
 SCF Done:  E(RB3LYP) =  -726.901609718     A.U. after   10 cycles
 SCF Done:  E(RB3LYP) =  -726.901608130     A.U. after   10 cycles
 SCF Done:  E(RB3LYP) =  -726.901610009     A.U. after   10 cycles
 Optimization completed.
    -- Stationary point found.
 Normal termination of Gaussian 16 at Thu Dec 10 21:29:55 2020.

 --------------------------------------------------------------------
 #N Geom=AllCheck Guess=TCheck SCRF=Check GenChk RB3LYP/6-31G(d) Freq
 --------------------------------------------------------------------

 Structure from the checkpoint file:  "JID_6208.chk"
 ------------------------------
 CID_80707101_JID_6208_neutraal
 ------------------------------
 Charge =  0 Multiplicity = 1

 SCF Done:  E(RB3LYP) =  -726.901610009     A.U. after    1 cycles

  Exact polarizability: 167.330  15.526 136.506 -18.601  14.148 117.787
 Approx polarizability: 220.213  24.788 221.630 -43.585  40.061 202.730

                      1                      2                      3
                      A                      A                      A
 Frequencies --     16.1358                52.9674                55.0315
 Red. masses --      3.9535                 5.4024                 2.8650
 Frc consts  --      0.0006                 0.0089                 0.0051
 IR Inten    --      0.6508                 0.0755                 0.2556

                      4                      5                      6
                      A                      A                      A
 Frequencies --     88.3908               118.8009               134.7911
 Red. masses --      6.2740                 2.9308                 3.3355
 Frc consts  --      0.0289                 0.0244                 0.0357
 IR Inten    --      1.2333                 1.3290                 0.8444

                      7                      8                      9
                      A                      A                      A
 Frequencies --    153.4974               196.2517               201.2667
 Red. masses --      2.4439                 1.6351                 1.9525
 Frc consts  --      0.0339                 0.0371                 0.0466
 IR Inten    --      0.1348                 0.4972                 0.2487

                     10                     11                     12
                      A                      A                      A
 Frequencies --    250.0053               278.6330               285.5375
 Red. masses --      4.0590                 3.8043                 3.2474
 Frc consts  --      0.1495                 0.1740                 0.1560
 IR Inten    --      1.2120                 5.7270                 1.1388

                     13                     14                     15
                      A                      A                      A
 Frequencies --    328.0904               373.9728               405.8903
 Red. masses --      4.3398                 3.2470                 3.0886
 Frc consts  --      0.2752                 0.2676                 0.2998
 IR Inten    --      2.2841                13.9709                 1.1877

                     16                     17                     18
                      A                      A                      A
 Frequencies --    432.3265               448.5057               468.8197
 Red. masses --      5.0038                 2.5649                 4.2202
 Frc consts  --      0.5510                 0.3040                 0.5465
 IR Inten    --      8.6072                 4.6838                 3.5715

                     19                     20                     21
                      A                      A                      A
 Frequencies --    527.8188               567.1804               603.7653
 Red. masses --      4.6264                 6.6922                 6.2427
 Frc consts  --      0.7594                 1.2684                 1.3408
 IR Inten    --      1.3446                 1.7129                 8.2966

                     22                     23                     24
                      A                      A                      A
 Frequencies --    649.5531               666.9623               719.4299
 Red. masses --      2.0259                 6.2560                 4.4117
 Frc consts  --      0.5036                 1.6396                 1.3453
 IR Inten    --      3.3377                41.8900                 9.8086

                     25                     26                     27
                      A                      A                      A
 Frequencies --    740.6551               754.3967               781.5423
 Red. masses --      1.9647                 1.7761                 1.5733
 Frc consts  --      0.6350                 0.5955                 0.5662
 IR Inten    --     27.2141                65.6203                18.2300

                     28                     29                     30
                      A                      A                      A
 Frequencies --    800.8589               803.1418               849.0312
 Red. masses --      3.5325                 1.4234                 1.3486
 Frc consts  --      1.3349                 0.5410                 0.5728
 IR Inten    --     25.7929                 4.5822                19.0951

                     31                     32                     33
                      A                      A                      A
 Frequencies --    858.1314               894.4651               913.7688
 Red. masses --      6.8425                 2.0177                 1.8952
 Frc consts  --      2.9688                 0.9511                 0.9323
 IR Inten    --      3.0182                 4.2474                 0.4813

                     34                     35                     36
                      A                      A                      A
 Frequencies --    933.4801               946.8977               951.0940
 Red. masses --      1.3868                 2.3325                 3.4562
 Frc consts  --      0.7120                 1.2322                 1.8420
 IR Inten    --      1.7058                 2.2228                 0.8070

                     37                     38                     39
                      A                      A                      A
 Frequencies --    968.2517               981.0610               986.7084
 Red. masses --      1.3442                 1.4212                 2.0212
 Frc consts  --      0.7425                 0.8059                 1.1594
 IR Inten    --      2.5806                 2.4667                 0.4998

                     40                     41                     42
                      A                      A                      A
 Frequencies --   1064.5197              1089.8274              1104.9010
 Red. masses --      2.0674                 1.9867                 2.3762
 Frc consts  --      1.3803                 1.3903                 1.7092
 IR Inten    --      5.4207                18.2777                25.1873

                     43                     44                     45
                      A                      A                      A
 Frequencies --   1118.7919              1148.1682              1164.2682
 Red. masses --      2.5968                 1.7440                 1.6454
 Frc consts  --      1.9151                 1.3546                 1.3141
 IR Inten    --      5.4150                 4.0213                34.7285

                     46                     47                     48
                      A                      A                      A
 Frequencies --   1187.5926              1214.7200              1227.6036
 Red. masses --      2.6888                 1.4375                 1.6231
 Frc consts  --      2.2343                 1.2497                 1.4411
 IR Inten    --     47.1194                25.4588                 3.7416

                     49                     50                     51
                      A                      A                      A
 Frequencies --   1251.9408              1270.7303              1272.3389
 Red. masses --      1.4329                 1.5496                 1.5412
 Frc consts  --      1.3232                 1.4743                 1.4700
 IR Inten    --     39.5619                61.7390                14.8486

                     52                     53                     54
                      A                      A                      A
 Frequencies --   1275.5065              1281.1795              1289.7219
 Red. masses --      1.5265                 1.5413                 2.0099
 Frc consts  --      1.4632                 1.4906                 1.9698
 IR Inten    --     33.6457                51.1336                12.7374

                     55                     56                     57
                      A                      A                      A
 Frequencies --   1298.3466              1309.0329              1328.4369
 Red. masses --      1.7129                 1.9709                 1.5267
 Frc consts  --      1.7013                 1.9898                 1.5874
 IR Inten    --      4.6173                23.2880                44.0851

                     58                     59                     60
                      A                      A                      A
 Frequencies --   1359.5821              1387.3760              1407.3927
 Red. masses --      2.5500                 1.4654                 1.5049
 Frc consts  --      2.7771                 1.6618                 1.7563
 IR Inten    --     42.5093                35.3274               129.5589

                     61                     62                     63
                      A                      A                      A
 Frequencies --   1416.9818              1458.9256              1485.0641
 Red. masses --      1.3668                 1.7749                 2.1632
 Frc consts  --      1.6169                 2.2258                 2.8109
 IR Inten    --     17.6652               133.2479                54.4337

                     64                     65                     66
                      A                      A                      A
 Frequencies --   1488.7269              1506.3842              1511.4287
 Red. masses --      1.7129                 1.1038                 1.0691
 Frc consts  --      2.2367                 1.4757                 1.4389
 IR Inten    --     46.6344                 4.9113                12.7276

                     67                     68                     69
                      A                      A                      A
 Frequencies --   1514.9568              1518.1272              1534.7833
 Red. masses --      1.1071                 1.1024                 2.2682
 Frc consts  --      1.4971                 1.4969                 3.1479
 IR Inten    --      7.4685                 1.9763                63.7108

                     70                     71                     72
                      A                      A                      A
 Frequencies --   1539.1100              1544.6375              1612.3901
 Red. masses --      1.1452                 1.1626                 4.8477
 Frc consts  --      1.5983                 1.6343                 7.4255
 IR Inten    --     20.5603                25.2513                33.3889

                     73                     74                     75
                      A                      A                      A
 Frequencies --   1647.9389              1698.6614              3037.9960
 Red. masses --      6.1304                 5.9640                 1.0730
 Frc consts  --      9.8089                10.1392                 5.8347
 IR Inten    --    107.1639               203.6600                17.8449

                     76                     77                     78
                      A                      A                      A
 Frequencies --   3056.3909              3057.6653              3063.3088
 Red. masses --      1.0660                 1.0690                 1.0481
 Frc consts  --      5.8673                 5.8886                 5.7948
 IR Inten    --     19.4672                19.9489                38.8605

                     79                     80                     81
                      A                      A                      A
 Frequencies --   3067.6620              3076.9101              3114.4446
 Red. masses --      1.0643                 1.0604                 1.1037
 Frc consts  --      5.9009                 5.9152                 6.3076
 IR Inten    --     44.5552                43.3186                12.0021

                     82                     83                     84
                      A                      A                      A
 Frequencies --   3118.4404              3131.1465              3134.4032
 Red. masses --      1.1044                 1.1012                 1.1059
 Frc consts  --      6.3278                 6.3609                 6.4016
 IR Inten    --     28.2162                 1.6396                78.9326

                     85                     86                     87
                      A                      A                      A
 Frequencies --   3171.1966              3177.9863              3184.7746
 Red. masses --      1.0905                 1.1032                 1.0874
 Frc consts  --      6.4614                 6.5644                 6.4984
 IR Inten    --      6.4912                 9.5208                24.3207

                     88                     89                     90
                      A                      A                      A
 Frequencies --   3188.1907              3213.4583              3387.5531
 Red. masses --      1.0918                 1.0940                 1.0658
 Frc consts  --      6.5383                 6.6560                 7.2058
 IR Inten    --     11.0648                11.9184               321.2152

 - Thermochemistry -
 -------------------
 Temperature   298.150 Kelvin.  Pressure   1.00000 Atm.
 Atom     1 has atomic number  6 and mass  12.00000

 Molecular mass:   220.12118 amu.
 Principal axes and moments of inertia in atomic units:
                           1         2         3
     Eigenvalues --  2069.670905812.404826679.03415
           X            0.99999  -0.00384   0.00318
           Y            0.00387   0.99994  -0.00991
           Z           -0.00314   0.00993   0.99995
 This molecule is an asymmetric top.
 Rotational symmetry number  1.
 Warning -- assumption of classical behavior for rotation
           may cause significant error
 Rotational temperatures (Kelvin)      0.04185     0.01490     0.01297
 Rotational constants (GHZ):           0.87199     0.31050     0.27021
 Zero-point vibrational energy     711172.3 (Joules/Mol)
                                  169.97427 (Kcal/Mol)
 Warning -- explicit consideration of  21 degrees of freedom as
           vibrations may cause significant error
 Vibrational temperatures:     23.22    76.21    79.18   127.17   170.93
          (Kelvin)            193.93   220.85   282.36   289.58   359.70
                              400.89   410.82   472.05   538.06   583.99
                              622.02   645.30   674.53   759.41   816.05
                              868.68   934.56   959.61  1035.10  1065.64
                             1085.41  1124.47  1152.26  1155.54  1221.57
                             1234.66  1286.94  1314.71  1343.07  1362.37
                             1368.41  1393.10  1411.53  1419.65  1531.61
                             1568.02  1589.71  1609.69  1651.96  1675.12
                             1708.68  1747.71  1766.25  1801.26  1828.30
                             1830.61  1835.17  1843.33  1855.62  1868.03
                             1883.41  1911.32  1956.14  1996.12  2024.92
                             2038.72  2099.07  2136.68  2141.95  2167.35
                             2174.61  2179.68  2184.25  2208.21  2214.44
                             2222.39  2319.87  2371.02  2443.99  4371.00
                             4397.46  4399.30  4407.42  4413.68  4426.99
                             4480.99  4486.74  4505.02  4509.71  4562.64
                             4572.41  4582.18  4587.10  4623.45  4873.93

 Zero-point correction=                           0.270871 (Hartree/Particle)
 Thermal correction to Energy=                    0.285557
 Thermal correction to Enthalpy=                  0.286501
 Thermal correction to Gibbs Free Energy=         0.227507
 Sum of electronic and zero-point Energies=           -726.630739
 Sum of electronic and thermal Energies=              -726.616053
 Sum of electronic and thermal Enthalpies=            -726.615109
 Sum of electronic and thermal Free Energies=         -726.674103

                     E (Thermal)             CV                S
                      KCal/Mol        Cal/Mol-Kelvin    Cal/Mol-Kelvin
 Total                  179.190             56.094            124.165
 Electronic               0.000              0.000              0.000
 Translational            0.889              2.981             42.070
 Rotational               0.889              2.981             32.752
 Vibrational            177.412             50.133             49.343
 Vibration     1          0.593              1.986              7.061
 Vibration     2          0.596              1.976              4.703
 Vibration     3          0.596              1.976              4.628
 Vibration     4          0.601              1.957              3.695
 Vibration     5          0.609              1.934              3.120
 Vibration     6          0.613              1.919              2.877
 Vibration     7          0.619              1.899              2.628
 Vibration     8          0.636              1.845              2.168
 Vibration     9          0.638              1.838              2.121
 Vibration    10          0.663              1.763              1.731
 Vibration    11          0.679              1.713              1.542
 Vibration    12          0.683              1.701              1.500
 Vibration    13          0.711              1.619              1.269
 Vibration    14          0.745              1.526              1.063
 Vibration    15          0.771              1.457              0.941
 Vibration    16          0.793              1.400              0.851
 Vibration    17          0.808              1.364              0.800
 Vibration    18          0.826              1.319              0.741
 Vibration    19          0.883              1.188              0.592
 Vibration    20          0.923              1.102              0.510
 Vibration    21          0.962              1.024              0.443

 Optimization completed.
    -- Stationary point found.
 Normal termination of Gaussian 16 at Thu Dec 10 21:41:18 2020.

 ----------------------------------------------------------------------
 # B3LYP/6-311++G(d,p) empiricaldispersion=gd3bj scf=xqc pop=npa geom=c
 heck
 ----------------------------------------------------------------------

 --------------------------------------
 CID_80707101_JID_6208_Energie_neutraal
 --------------------------------------
 Structure from the checkpoint file:  "JID_6208.chk"
 Charge =  0 Multiplicity = 1

 SCF Done:  E(RB3LYP) =  -727.105509332     A.U. after   17 cycles
 Normal termination of Gaussian 16 at Thu Dec 10 21:47:25 2020.

 ----------------------------------------------------------------------
 # B3LYP/6-311++G(d,p) empiricaldispersion=gd3bj scf=xqc pop=npa geom=c
 heck
 ----------------------------------------------------------------------

 ------------------------------------
 CID_80707101_JID_6208_Energie_kation
 ------------------------------------
 Structure from the checkpoint file:  "JID_6208.chk"
 Charge =  1 Multiplicity = 2

 SCF Done:  E(UB3LYP) =  -726.793966570     A.U. after   25 cycles
 Normal termination of Gaussian 16 at Thu Dec 10 22:00:27 2020.
 Gaussian 16:  ES64L-G16RevA.03 25-Dec-2016

 ----------------------------------------------------------------------
 # B3LYP/6-311++G(d,p) empiricaldispersion=gd3bj scf=xqc pop=npa geom=c
 heck
 ----------------------------------------------------------------------

 -----------------------------------
 CID_80707101_JID_6208_Energie_anion
 -----------------------------------
 Structure from the checkpoint file:  "JID_6208.chk"
 Charge = -1 Multiplicity = 2

                         Standard orientation:
 ---------------------------------------------------------------------
 Center     Atomic      Atomic             Coordinates (Angstroms)
 Number     Number       Type             X           Y           Z
 ---------------------------------------------------------------------
      1          6           0        1.595536    2.140095   -0.988597
      2          7           0        0.713930    0.983221   -0.838879
      3          6           0        1.374312   -0.326952   -0.793852
      4          6           0        2.366885   -0.481297    0.356229
      5          6           0        3.028571   -1.878289    0.510277
      6          6           0        4.346148   -1.168258    0.915851
      7          6           0        3.794757    0.130695    0.274759
      8          6           0       -0.515198    1.236133   -0.298975
      9          8           0       -0.792129    2.370615    0.135461
     10          6           0       -1.557769    0.169965   -0.259666
     11          6           0       -2.534738    0.233239    0.757082
     12          6           0       -3.500385   -0.789810    0.814661
     13          7           0       -3.590937   -1.770878   -0.076335
     14          6           0       -2.714881   -1.776943   -1.095389
     15          6           0       -1.697030   -0.841397   -1.222231
     16          8           0       -2.588228    1.214696    1.673754
     17          1           0        2.049089    2.438199   -0.036754
     18          1           0        1.019797    2.984029   -1.368631
     19          1           0        2.387068    1.881479   -1.696164
     20          1           0        0.614150   -1.099223   -0.690166
     21          1           0        1.885557   -0.493318   -1.751735
     22          1           0        1.876850   -0.187120    1.292474
     23          1           0        2.574897   -2.577514    1.218850
     24          1           0        3.124440   -2.378560   -0.461067
     25          1           0        5.282580   -1.572086    0.520529
     26          1           0        4.436542   -1.075951    2.002770
     27          1           0        4.121961    0.234604   -0.766538
     28          1           0        3.976807    1.076496    0.793084
     29          1           0       -4.228475   -0.768350    1.622721
     30          1           0       -2.838937   -2.564348   -1.834788
     31          1           0       -1.027196   -0.880667   -2.074954
     32          1           0       -1.990473    1.930355    1.342246
 ---------------------------------------------------------------------

 SCF Done:  E(UB3LYP) =  -727.115647567     A.U. after   32 cycles

 The electronic state is 2-A.
 Alpha  occ. eigenvalues --  -19.00284 -18.95067 -14.21419 -14.14971 -10.12401
 Alpha  occ. eigenvalues --  -10.09569 -10.09120 -10.08625 -10.08114 -10.07975
 Alpha  occ. eigenvalues --  -10.07795 -10.07703 -10.05425 -10.04532 -10.03567
 Alpha  occ. eigenvalues --  -10.03355  -0.92735  -0.89968  -0.81215  -0.78998
 Alpha  occ. eigenvalues --   -0.75589  -0.66284  -0.63040  -0.60743  -0.58925
 Alpha  occ. eigenvalues --   -0.57054  -0.53462  -0.50959  -0.48154  -0.46095
 Alpha  occ. eigenvalues --   -0.44138  -0.40293  -0.39762  -0.38521  -0.37598
 Alpha  occ. eigenvalues --   -0.35938  -0.34874  -0.33358  -0.32423  -0.30397
 Alpha  occ. eigenvalues --   -0.30081  -0.30019  -0.28992  -0.28462  -0.27739
 Alpha  occ. eigenvalues --   -0.27091  -0.26655  -0.25102  -0.24424  -0.23169
 Alpha  occ. eigenvalues --   -0.22632  -0.22040  -0.21606  -0.21363  -0.14893
 Alpha  occ. eigenvalues --   -0.13459  -0.12575  -0.10909  -0.09402   0.04118
 Alpha virt. eigenvalues --    0.05870   0.07685   0.08037   0.08551   0.10227
 Alpha virt. eigenvalues --    0.10409   0.10764   0.11080   0.11426   0.12344
 Alpha virt. eigenvalues --    0.12873   0.13068   0.13671   0.13974   0.14327

  Beta  occ. eigenvalues --  -19.00251 -18.94770 -14.21360 -14.14541 -10.12150
  Beta  occ. eigenvalues --  -10.09558 -10.09049 -10.08624 -10.08104 -10.07974
  Beta  occ. eigenvalues --  -10.07790 -10.07692 -10.05514 -10.04448 -10.03393
  Beta  occ. eigenvalues --  -10.03178  -0.92564  -0.89538  -0.80975  -0.78425
  Beta  occ. eigenvalues --   -0.75556  -0.65743  -0.62989  -0.60449  -0.58745
  Beta  occ. eigenvalues --   -0.57028  -0.53307  -0.50458  -0.47990  -0.46063
  Beta  occ. eigenvalues --   -0.43924  -0.40209  -0.39663  -0.38326  -0.37507
  Beta  occ. eigenvalues --   -0.35764  -0.34621  -0.33175  -0.32298  -0.30254
  Beta  occ. eigenvalues --   -0.29980  -0.29880  -0.28635  -0.28132  -0.27639
  Beta  occ. eigenvalues --   -0.26854  -0.26388  -0.24960  -0.23647  -0.22892
  Beta  occ. eigenvalues --   -0.22112  -0.21866  -0.21537  -0.20976  -0.14020
  Beta  occ. eigenvalues --   -0.12307  -0.11837  -0.10424  -0.08592
  Beta virt. eigenvalues --    0.06193   0.07731   0.08067   0.08597   0.09712
  Beta virt. eigenvalues --    0.10167   0.10452   0.10651   0.11065   0.11464
  Beta virt. eigenvalues --    0.12329   0.12825   0.13369   0.13722   0.13981

 Mulliken charges and spin densities:
               1          2
     1  C   -0.196753  -0.073500
     2  N    0.179304   0.016296
     3  C   -0.473000  -0.360403
     4  C    0.043372   0.457486
     5  C   -0.353343  -0.132372
     6  C   -0.137035  -0.198914
     7  C   -0.080036  -0.354021
     8  C   -1.027225   0.107280
     9  O   -0.390687   0.097702
    10  C    0.942145   0.137636
    11  C   -0.090172   0.033298
    12  C   -0.282353   0.067306
    13  N   -0.140592   0.196028
    14  C   -0.698103  -0.085021
    15  C    0.321795   0.224453
    16  O   -0.281442   0.011054
    17  H    0.158929  -0.000812
    18  H    0.175154   0.015712
    19  H    0.021203   0.102922
    20  H    0.129304   0.020751
    21  H    0.092319   0.082999
    22  H    0.209511   0.009411
    23  H    0.132604   0.009820
    24  H    0.017523   0.102963
    25  H   -0.153237   0.305183
    26  H    0.141463  -0.021473
    27  H   -0.073226   0.214124
    28  H    0.088829   0.031302
    29  H    0.146735  -0.007524
    30  H    0.118686   0.003073
    31  H    0.171230  -0.015915
    32  H    0.287098   0.003154
 Sum of Mulliken charges =  -1.00000   1.00000

 Dipole moment (field-independent basis, Debye):
    X=              6.0877    Y=              0.1654    Z=             -0.2522  Tot=              6.0951
 Quadrupole moment (field-independent basis, Debye-Ang):
   XX=           -163.9189   YY=           -124.8817   ZZ=           -109.1685
   XY=             -3.3472   XZ=              6.8197   YZ=             -1.7157

 Summary of Natural Population Analysis:

                                       Natural Population
                Natural  -----------------------------------------------
    Atom  No    Charge         Core      Valence    Rydberg      Total
 -----------------------------------------------------------------------
      C    1   -0.18034      0.99966     2.17157    0.00911     3.18034
      N    2   -0.24918      0.99965     2.73979    0.00974     3.74918
      C    3   -0.08278      0.99957     2.07145    0.01175     3.08278
      C    4   -0.11437      0.99960     2.10566    0.00911     3.11437
      C    5   -0.18722      0.99964     2.17925    0.00834     3.18722
      C    6   -0.19185      0.99965     2.18383    0.00837     3.19185
      C    7   -0.18958      0.99963     2.18127    0.00868     3.18958
      C    8    0.37902      0.99959     1.60172    0.01967     2.62098
      O    9   -0.32866      0.99987     3.32303    0.00576     4.32866
      C   10   -0.06845      0.99944     2.05695    0.01206     3.06845
      C   11    0.17589      0.99938     1.81258    0.01215     2.82411
      C   12    0.00489      0.99957     1.98040    0.01514     2.99511
      N   13   -0.17649      0.99971     2.66335    0.01343     3.67649
      C   14   -0.02459      0.99959     2.00954    0.01546     3.02459
      C   15   -0.08347      0.99954     2.07630    0.00763     3.08347
      O   16   -0.35312      0.99987     3.34626    0.00699     4.35312
      H   17    0.08961      0.00000     0.40909    0.00130     0.41039
      H   18    0.10664      0.00000     0.39245    0.00091     0.39336
      H   19    0.08992      0.00000     0.40925    0.00083     0.41008
      H   20    0.11529      0.00000     0.38344    0.00126     0.38471
      H   21    0.08737      0.00000     0.41148    0.00115     0.41263
      H   22    0.10109      0.00000     0.39759    0.00131     0.39891
      H   23    0.09685      0.00000     0.40241    0.00074     0.40315
      H   24    0.09525      0.00000     0.40362    0.00113     0.40475
      H   25    0.09434      0.00000     0.40430    0.00137     0.40566
      H   26    0.09300      0.00000     0.40609    0.00091     0.40700
      H   27    0.09617      0.00000     0.40230    0.00152     0.40383
      H   28    0.09607      0.00000     0.40307    0.00085     0.40393
      H   29    0.08213      0.00000     0.41625    0.00162     0.41787
      H   30    0.08028      0.00000     0.41828    0.00145     0.41972
      H   31    0.09482      0.00000     0.40368    0.00150     0.40518
      H   32    0.25144      0.00000     0.24551    0.00304     0.24856
 =======================================================================
   * Total *   -0.00000     15.99397    42.81177    0.19425    59.00000

 Normal termination of Gaussian 16 at Thu Dec 10 22:17:02 2020.
