 Gaussian 16, Revision A.03,

 -----------------------------------------------------------
 # opt freq B3LYP/6-31G(d) empiricaldispersion=gd3bj scf=xqc
 -----------------------------------------------------------

 ------------------------------
 CID_66888743_JID_6176_neutraal
 ------------------------------
 Symbolic Z-matrix:
 Charge =  0 Multiplicity = 1

 SCF Done:  E(RB3LYP) =  -700.789293415     A.U. after   14 cycles
 SCF Done:  E(RB3LYP) =  -700.796829752     A.U. after   12 cycles
 SCF Done:  E(RB3LYP) =  -700.798314342     A.U. after   12 cycles
 SCF Done:  E(RB3LYP) =  -700.799131644     A.U. after   12 cycles
 SCF Done:  E(RB3LYP) =  -700.799641071     A.U. after   13 cycles
 SCF Done:  E(RB3LYP) =  -700.800036590     A.U. after   12 cycles
 SCF Done:  E(RB3LYP) =  -700.800566078     A.U. after   12 cycles
 SCF Done:  E(RB3LYP) =  -700.800739626     A.U. after   12 cycles
 SCF Done:  E(RB3LYP) =  -700.800917501     A.U. after   12 cycles
 SCF Done:  E(RB3LYP) =  -700.800598283     A.U. after   12 cycles
 SCF Done:  E(RB3LYP) =  -700.801850041     A.U. after   10 cycles
 SCF Done:  E(RB3LYP) =  -700.801854560     A.U. after    9 cycles
 SCF Done:  E(RB3LYP) =  -700.801856432     A.U. after    8 cycles
 SCF Done:  E(RB3LYP) =  -700.801856598     A.U. after    7 cycles
 SCF Done:  E(RB3LYP) =  -700.801856633     A.U. after    7 cycles
 Optimization completed.
    -- Stationary point found.
 Normal termination of Gaussian 16 at Thu Dec 10 21:22:34 2020.

 --------------------------------------------------------------------
 #N Geom=AllCheck Guess=TCheck SCRF=Check GenChk RB3LYP/6-31G(d) Freq
 --------------------------------------------------------------------

 Structure from the checkpoint file:  "JID_6176.chk"
 ------------------------------
 CID_66888743_JID_6176_neutraal
 ------------------------------
 Charge =  0 Multiplicity = 1

 SCF Done:  E(RB3LYP) =  -700.801856632     A.U. after    1 cycles

  Exact polarizability: 188.343  -6.548 153.914  -8.260  -1.674  80.009
 Approx polarizability: 280.951 -14.182 255.290 -19.165  -5.754 126.390

                      1                      2                      3
                      A                      A                      A
 Frequencies --     44.5089                53.7205               125.4261
 Red. masses --      4.6765                 4.1559                 4.7282
 Frc consts  --      0.0055                 0.0071                 0.0438
 IR Inten    --      0.7268                 0.5416                 0.2309

                      4                      5                      6
                      A                      A                      A
 Frequencies --    156.0880               213.0975               237.0126
 Red. masses --      3.8377                 3.2534                 4.1772
 Frc consts  --      0.0551                 0.0870                 0.1383
 IR Inten    --      1.2716                 6.3067                 7.4197

                      7                      8                      9
                      A                      A                      A
 Frequencies --    282.4581               313.4551               339.8363
 Red. masses --      5.7157                 4.5354                 4.6857
 Frc consts  --      0.2687                 0.2626                 0.3188
 IR Inten    --      4.7597                 1.3452                 3.9288

                     10                     11                     12
                      A                      A                      A
 Frequencies --    411.4583               456.1456               476.2988
 Red. masses --      2.0238                 3.2258                 1.4599
 Frc consts  --      0.2019                 0.3955                 0.1951
 IR Inten    --      5.7835                13.5366                61.5114

                     13                     14                     15
                      A                      A                      A
 Frequencies --    491.3012               530.4025               566.7922
 Red. masses --      1.9755                 4.8750                 2.7229
 Frc consts  --      0.2809                 0.8080                 0.5154
 IR Inten    --     13.2758                 0.3701                15.2167

                     16                     17                     18
                      A                      A                      A
 Frequencies --    596.3844               626.9000               637.0180
 Red. masses --      6.9882                 3.2710                 5.1779
 Frc consts  --      1.4644                 0.7574                 1.2380
 IR Inten    --      2.1902                 0.5268                 1.6924

                     19                     20                     21
                      A                      A                      A
 Frequencies --    680.7434               687.1188               713.4751
 Red. masses --      3.7792                 5.3305                 1.6298
 Frc consts  --      1.0318                 1.4828                 0.4888
 IR Inten    --     12.7579                 1.8609                66.4749

                     22                     23                     24
                      A                      A                      A
 Frequencies --    765.6656               803.0848               815.2037
 Red. masses --      2.9702                 3.0403                 4.8997
 Frc consts  --      1.0259                 1.1553                 1.9184
 IR Inten    --     50.2637                11.0222                 8.0956

                     25                     26                     27
                      A                      A                      A
 Frequencies --    823.9605               833.2262               853.0635
 Red. masses --      2.9907                 1.4496                 3.7936
 Frc consts  --      1.1963                 0.5930                 1.6265
 IR Inten    --     53.0028                 1.0794                 7.3703

                     28                     29                     30
                      A                      A                      A
 Frequencies --    877.3864               881.3813               923.9354
 Red. masses --      2.2338                 2.5552                 4.9937
 Frc consts  --      1.0132                 1.1695                 2.5116
 IR Inten    --      1.0092                 7.0608                14.3570

                     31                     32                     33
                      A                      A                      A
 Frequencies --    943.5151               954.3422               966.0737
 Red. masses --      2.6449                 3.6882                 2.0252
 Frc consts  --      1.3873                 1.9791                 1.1136
 IR Inten    --     11.5436                 1.1195                 0.5889

                     34                     35                     36
                      A                      A                      A
 Frequencies --    968.0750               985.0558               999.8641
 Red. masses --      1.4436                 1.6098                 2.1453
 Frc consts  --      0.7971                 0.9203                 1.2636
 IR Inten    --      2.5596                 3.3266                12.9452

                     37                     38                     39
                      A                      A                      A
 Frequencies --   1030.7370              1075.7292              1101.0665
 Red. masses --      1.5906                 1.8398                 2.0626
 Frc consts  --      0.9957                 1.2544                 1.4733
 IR Inten    --      4.9906                24.5992                26.4831

                     40                     41                     42
                      A                      A                      A
 Frequencies --   1107.4394              1113.0440              1144.2707
 Red. masses --      1.7431                 1.5586                 2.5625
 Frc consts  --      1.2595                 1.1377                 1.9768
 IR Inten    --     23.4975                15.9562                14.7849

                     43                     44                     45
                      A                      A                      A
 Frequencies --   1154.8793              1173.6644              1202.3086
 Red. masses --      1.2894                 1.6394                 2.6231
 Frc consts  --      1.0132                 1.3305                 2.2340
 IR Inten    --      7.4256                 7.4470                 1.9080

                     46                     47                     48
                      A                      A                      A
 Frequencies --   1216.4881              1232.0863              1247.2074
 Red. masses --      1.2028                 2.2260                 1.9283
 Frc consts  --      1.0487                 1.9910                 1.7673
 IR Inten    --     10.1032                11.1034                17.0824

                     49                     50                     51
                      A                      A                      A
 Frequencies --   1288.6737              1291.1569              1303.2144
 Red. masses --      1.8397                 1.3644                 1.4902
 Frc consts  --      1.8000                 1.3401                 1.4911
 IR Inten    --     14.7641                 5.4607                 5.9238

                     52                     53                     54
                      A                      A                      A
 Frequencies --   1322.3934              1328.4059              1349.8726
 Red. masses --      1.3466                 1.8453                 4.3980
 Frc consts  --      1.3875                 1.9186                 4.7216
 IR Inten    --      0.7847                11.0594                20.4063

                     55                     56                     57
                      A                      A                      A
 Frequencies --   1363.7774              1384.2361              1388.1747
 Red. masses --      1.8118                 2.5154                 1.5205
 Frc consts  --      1.9854                 2.8398                 1.7263
 IR Inten    --     38.7736                55.9171                 5.7134

                     58                     59                     60
                      A                      A                      A
 Frequencies --   1402.2092              1453.5652              1457.6303
 Red. masses --      2.6987                 1.3456                 2.4097
 Frc consts  --      3.1264                 1.6751                 3.0165
 IR Inten    --     24.6834                14.1806                19.5950

                     61                     62                     63
                      A                      A                      A
 Frequencies --   1486.2245              1516.0898              1531.7242
 Red. masses --      3.4837                 1.1515                 2.3859
 Frc consts  --      4.5338                 1.5594                 3.2982
 IR Inten    --     17.2301                48.0161               298.7969

                     64                     65                     66
                      A                      A                      A
 Frequencies --   1539.6173              1546.8404              1555.5316
 Red. masses --      1.4788                 1.0993                 4.3837
 Frc consts  --      2.0653                 1.5498                 6.2495
 IR Inten    --     42.7113                 1.2719                 6.1492

                     67                     68                     69
                      A                      A                      A
 Frequencies --   1619.9201              1635.4660              3040.8904
 Red. masses --      8.4818                 5.5752                 1.0663
 Frc consts  --     13.1137                 8.7860                 5.8096
 IR Inten    --    526.6015               196.4669                48.6234

                     70                     71                     72
                      A                      A                      A
 Frequencies --   3066.0347              3083.4382              3103.3815
 Red. masses --      1.0671                 1.0589                 1.1007
 Frc consts  --      5.9103                 5.9318                 6.2458
 IR Inten    --     39.9066                28.7276                33.8164

                     73                     74                     75
                      A                      A                      A
 Frequencies --   3137.7659              3141.2600              3143.3181
 Red. masses --      1.1078                 1.1006                 1.0899
 Frc consts  --      6.4264                 6.3984                 6.3445
 IR Inten    --     24.1894                15.0551                42.5027

                     76                     77                     78
                      A                      A                      A
 Frequencies --   3180.2190              3187.7753              3274.3942
 Red. masses --      1.0902                 1.0888                 1.0898
 Frc consts  --      6.4962                 6.5188                 6.8842
 IR Inten    --     45.0448                12.0377                 0.7989

                     79                     80                     81
                      A                      A                      A
 Frequencies --   3292.9327              3505.9429              3666.8847
 Red. masses --      1.1023                 1.0756                 1.0803
 Frc consts  --      7.0420                 7.7893                 8.5586
 IR Inten    --      6.5624                 0.8848                82.7806

 - Thermochemistry -
 -------------------
 Temperature   298.150 Kelvin.  Pressure   1.00000 Atm.
 Atom     1 has atomic number  6 and mass  12.00000

 Molecular mass:   215.11710 amu.
 Principal axes and moments of inertia in atomic units:
                           1         2         3
     Eigenvalues --  1555.979384512.289285557.85491
           X            0.99999  -0.00387  -0.00293
           Y            0.00388   0.99999   0.00156
           Z            0.00292  -0.00157   0.99999
 This molecule is an asymmetric top.
 Rotational symmetry number  1.
 Warning -- assumption of classical behavior for rotation
           may cause significant error
 Rotational temperatures (Kelvin)      0.05567     0.01920     0.01558
 Rotational constants (GHZ):           1.15987     0.39996     0.32472
 Zero-point vibrational energy     636541.1 (Joules/Mol)
                                  152.13697 (Kcal/Mol)
 Warning -- explicit consideration of  16 degrees of freedom as
           vibrations may cause significant error
 Vibrational temperatures:     64.04    77.29   180.46   224.58   306.60
          (Kelvin)            341.01   406.39   450.99   488.95   592.00
                              656.29   685.29   706.87   763.13   815.49
                              858.06   901.97   916.53   979.44   988.61
                             1026.53  1101.62  1155.46  1172.90  1185.50
                             1198.83  1227.37  1262.36  1268.11  1329.34
                             1357.51  1373.09  1389.96  1392.84  1417.28
                             1438.58  1483.00  1547.73  1584.19  1593.36
                             1601.42  1646.35  1661.61  1688.64  1729.85
                             1750.26  1772.70  1794.45  1854.11  1857.69
                             1875.03  1902.63  1911.28  1942.17  1962.17
                             1991.61  1997.27  2017.47  2091.36  2097.20
                             2138.35  2181.32  2203.81  2215.17  2225.56
                             2238.06  2330.70  2353.07  4375.16  4411.34
                             4436.38  4465.07  4514.55  4519.57  4522.53
                             4575.63  4586.50  4711.12  4737.80  5044.27
                             5275.83

 Zero-point correction=                           0.242446 (Hartree/Particle)
 Thermal correction to Energy=                    0.253996
 Thermal correction to Enthalpy=                  0.254940
 Thermal correction to Gibbs Free Energy=         0.204154
 Sum of electronic and zero-point Energies=           -700.559411
 Sum of electronic and thermal Energies=              -700.547861
 Sum of electronic and thermal Enthalpies=            -700.546917
 Sum of electronic and thermal Free Energies=         -700.597703

                     E (Thermal)             CV                S
                      KCal/Mol        Cal/Mol-Kelvin    Cal/Mol-Kelvin
 Total                  159.385             48.101            106.888
 Electronic               0.000              0.000              0.000
 Translational            0.889              2.981             42.001
 Rotational               0.889              2.981             32.034
 Vibrational            157.607             42.140             32.852
 Vibration     1          0.595              1.980              5.048
 Vibration     2          0.596              1.976              4.676
 Vibration     3          0.610              1.928              3.015
 Vibration     4          0.620              1.896              2.597
 Vibration     5          0.644              1.821              2.017
 Vibration     6          0.656              1.784              1.825
 Vibration     7          0.681              1.706              1.519
 Vibration     8          0.701              1.648              1.344
 Vibration     9          0.720              1.596              1.213
 Vibration    10          0.775              1.445              0.921
 Vibration    11          0.814              1.347              0.777
 Vibration    12          0.833              1.303              0.720
 Vibration    13          0.847              1.269              0.680
 Vibration    14          0.885              1.183              0.586
 Vibration    15          0.923              1.103              0.510
 Vibration    16          0.954              1.039              0.456

 Optimization completed.
    -- Stationary point found.
 Normal termination of Gaussian 16 at Thu Dec 10 21:32:47 2020.

 ----------------------------------------------------------------------
 # B3LYP/6-311++G(d,p) empiricaldispersion=gd3bj scf=xqc pop=npa geom=c
 heck
 ----------------------------------------------------------------------

 --------------------------------------
 CID_66888743_JID_6176_Energie_neutraal
 --------------------------------------
 Structure from the checkpoint file:  "JID_6176.chk"
 Charge =  0 Multiplicity = 1

 SCF Done:  E(RB3LYP) =  -700.987720086     A.U. after   15 cycles
 Normal termination of Gaussian 16 at Thu Dec 10 21:37:17 2020.

 ----------------------------------------------------------------------
 # B3LYP/6-311++G(d,p) empiricaldispersion=gd3bj scf=xqc pop=npa geom=c
 heck
 ----------------------------------------------------------------------

 ------------------------------------
 CID_66888743_JID_6176_Energie_kation
 ------------------------------------
 Structure from the checkpoint file:  "JID_6176.chk"
 Charge =  1 Multiplicity = 2

 SCF Done:  E(UB3LYP) =  -700.722780848     A.U. after   23 cycles
 Normal termination of Gaussian 16 at Thu Dec 10 21:47:00 2020.
 Gaussian 16:  ES64L-G16RevA.03 25-Dec-2016

 ----------------------------------------------------------------------
 # B3LYP/6-311++G(d,p) empiricaldispersion=gd3bj scf=xqc pop=npa geom=c
 heck
 ----------------------------------------------------------------------

 -----------------------------------
 CID_66888743_JID_6176_Energie_anion
 -----------------------------------
 Structure from the checkpoint file:  "JID_6176.chk"
 Charge = -1 Multiplicity = 2

                         Standard orientation:
 ---------------------------------------------------------------------
 Center     Atomic      Atomic             Coordinates (Angstroms)
 Number     Number       Type             X           Y           Z
 ---------------------------------------------------------------------
      1          6           0       -3.006391   -0.537280    1.105031
      2          6           0       -1.637673   -0.915356    0.518282
      3          6           0       -2.019185   -1.300364   -0.929080
      4          7           0       -3.066643   -0.285846   -1.268670
      5          6           0       -3.257741    0.491082   -0.015686
      6          6           0       -2.032648    1.404566    0.138223
      7          7           0       -0.992805    0.403996    0.468895
      8          6           0        0.323997    0.642097    0.217505
      9          7           0        0.659176    1.935725    0.035798
     10          6           0        1.946182    2.245712   -0.170490
     11          7           0        2.994229    1.426180   -0.229123
     12          6           0        2.636790    0.144282   -0.065802
     13          6           0        1.331257   -0.360968    0.157414
     14          6           0        1.453836   -1.795077    0.232300
     15          6           0        2.781013   -2.095150    0.065647
     16          7           0        3.495573   -0.922259   -0.109392
     17          1           0       -2.931785   -0.110873    2.109276
     18          1           0       -3.719393   -1.367567    1.099931
     19          1           0       -1.050216   -1.641188    1.074739
     20          1           0       -2.401953   -2.327786   -0.987601
     21          1           0       -1.158419   -1.215899   -1.599487
     22          1           0       -3.936583   -0.763389   -1.491897
     23          1           0       -4.210463    1.022670   -0.017727
     24          1           0       -1.787965    1.929026   -0.787220
     25          1           0       -2.145693    2.139571    0.943271
     26          1           0        2.155920    3.304963   -0.306859
     27          1           0        0.674791   -2.527467    0.374915
     28          1           0        3.280834   -3.052554    0.055009
     29          1           0        4.487598   -0.835347   -0.268965
 ---------------------------------------------------------------------

 SCF Done:  E(UB3LYP) =  -700.979690083     A.U. after   33 cycles
 SCF Done:  E(UB3LYP) =  -700.979690083     a.u. after    1 cycles

 The electronic state is 2-A.
 Alpha  occ. eigenvalues --  -14.26951 -14.24440 -14.20956 -14.20402 -14.20224
 Alpha  occ. eigenvalues --  -10.16085 -10.14388 -10.13594 -10.12154 -10.11553
 Alpha  occ. eigenvalues --  -10.11166 -10.10539 -10.09838 -10.08702 -10.07953
 Alpha  occ. eigenvalues --  -10.07754  -0.91473  -0.89451  -0.86076  -0.81473
 Alpha  occ. eigenvalues --   -0.76975  -0.70625  -0.67809  -0.66460  -0.64296
 Alpha  occ. eigenvalues --   -0.58578  -0.55181  -0.53791  -0.50877  -0.50662
 Alpha  occ. eigenvalues --   -0.48283  -0.45728  -0.44582  -0.41409  -0.39394
 Alpha  occ. eigenvalues --   -0.38559  -0.37198  -0.35863  -0.35014  -0.34367
 Alpha  occ. eigenvalues --   -0.33643  -0.32489  -0.31621  -0.30644  -0.29301
 Alpha  occ. eigenvalues --   -0.28423  -0.27506  -0.27022  -0.26355  -0.25549
 Alpha  occ. eigenvalues --   -0.23290  -0.20330  -0.16829  -0.16474  -0.16045
 Alpha  occ. eigenvalues --   -0.13940  -0.11038   0.03733
 Alpha virt. eigenvalues --    0.05202   0.06859   0.07195   0.07893   0.08321
 Alpha virt. eigenvalues --    0.08619   0.09389   0.09767   0.10160   0.10542
 Alpha virt. eigenvalues --    0.11133   0.11515   0.12544   0.12820   0.13510

  Beta  occ. eigenvalues --  -14.26929 -14.24439 -14.20949 -14.20383 -14.20224
  Beta  occ. eigenvalues --  -10.16079 -10.14388 -10.13593 -10.12148 -10.11530
  Beta  occ. eigenvalues --  -10.11153 -10.10535 -10.09816 -10.08700 -10.07944
  Beta  occ. eigenvalues --  -10.07723  -0.91455  -0.89431  -0.86057  -0.81446
  Beta  occ. eigenvalues --   -0.76961  -0.70598  -0.67775  -0.66430  -0.64266
  Beta  occ. eigenvalues --   -0.58540  -0.55152  -0.53762  -0.50835  -0.50617
  Beta  occ. eigenvalues --   -0.48237  -0.45686  -0.44542  -0.41370  -0.39368
  Beta  occ. eigenvalues --   -0.38518  -0.37165  -0.35837  -0.34992  -0.34340
  Beta  occ. eigenvalues --   -0.33618  -0.32453  -0.31590  -0.30618  -0.29279
  Beta  occ. eigenvalues --   -0.28384  -0.27479  -0.26987  -0.26322  -0.25517
  Beta  occ. eigenvalues --   -0.23267  -0.20315  -0.16815  -0.16467  -0.16031
  Beta  occ. eigenvalues --   -0.13914  -0.11025
  Beta virt. eigenvalues --    0.06272   0.06724   0.06905   0.07963   0.08542
  Beta virt. eigenvalues --    0.08739   0.09252   0.09397   0.10177   0.10815
  Beta virt. eigenvalues --    0.10943   0.11248   0.11782   0.12609   0.12864

 Mulliken charges and spin densities:
               1          2
     1  C    1.461914  -2.290112
     2  C   -1.229108   1.856980
     3  C    1.116650  -1.904221
     4  N   -0.095040  -0.061377
     5  C   -0.558148   0.648040
     6  C    0.260726  -0.650103
     7  N    0.162794  -0.083537
     8  C    0.073978  -0.658598
     9  N   -0.130961  -0.010766
    10  C    0.248540  -0.173690
    11  N   -0.134419  -0.008788
    12  C   -0.760028   0.513698
    13  C    0.830945   0.164937
    14  C    0.350975  -1.057910
    15  C    0.099975  -0.464413
    16  N   -0.266558   0.060412
    17  H   -0.018815   0.168513
    18  H   -0.686167   0.880707
    19  H   -0.164636   0.434773
    20  H   -0.581577   0.752500
    21  H    0.270139  -0.081229
    22  H    0.002389   0.252586
    23  H   -0.495283   0.747648
    24  H    0.232507  -0.033978
    25  H    0.061654   0.107527
    26  H    0.187259   0.002900
    27  H    0.008478   0.115174
    28  H   -1.119971   1.310194
    29  H   -0.128214   0.462133
 Sum of Mulliken charges =  -1.00000   1.00000

 Dipole moment (field-independent basis, Debye):
    X=              1.5533    Y=              4.9777    Z=              0.3324  Tot=              5.2250
 Quadrupole moment (field-independent basis, Debye-Ang):
   XX=           -186.0983   YY=           -144.9457   ZZ=           -121.8825
   XY=             -0.3874   XZ=             -0.2160   YZ=              1.2117

 Summary of Natural Population Analysis:

                                       Natural Population
                Natural  -----------------------------------------------
    Atom  No    Charge         Core      Valence    Rydberg      Total
 -----------------------------------------------------------------------
      C    1   -0.19692      0.99961     2.18782    0.00949     3.19692
      C    2   -0.01369      0.99959     1.99912    0.01497     3.01369
      C    3   -0.09608      0.99961     2.08573    0.01075     3.09608
      N    4   -0.34553      0.99976     2.83363    0.01213     3.84553
      C    5   -0.02001      0.99960     2.00498    0.01543     3.02001
      C    6   -0.08395      0.99961     2.07283    0.01152     3.08395
      N    7   -0.24109      0.99964     2.73109    0.01037     3.74109
      C    8    0.23320      0.99949     1.75347    0.01384     2.76680
      N    9   -0.28602      0.99968     2.77788    0.00846     3.78602
      C   10    0.14057      0.99968     1.84066    0.01909     2.85943
      N   11   -0.27516      0.99967     2.76588    0.00960     3.77516
      C   12    0.19215      0.99950     1.79132    0.01703     2.80785
      C   13   -0.10036      0.99945     2.09244    0.00847     3.10036
      C   14   -0.13909      0.99955     2.13043    0.00911     3.13909
      C   15   -0.00017      0.99957     1.98775    0.01285     3.00017
      N   16   -0.27258      0.99965     2.76287    0.01007     3.77258
      H   17    0.10393      0.00000     0.39495    0.00112     0.39607
      H   18    0.10810      0.00000     0.38863    0.00327     0.39190
      H   19    0.11042      0.00000     0.38753    0.00205     0.38958
      H   20    0.09644      0.00000     0.40121    0.00236     0.40356
      H   21    0.09565      0.00000     0.40285    0.00150     0.40435
      H   22    0.18004      0.00000     0.31676    0.00320     0.31996
      H   23    0.10477      0.00000     0.39387    0.00136     0.39523
      H   24    0.10815      0.00000     0.39039    0.00146     0.39185
      H   25    0.09748      0.00000     0.40128    0.00124     0.40252
      H   26    0.07973      0.00000     0.41927    0.00100     0.42027
      H   27    0.10921      0.00000     0.38961    0.00118     0.39079
      H   28    0.10519      0.00000     0.39148    0.00333     0.39481
      H   29    0.20559      0.00000     0.29056    0.00385     0.29441
 =======================================================================
   * Total *   -0.00000     15.99366    40.78626    0.22008    57.00000

 Normal termination of Gaussian 16 at Thu Dec 10 22:00:59 2020.
