 Gaussian 16, Revision A.03,

 -----------------------------------------------------------
 # opt freq B3LYP/6-31G(d) empiricaldispersion=gd3bj scf=xqc
 -----------------------------------------------------------

 -----------------------------
 CID_21422112_JID_758_neutraal
 -----------------------------
 Symbolic Z-matrix:
 Charge =  0 Multiplicity = 1

 SCF Done:  E(RB3LYP) =  -469.892578759     A.U. after   15 cycles
 SCF Done:  E(RB3LYP) =  -469.899286811     A.U. after   13 cycles
 SCF Done:  E(RB3LYP) =  -469.899922981     A.U. after   12 cycles
 SCF Done:  E(RB3LYP) =  -469.899978063     A.U. after   10 cycles
 SCF Done:  E(RB3LYP) =  -469.899992139     A.U. after   10 cycles
 SCF Done:  E(RB3LYP) =  -469.899993255     A.U. after    8 cycles
 Optimization completed.
    -- Stationary point found.
 Normal termination of Gaussian 16 at Tue Dec  8 12:26:21 2020.

 --------------------------------------------------------------------
 #N Geom=AllCheck Guess=TCheck SCRF=Check GenChk RB3LYP/6-31G(d) Freq
 --------------------------------------------------------------------

 Structure from the checkpoint file:  "JID_758.chk"
 -----------------------------
 CID_21422112_JID_758_neutraal
 -----------------------------
 Charge =  0 Multiplicity = 1

 SCF Done:  E(RB3LYP) =  -469.899993255     A.U. after    1 cycles

  Exact polarizability: 109.049   0.191  83.466   0.000   0.000  30.417
 Approx polarizability: 192.670  15.371 162.984   0.002   0.002  48.529

                      1                      2                      3
                      A                      A                      A
 Frequencies --    124.6923               201.7284               292.3135
 Red. masses --      9.2891                 6.2300                 9.4412
 Frc consts  --      0.0851                 0.1494                 0.4753
 IR Inten    --      1.1526                 0.0867                 1.9287

                      4                      5                      6
                      A                      A                      A
 Frequencies --    318.7410               432.9543               509.9986
 Red. masses --      3.8768                10.9040                 6.9044
 Frc consts  --      0.2321                 1.2043                 1.0581
 IR Inten    --      0.2088                22.9909                 0.3970

                      7                      8                      9
                      A                      A                      A
 Frequencies --    535.9313               583.4810               618.6192
 Red. masses --      2.7560                10.4054                 8.6896
 Frc consts  --      0.4664                 2.0872                 1.9593
 IR Inten    --      1.2192                 0.4175                 1.4627

                     10                     11                     12
                      A                      A                      A
 Frequencies --    725.3798               754.2667               769.6053
 Red. masses --     10.9031                 6.7426                 9.5580
 Frc consts  --      3.3801                 2.2601                 3.3354
 IR Inten    --      0.4478                11.8241                 4.6790

                     13                     14                     15
                      A                      A                      A
 Frequencies --    790.6043               882.3351               903.5010
 Red. masses --      5.0271                 1.3043                 6.5476
 Frc consts  --      1.8514                 0.5983                 3.1491
 IR Inten    --      1.8602                 6.0168                10.9279

                     16                     17                     18
                      A                      A                      A
 Frequencies --    963.7592               990.2069              1006.2073
 Red. masses --      1.6228                 1.4694                 5.6023
 Frc consts  --      0.8881                 0.8489                 3.3419
 IR Inten    --      7.5292                 0.3443               106.3798

                     19                     20                     21
                      A                      A                      A
 Frequencies --   1081.7592              1149.8068              1223.8410
 Red. masses --      2.8215                 5.5957                 3.7426
 Frc consts  --      1.9453                 4.3586                 3.3027
 IR Inten    --     27.7081                 9.5362                 3.0702

                     22                     23                     24
                      A                      A                      A
 Frequencies --   1284.3738              1305.0489              1362.9873
 Red. masses --      1.7633                 2.0959                 3.5666
 Frc consts  --      1.7138                 2.1032                 3.9038
 IR Inten    --      4.2254                 8.9974                37.1963

                     25                     26                     27
                      A                      A                      A
 Frequencies --   1406.3772              1505.9923              1597.4707
 Red. masses --      2.2123                 2.2582                10.3837
 Frc consts  --      2.5781                 3.0176                15.6123
 IR Inten    --     20.6322                 2.4617                58.5155

                     28                     29                     30
                      A                      A                      A
 Frequencies --   1605.5144              1661.4162              1875.6658
 Red. masses --      8.4868                 7.2580                13.0244
 Frc consts  --     12.8892                11.8039                26.9972
 IR Inten    --      4.3953                11.6235               193.3999

                     31                     32                     33
                      A                      A                      A
 Frequencies --   3196.4126              3196.9427              3213.5665
 Red. masses --      1.0955                 1.0887                 1.0963
 Frc consts  --      6.5943                 6.5556                 6.6705
 IR Inten    --     15.2980                 2.0335                24.8190

 - Thermochemistry -
 -------------------
 Temperature   298.150 Kelvin.  Pressure   1.00000 Atm.
 Atom     1 has atomic number  6 and mass  12.00000

 Molecular mass:   133.02761 amu.
 Principal axes and moments of inertia in atomic units:
                           1         2         3
     Eigenvalues --   609.989621342.377951952.36757
           X            0.99956  -0.02965  -0.00000
           Y            0.02965   0.99956  -0.00000
           Z            0.00000   0.00000   1.00000
 This molecule is an asymmetric top.
 Rotational symmetry number  1.
 Warning -- assumption of classical behavior for rotation
           may cause significant error
 Rotational temperatures (Kelvin)      0.14199     0.06452     0.04436
 Rotational constants (GHZ):           2.95864     1.34444     0.92439
 Zero-point vibrational energy     227718.1 (Joules/Mol)
                                   54.42594 (Kcal/Mol)
 Warning -- explicit consideration of   9 degrees of freedom as
           vibrations may cause significant error
 Vibrational temperatures:    179.40   290.24   420.57   458.60   622.92
          (Kelvin)            733.77   771.09   839.50   890.06  1043.66
                             1085.22  1107.29  1137.50  1269.48  1299.94
                             1386.63  1424.69  1447.71  1556.41  1654.32
                             1760.83  1847.93  1877.67  1961.03  2023.46
                             2166.79  2298.40  2309.98  2390.41  2698.66
                             4598.92  4599.69  4623.61

 Zero-point correction=                           0.086733 (Hartree/Particle)
 Thermal correction to Energy=                    0.093361
 Thermal correction to Enthalpy=                  0.094305
 Thermal correction to Gibbs Free Energy=         0.055275
 Sum of electronic and zero-point Energies=           -469.813260
 Sum of electronic and thermal Energies=              -469.806632
 Sum of electronic and thermal Enthalpies=            -469.805688
 Sum of electronic and thermal Free Energies=         -469.844719

                     E (Thermal)             CV                S
                      KCal/Mol        Cal/Mol-Kelvin    Cal/Mol-Kelvin
 Total                   58.585             25.476             82.147
 Electronic               0.000              0.000              0.000
 Translational            0.889              2.981             40.569
 Rotational               0.889              2.981             28.860
 Vibrational             56.807             19.514             12.718
 Vibration     1          0.610              1.928              3.026
 Vibration     2          0.639              1.837              2.117
 Vibration     3          0.688              1.688              1.461
 Vibration     4          0.705              1.638              1.317
 Vibration     5          0.794              1.398              0.849
 Vibration     6          0.865              1.228              0.634
 Vibration     7          0.891              1.171              0.574
 Vibration     8          0.940              1.067              0.479
 Vibration     9          0.978              0.993              0.419

 Optimization completed.
    -- Stationary point found.
 Normal termination of Gaussian 16 at Tue Dec  8 12:30:04 2020.

 ----------------------------------------------------------------------
 # B3LYP/6-311++G(d,p) empiricaldispersion=gd3bj scf=xqc pop=npa geom=c
 heck
 ----------------------------------------------------------------------

 -------------------------------------
 CID_21422112_JID_758_Energie_neutraal
 -------------------------------------
 Structure from the checkpoint file:  "JID_758.chk"
 Charge =  0 Multiplicity = 1

 SCF Done:  E(RB3LYP) =  -470.023255497     A.U. after   15 cycles
 Normal termination of Gaussian 16 at Tue Dec  8 12:32:33 2020.

 ----------------------------------------------------------------------
 # B3LYP/6-311++G(d,p) empiricaldispersion=gd3bj scf=xqc pop=npa geom=c
 heck
 ----------------------------------------------------------------------

 -----------------------------------
 CID_21422112_JID_758_Energie_kation
 -----------------------------------
 Structure from the checkpoint file:  "JID_758.chk"
 Charge =  1 Multiplicity = 2

 SCF Done:  E(UB3LYP) =  -469.673689427     A.U. after   23 cycles
 Normal termination of Gaussian 16 at Tue Dec  8 12:40:04 2020.
 Gaussian 16:  ES64L-G16RevA.03 25-Dec-2016

 ----------------------------------------------------------------------
 # B3LYP/6-311++G(d,p) empiricaldispersion=gd3bj scf=xqc pop=npa geom=c
 heck
 ----------------------------------------------------------------------

 ----------------------------------
 CID_21422112_JID_758_Energie_anion
 ----------------------------------
 Structure from the checkpoint file:  "JID_758.chk"
 Charge = -1 Multiplicity = 2

                         Standard orientation:
 ---------------------------------------------------------------------
 Center     Atomic      Atomic             Coordinates (Angstroms)
 Number     Number       Type             X           Y           Z
 ---------------------------------------------------------------------
      1          6           0        2.423035    0.259627   -0.000004
      2          6           0        2.034971   -1.087035   -0.000014
      3          7           0        0.745498   -1.481514   -0.000011
      4          6           0       -0.108088   -0.468345    0.000018
      5          6           0        0.278230    0.873161    0.000019
      6          7           0        1.542348    1.279857    0.000006
      7          6           0       -0.984609    1.659777   -0.000001
      8          7           0       -2.051491    0.935792   -0.000046
      9          6           0       -1.622701   -0.463353    0.000097
     10          8           0       -2.377317   -1.397715   -0.000031
     11          1           0        3.476728    0.525524   -0.000019
     12          1           0        2.785162   -1.873126   -0.000029
     13          1           0       -1.022853    2.747404   -0.000041
 ---------------------------------------------------------------------

 SCF Done:  E(UB3LYP) =  -470.090124137     A.U. after   23 cycles

 The electronic state is 2-A.
 Alpha  occ. eigenvalues --  -18.93247 -14.19185 -14.19000 -14.14171 -10.09034
 Alpha  occ. eigenvalues --  -10.07689 -10.07454 -10.06013 -10.05365 -10.04784
 Alpha  occ. eigenvalues --   -0.88332  -0.84325  -0.77483  -0.76857  -0.62995
 Alpha  occ. eigenvalues --   -0.53855  -0.52845  -0.46985  -0.40413  -0.38081
 Alpha  occ. eigenvalues --   -0.34758  -0.33399  -0.30595  -0.28875  -0.27255
 Alpha  occ. eigenvalues --   -0.25082  -0.25050  -0.20646  -0.18284  -0.17503
 Alpha  occ. eigenvalues --   -0.13597  -0.12725  -0.11975  -0.07989   0.00436
 Alpha virt. eigenvalues --    0.07368   0.08840   0.10986   0.11617   0.13772
 Alpha virt. eigenvalues --    0.15143   0.16023   0.16559   0.18405   0.18744
 Alpha virt. eigenvalues --    0.18787   0.19518   0.19717   0.20082   0.21499

  Beta  occ. eigenvalues --  -18.92576 -14.19212 -14.19053 -14.14024 -10.08896
  Beta  occ. eigenvalues --  -10.07605 -10.07344 -10.05864 -10.05136 -10.04427
  Beta  occ. eigenvalues --   -0.87268  -0.84089  -0.77238  -0.76390  -0.62608
  Beta  occ. eigenvalues --   -0.53349  -0.52296  -0.46329  -0.40110  -0.37904
  Beta  occ. eigenvalues --   -0.34431  -0.32966  -0.29498  -0.28615  -0.26923
  Beta  occ. eigenvalues --   -0.24540  -0.23222  -0.19771  -0.18282  -0.15013
  Beta  occ. eigenvalues --   -0.13329  -0.12409  -0.10782  -0.07589
  Beta virt. eigenvalues --    0.07376   0.07861   0.08830   0.10975   0.11608
  Beta virt. eigenvalues --    0.15093   0.15172   0.16276   0.16559   0.18412
  Beta virt. eigenvalues --    0.18738   0.19209   0.19516   0.20099   0.20114

 Mulliken charges and spin densities:
               1          2
     1  C   -0.013933   0.059068
     2  C   -0.030405   0.082612
     3  N   -0.093360  -0.029508
     4  C    0.214826   0.150632
     5  C   -0.236128   0.129170
     6  N   -0.085585  -0.014783
     7  C   -0.298148   0.241213
     8  N   -0.205347   0.069325
     9  C   -0.286139   0.110330
    10  O   -0.393579   0.236068
    11  H    0.148232  -0.004751
    12  H    0.151261  -0.006131
    13  H    0.128304  -0.023245
 Sum of Mulliken charges =  -1.00000   1.00000

 Dipole moment (field-independent basis, Debye):
    X=              5.7998    Y=              1.2128    Z=              0.0002  Tot=              5.9253
 Quadrupole moment (field-independent basis, Debye-Ang):
   XX=            -83.1197   YY=            -74.6187   ZZ=            -60.2898
   XY=             -6.5245   XZ=             -0.0006   YZ=             -0.0001

 Summary of Natural Population Analysis:

                                       Natural Population
                Natural  -----------------------------------------------
    Atom  No    Charge         Core      Valence    Rydberg      Total
 -----------------------------------------------------------------------
      C    1    0.00245      0.99961     1.98403    0.01391     2.99755
      C    2    0.00673      0.99961     1.97974    0.01393     2.99327
      N    3   -0.21477      0.99969     2.70361    0.01146     3.71477
      C    4    0.09559      0.99940     1.88922    0.01579     2.90441
      C    5    0.08898      0.99947     1.89571    0.01584     2.91102
      N    6   -0.22559      0.99969     2.71396    0.01194     3.72559
      C    7    0.11874      0.99964     1.86649    0.01513     2.88126
      N    8   -0.23826      0.99971     2.72621    0.01234     3.73826
      C    9    0.32153      0.99967     1.65009    0.02871     2.67847
      O   10   -0.19442      0.99986     3.18702    0.00754     4.19442
      H   11    0.08181      0.00000     0.41681    0.00138     0.41819
      H   12    0.08206      0.00000     0.41660    0.00133     0.41794
      H   13    0.07514      0.00000     0.42288    0.00197     0.42486
 =======================================================================
   * Total *    0.00000      9.99635    23.85237    0.15128    34.00000

 Normal termination of Gaussian 16 at Tue Dec  8 12:44:08 2020.
