 Gaussian 16, Revision A.03,

 -----------------------------------------------------------
 # opt freq B3LYP/6-31G(d) empiricaldispersion=gd3bj scf=xqc
 -----------------------------------------------------------

 -------------------------------
 CID_112717798_JID_7619_neutraal
 -------------------------------
 Symbolic Z-matrix:
 Charge =  0 Multiplicity = 1

 SCF Done:  E(RB3LYP) =  -803.240354759     A.U. after   17 cycles
 SCF Done:  E(RB3LYP) =  -803.241837606     A.U. after   14 cycles
 SCF Done:  E(RB3LYP) =  -803.241538409     A.U. after   13 cycles
 SCF Done:  E(RB3LYP) =  -803.240320028     A.U. after   14 cycles
 SCF Done:  E(RB3LYP) =  -803.238003134     A.U. after   14 cycles
 SCF Done:  E(RB3LYP) =  -803.242109702     A.U. after    9 cycles
 SCF Done:  E(RB3LYP) =  -803.243897707     A.U. after   14 cycles
 SCF Done:  E(RB3LYP) =  -803.243890814     A.U. after   13 cycles
 SCF Done:  E(RB3LYP) =  -803.244263298     A.U. after   13 cycles
 SCF Done:  E(RB3LYP) =  -803.244338752     A.U. after   12 cycles
 SCF Done:  E(RB3LYP) =  -803.244373974     A.U. after   11 cycles
 SCF Done:  E(RB3LYP) =  -803.244382974     A.U. after   11 cycles
 SCF Done:  E(RB3LYP) =  -803.244386923     A.U. after   10 cycles
 SCF Done:  E(RB3LYP) =  -803.244388244     A.U. after    9 cycles
 SCF Done:  E(RB3LYP) =  -803.244388468     A.U. after    8 cycles
 Optimization completed.
    -- Stationary point found.
 Normal termination of Gaussian 16 at Sun Dec 13 20:18:36 2020.

 --------------------------------------------------------------------
 #N Geom=AllCheck Guess=TCheck SCRF=Check GenChk RB3LYP/6-31G(d) Freq
 --------------------------------------------------------------------

 Structure from the checkpoint file:  "JID_7619.chk"
 -------------------------------
 CID_112717798_JID_7619_neutraal
 -------------------------------
 Charge =  0 Multiplicity = 1

 SCF Done:  E(RB3LYP) =  -803.244388468     A.U. after    1 cycles

  Exact polarizability: 194.487 -21.656 117.023  -6.893 -10.090 134.516
 Approx polarizability: 264.629 -42.193 176.034 -15.905 -33.881 253.769

                      1                      2                      3
                      A                      A                      A
 Frequencies --     26.4810                38.4337                44.3235
 Red. masses --      4.9242                 6.6839                 7.6618
 Frc consts  --      0.0020                 0.0058                 0.0089
 IR Inten    --      1.3488                 1.0407                 1.0641

                      4                      5                      6
                      A                      A                      A
 Frequencies --     75.4814               102.0147               118.0194
 Red. masses --      4.7200                 2.7939                 4.6272
 Frc consts  --      0.0158                 0.0171                 0.0380
 IR Inten    --      0.2878                 8.3470                 1.0814

                      7                      8                      9
                      A                      A                      A
 Frequencies --    142.8441               152.5025               170.0565
 Red. masses --      4.7433                 4.1722                 4.2049
 Frc consts  --      0.0570                 0.0572                 0.0716
 IR Inten    --      1.2472                 6.0293                 2.5917

                     10                     11                     12
                      A                      A                      A
 Frequencies --    189.6599               233.4741               261.8316
 Red. masses --      2.7762                 1.3853                 2.3685
 Frc consts  --      0.0588                 0.0445                 0.0957
 IR Inten    --      0.2898                21.8587                 2.6744

                     13                     14                     15
                      A                      A                      A
 Frequencies --    266.7844               277.7963               287.2917
 Red. masses --      1.0794                 2.9808                 3.9163
 Frc consts  --      0.0453                 0.1355                 0.1904
 IR Inten    --    164.2440                 6.4189                 0.2181

                     16                     17                     18
                      A                      A                      A
 Frequencies --    307.2326               313.1949               355.3583
 Red. masses --      1.8012                 1.6887                 2.4029
 Frc consts  --      0.1002                 0.0976                 0.1788
 IR Inten    --      3.3598                 2.1605                11.6101

                     19                     20                     21
                      A                      A                      A
 Frequencies --    406.8777               421.1665               427.6684
 Red. masses --      2.9625                 3.2004                 3.3400
 Frc consts  --      0.2890                 0.3345                 0.3599
 IR Inten    --      0.9441                 0.1281                 0.6008

                     22                     23                     24
                      A                      A                      A
 Frequencies --    471.0789               497.9195               540.8341
 Red. masses --      3.7997                 3.3801                 6.2475
 Frc consts  --      0.4968                 0.4937                 1.0767
 IR Inten    --      1.4386                 8.1423                 1.8421

                     25                     26                     27
                      A                      A                      A
 Frequencies --    587.3688               615.0242               628.3276
 Red. masses --      2.9932                 4.1405                 2.6850
 Frc consts  --      0.6084                 0.9227                 0.6245
 IR Inten    --      2.9551                 9.2543                 0.8026

                     28                     29                     30
                      A                      A                      A
 Frequencies --    649.8807               715.1215               752.5921
 Red. masses --      6.6367                 3.5633                 4.7807
 Frc consts  --      1.6515                 1.0736                 1.5954
 IR Inten    --      0.1973                17.4254                 3.2515

                     31                     32                     33
                      A                      A                      A
 Frequencies --    763.9272               810.2251               854.1576
 Red. masses --      4.4496                 2.7941                 1.3670
 Frc consts  --      1.5299                 1.0807                 0.5876
 IR Inten    --     15.9685                 7.2979                32.5377

                     34                     35                     36
                      A                      A                      A
 Frequencies --    860.0909               872.0235               877.7548
 Red. masses --      1.4689                 4.6569                 1.6865
 Frc consts  --      0.6402                 2.0864                 0.7656
 IR Inten    --     27.8131                37.7720                14.8520

                     37                     38                     39
                      A                      A                      A
 Frequencies --    900.4827               929.4686               943.6626
 Red. masses --      1.9206                 1.7970                 1.8846
 Frc consts  --      0.9176                 0.9147                 0.9888
 IR Inten    --     34.2796                29.2373                14.8417

                     40                     41                     42
                      A                      A                      A
 Frequencies --    971.7557               985.9204               991.6705
 Red. masses --      1.7058                 1.3311                 1.3040
 Frc consts  --      0.9491                 0.7623                 0.7556
 IR Inten    --      9.0866                 0.0530                 0.4041

                     43                     44                     45
                      A                      A                      A
 Frequencies --   1028.1405              1035.7586              1046.1462
 Red. masses --      1.5060                 2.5293                 1.8852
 Frc consts  --      0.9379                 1.5987                 1.2156
 IR Inten    --     24.4009                 3.3029                 0.3700

                     46                     47                     48
                      A                      A                      A
 Frequencies --   1074.6536              1094.1190              1112.2759
 Red. masses --      5.0943                 1.7386                 1.9978
 Frc consts  --      3.4663                 1.2263                 1.4562
 IR Inten    --    113.4409                 7.4139                11.8936

                     49                     50                     51
                      A                      A                      A
 Frequencies --   1120.2103              1140.2057              1141.7703
 Red. masses --      1.7614                 2.6704                 1.7500
 Frc consts  --      1.3023                 2.0455                 1.3441
 IR Inten    --      9.6583                20.5854                34.1151

                     52                     53                     54
                      A                      A                      A
 Frequencies --   1160.0116              1191.4289              1213.8221
 Red. masses --      1.6488                 1.6578                 1.4681
 Frc consts  --      1.3072                 1.3865                 1.2744
 IR Inten    --      3.2510                 0.2626                 3.1330

                     55                     56                     57
                      A                      A                      A
 Frequencies --   1221.1509              1248.9498              1284.5653
 Red. masses --      1.2792                 1.7836                 1.2041
 Frc consts  --      1.1239                 1.6392                 1.1706
 IR Inten    --      2.8713                 0.4091                 2.3692

                     58                     59                     60
                      A                      A                      A
 Frequencies --   1313.8565              1325.9685              1340.6497
 Red. masses --      1.4763                 1.3931                 1.3556
 Frc consts  --      1.5015                 1.4431                 1.4355
 IR Inten    --      0.0522                 0.8687                 5.6242

                     61                     62                     63
                      A                      A                      A
 Frequencies --   1365.9550              1369.7221              1382.3592
 Red. masses --      2.3160                 1.2401                 1.5197
 Frc consts  --      2.5461                 1.3707                 1.7110
 IR Inten    --      9.5641                 2.3493                 9.7858

                     64                     65                     66
                      A                      A                      A
 Frequencies --   1397.6777              1404.0463              1407.2620
 Red. masses --      4.9649                 2.4124                 1.2052
 Frc consts  --      5.7144                 2.8020                 1.4062
 IR Inten    --    338.4088                73.8970                15.6370

                     67                     68                     69
                      A                      A                      A
 Frequencies --   1422.0631              1427.5563              1440.6538
 Red. masses --      1.4319                 1.3957                 1.3190
 Frc consts  --      1.7061                 1.6758                 1.6129
 IR Inten    --      3.2252                22.8340                 6.0042

                     70                     71                     72
                      A                      A                      A
 Frequencies --   1450.2953              1464.0493              1522.8843
 Red. masses --      1.3476                 2.4499                 1.0679
 Frc consts  --      1.6701                 3.0939                 1.4592
 IR Inten    --      2.4640                 7.7409                 0.9258

                     73                     74                     75
                      A                      A                      A
 Frequencies --   1529.8599              1535.9169              1537.8246
 Red. masses --      1.0828                 1.0884                 1.0856
 Frc consts  --      1.4932                 1.5128                 1.5126
 IR Inten    --      1.2841                 5.0420                 7.2963

                     76                     77                     78
                      A                      A                      A
 Frequencies --   1542.1316              1545.0460              1616.3137
 Red. masses --      1.0966                 2.0188                 9.8717
 Frc consts  --      1.5366                 2.8393                15.1948
 IR Inten    --      6.7305                 8.2973               116.1988

                     79                     80                     81
                      A                      A                      A
 Frequencies --   1658.0095              1670.6263              1704.2244
 Red. masses --      5.7231                 9.1091                 1.0875
 Frc consts  --      9.2694                14.9790                 1.8609
 IR Inten    --     38.7492                89.2008                 9.3535

                     82                     83                     84
                      A                      A                      A
 Frequencies --   3001.0551              3011.4880              3041.6368
 Red. masses --      1.0687                 1.0820                 1.0692
 Frc consts  --      5.6711                 5.7817                 5.8280
 IR Inten    --     58.6397                14.5130                10.9117

                     85                     86                     87
                      A                      A                      A
 Frequencies --   3044.9817              3050.1256              3058.9004
 Red. masses --      1.0664                 1.0648                 1.0381
 Frc consts  --      5.8255                 5.8367                 5.7230
 IR Inten    --     19.7520                34.9158                21.6224

                     88                     89                     90
                      A                      A                      A
 Frequencies --   3062.6668              3083.3898              3098.9086
 Red. masses --      1.0920                 1.1022                 1.1079
 Frc consts  --      6.0352                 6.1738                 6.2684
 IR Inten    --     52.5038                37.6607                50.9104

                     91                     92                     93
                      A                      A                      A
 Frequencies --   3125.9456              3128.1640              3193.3616
 Red. masses --      1.1028                 1.1018                 1.0897
 Frc consts  --      6.3489                 6.3524                 6.5472
 IR Inten    --     29.2434                25.9828                 8.1399

                     94                     95                     96
                      A                      A                      A
 Frequencies --   3225.6449              3252.5997              3252.8418
 Red. masses --      1.0888                 1.0923                 1.0931
 Frc consts  --      6.6745                 6.8086                 6.8147
 IR Inten    --      4.8652                 0.7048                 1.4477

                     97                     98                     99
                      A                      A                      A
 Frequencies --   3481.8850              3563.2400              3773.4700
 Red. masses --      1.0499                 1.0920                 1.0667
 Frc consts  --      7.4994                 8.1692                 8.9493
 IR Inten    --      4.6394                 4.3930                14.8192

 - Thermochemistry -
 -------------------
 Temperature   298.150 Kelvin.  Pressure   1.00000 Atm.
 Atom     1 has atomic number  6 and mass  12.00000

 Molecular mass:   238.13174 amu.
 Principal axes and moments of inertia in atomic units:
                           1         2         3
     Eigenvalues --  1832.236888114.168048683.71447
           X            1.00000   0.00186   0.00089
           Y           -0.00185   0.99995  -0.01002
           Z           -0.00091   0.01002   0.99995
 This molecule is an asymmetric top.
 Rotational symmetry number  1.
 Warning -- assumption of classical behavior for rotation
           may cause significant error
 Rotational temperatures (Kelvin)      0.04727     0.01067     0.00997
 Rotational constants (GHZ):           0.98499     0.22242     0.20783
 Zero-point vibrational energy     782215.7 (Joules/Mol)
                                  186.95403 (Kcal/Mol)
 Warning -- explicit consideration of  26 degrees of freedom as
           vibrations may cause significant error
 Vibrational temperatures:     38.10    55.30    63.77   108.60   146.78
          (Kelvin)            169.80   205.52   219.42   244.67   272.88
                              335.92   376.72   383.84   399.69   413.35
                              442.04   450.62   511.28   585.41   605.96
                              615.32   677.78   716.40   778.14   845.09
                              884.88   904.02   935.03  1028.90  1082.81
                             1099.12  1165.73  1228.94  1237.48  1254.65
                             1262.89  1295.59  1337.30  1357.72  1398.14
                             1418.52  1426.79  1479.26  1490.23  1505.17
                             1546.19  1574.19  1600.32  1611.73  1640.50
                             1642.75  1669.00  1714.20  1746.42  1756.96
                             1796.96  1848.20  1890.35  1907.77  1928.90
                             1965.30  1970.72  1988.91  2010.95  2020.11
                             2024.74  2046.03  2053.94  2072.78  2086.65
                             2106.44  2191.09  2201.13  2209.84  2212.59
                             2218.78  2222.98  2325.51  2385.51  2403.66
                             2452.00  4317.85  4332.86  4376.24  4381.05
                             4388.45  4401.08  4406.49  4436.31  4458.64
                             4497.54  4500.73  4594.54  4640.98  4679.77
                             4680.11  5009.66  5126.71  5429.18

 Zero-point correction=                           0.297930 (Hartree/Particle)
 Thermal correction to Energy=                    0.315042
 Thermal correction to Enthalpy=                  0.315987
 Thermal correction to Gibbs Free Energy=         0.252109
 Sum of electronic and zero-point Energies=           -802.946458
 Sum of electronic and thermal Energies=              -802.929346
 Sum of electronic and thermal Enthalpies=            -802.928402
 Sum of electronic and thermal Free Energies=         -802.992279

                     E (Thermal)             CV                S
                      KCal/Mol        Cal/Mol-Kelvin    Cal/Mol-Kelvin
 Total                  197.692             64.379            134.442
 Electronic               0.000              0.000              0.000
 Translational            0.889              2.981             42.304
 Rotational               0.889              2.981             33.223
 Vibrational            195.915             58.417             58.915
 Vibration     1          0.593              1.985              6.077
 Vibration     2          0.594              1.982              5.338
 Vibration     3          0.595              1.980              5.056
 Vibration     4          0.599              1.965              4.005
 Vibration     5          0.604              1.948              3.415
 Vibration     6          0.608              1.934              3.133
 Vibration     7          0.616              1.910              2.765
 Vibration     8          0.619              1.900              2.641
 Vibration     9          0.625              1.879              2.435
 Vibration    10          0.633              1.854              2.231
 Vibration    11          0.654              1.790              1.852
 Vibration    12          0.669              1.743              1.650
 Vibration    13          0.672              1.734              1.617
 Vibration    14          0.679              1.715              1.547
 Vibration    15          0.684              1.697              1.490
 Vibration    16          0.697              1.660              1.377
 Vibration    17          0.701              1.649              1.345
 Vibration    18          0.731              1.564              1.142
 Vibration    19          0.772              1.455              0.938
 Vibration    20          0.784              1.424              0.888
 Vibration    21          0.789              1.410              0.866
 Vibration    22          0.828              1.314              0.735
 Vibration    23          0.853              1.255              0.663
 Vibration    24          0.896              1.160              0.563
 Vibration    25          0.945              1.059              0.472
 Vibration    26          0.975              1.000              0.425

                           ! Non-Optimized Parameters !
 Normal termination of Gaussian 16 at Sun Dec 13 20:33:24 2020.

 ----------------------------------------------------------------------
 # B3LYP/6-311++G(d,p) empiricaldispersion=gd3bj scf=xqc pop=npa geom=c
 heck
 ----------------------------------------------------------------------

 ---------------------------------------
 CID_112717798_JID_7619_Energie_neutraal
 ---------------------------------------
 Structure from the checkpoint file:  "JID_7619.chk"
 Charge =  0 Multiplicity = 1

 SCF Done:  E(RB3LYP) =  -803.488445544     A.U. after   18 cycles
 Normal termination of Gaussian 16 at Sun Dec 13 20:42:19 2020.

 ----------------------------------------------------------------------
 # B3LYP/6-311++G(d,p) empiricaldispersion=gd3bj scf=xqc pop=npa geom=c
 heck
 ----------------------------------------------------------------------

 -------------------------------------
 CID_112717798_JID_7619_Energie_kation
 -------------------------------------
 Structure from the checkpoint file:  "JID_7619.chk"
 Charge =  1 Multiplicity = 2

 SCF Done:  E(UB3LYP) =  -803.166788388     A.U. after   32 cycles
 Normal termination of Gaussian 16 at Sun Dec 13 21:04:42 2020.
 Gaussian 16:  ES64L-G16RevA.03 25-Dec-2016

 ----------------------------------------------------------------------
 # B3LYP/6-311++G(d,p) empiricaldispersion=gd3bj scf=xqc pop=npa geom=c
 heck
 ----------------------------------------------------------------------

 ------------------------------------
 CID_112717798_JID_7619_Energie_anion
 ------------------------------------
 Structure from the checkpoint file:  "JID_7619.chk"
 Charge = -1 Multiplicity = 2

                         Standard orientation:
 ---------------------------------------------------------------------
 Center     Atomic      Atomic             Coordinates (Angstroms)
 Number     Number       Type             X           Y           Z
 ---------------------------------------------------------------------
      1          6           0       -1.725216    2.584693   -0.494730
      2          6           0       -1.273276    1.571639    0.562101
      3          6           0       -2.304765    0.423746    0.746648
      4          6           0       -2.775944   -0.337507   -0.503411
      5          6           0       -1.673024   -1.122855   -1.233352
      6          7           0       -1.006451   -2.082962   -0.344059
      7          6           0       -3.924214   -1.293372   -0.133503
      8          8           0       -5.044090   -0.629722    0.452286
      9          6           0        0.147768    1.062003    0.369015
     10          6           0        0.875460    1.245810   -0.814479
     11          6           0        2.166588    0.743691   -0.955549
     12          6           0        2.740312    0.056064    0.108940
     13          6           0        2.058898   -0.130586    1.310353
     14          6           0        0.770661    0.376778    1.427684
     15          7           0        4.098240   -0.480543   -0.033438
     16          8           0        4.676262   -0.298499   -1.105115
     17          8           0        4.578128   -1.083498    0.926864
     18          1           0       -1.765219    2.148036   -1.497506
     19          1           0       -1.053223    3.448739   -0.529193
     20          1           0       -2.731075    2.945958   -0.257635
     21          1           0       -1.261421    2.100696    1.526215
     22          1           0       -1.915317   -0.297840    1.476805
     23          1           0       -3.195147    0.876521    1.198844
     24          1           0       -3.188800    0.389446   -1.215341
     25          1           0       -2.145637   -1.696211   -2.040960
     26          1           0       -0.979041   -0.420175   -1.720117
     27          1           0       -0.482113   -2.754548   -0.900625
     28          1           0       -0.318160   -1.598721    0.228832
     29          1           0       -4.299780   -1.766339   -1.047869
     30          1           0       -3.541308   -2.090887    0.515617
     31          1           0       -4.885509   -0.569361    1.404750
     32          1           0        0.432268    1.783213   -1.644669
     33          1           0        2.730512    0.876326   -1.870220
     34          1           0        2.541557   -0.659089    2.122685
     35          1           0        0.233007    0.241892    2.362281
 ---------------------------------------------------------------------

 SCF Done:  E(UB3LYP) =  -803.529812673     A.U. after   22 cycles

 The electronic state is 2-A.
 Alpha  occ. eigenvalues --  -19.04383 -18.94457 -18.94442 -14.32211 -14.19307
 Alpha  occ. eigenvalues --  -10.12584 -10.09710 -10.07999 -10.07982 -10.07188
 Alpha  occ. eigenvalues --  -10.06938 -10.06078 -10.04866 -10.04786 -10.04698
 Alpha  occ. eigenvalues --  -10.04185 -10.03852  -1.02505  -0.94272  -0.85380
 Alpha  occ. eigenvalues --   -0.78771  -0.74213  -0.71143  -0.67402  -0.63077
 Alpha  occ. eigenvalues --   -0.62341  -0.59210  -0.56861  -0.54714  -0.49900
 Alpha  occ. eigenvalues --   -0.47977  -0.45575  -0.43802  -0.43209  -0.40662
 Alpha  occ. eigenvalues --   -0.38457  -0.37276  -0.36242  -0.35620  -0.34858
 Alpha  occ. eigenvalues --   -0.34655  -0.33997  -0.32343  -0.32070  -0.31223
 Alpha  occ. eigenvalues --   -0.30265  -0.29839  -0.28878  -0.28598  -0.27558
 Alpha  occ. eigenvalues --   -0.26920  -0.25083  -0.24492  -0.23505  -0.22507
 Alpha  occ. eigenvalues --   -0.21866  -0.21102  -0.19511  -0.14903  -0.14027
 Alpha  occ. eigenvalues --   -0.12940  -0.12594  -0.12274  -0.10240   0.02386
 Alpha virt. eigenvalues --    0.05974   0.07317   0.07724   0.08843   0.09686
 Alpha virt. eigenvalues --    0.10208   0.10285   0.10922   0.11110   0.12162
 Alpha virt. eigenvalues --    0.12628   0.13060   0.13225   0.13598   0.14041

  Beta  occ. eigenvalues --  -19.04379 -18.93989 -18.93960 -14.31616 -14.19308
  Beta  occ. eigenvalues --  -10.12583 -10.09711 -10.08008 -10.07999 -10.07159
  Beta  occ. eigenvalues --  -10.06936 -10.05969 -10.04928 -10.04854 -10.04388
  Beta  occ. eigenvalues --  -10.04066 -10.03692  -1.01486  -0.94264  -0.84483
  Beta  occ. eigenvalues --   -0.78767  -0.73946  -0.71026  -0.67263  -0.62639
  Beta  occ. eigenvalues --   -0.62132  -0.59168  -0.56854  -0.54069  -0.49554
  Beta  occ. eigenvalues --   -0.47874  -0.45420  -0.43707  -0.43047  -0.40610
  Beta  occ. eigenvalues --   -0.38042  -0.37223  -0.36130  -0.35452  -0.34514
  Beta  occ. eigenvalues --   -0.33804  -0.32155  -0.32028  -0.31888  -0.30870
  Beta  occ. eigenvalues --   -0.30051  -0.29756  -0.28839  -0.28482  -0.27501
  Beta  occ. eigenvalues --   -0.26787  -0.24911  -0.24448  -0.23236  -0.22146
  Beta  occ. eigenvalues --   -0.21722  -0.21019  -0.19468  -0.14810  -0.12909
  Beta  occ. eigenvalues --   -0.11800  -0.11216  -0.10236  -0.09767
  Beta virt. eigenvalues --    0.05882   0.07274   0.07657   0.08780   0.09021
  Beta virt. eigenvalues --    0.09851   0.10167   0.10353   0.10968   0.11306
  Beta virt. eigenvalues --    0.12128   0.12608   0.13019   0.13363   0.13921

 Mulliken charges and spin densities:
               1          2
     1  C   -0.574139   0.006854
     2  C   -0.102419  -0.024150
     3  C   -0.632484  -0.053339
     4  C    0.578347   0.015791
     5  C   -0.509371  -0.001749
     6  N   -0.445275  -0.000724
     7  C   -0.570353  -0.034496
     8  O   -0.266133  -0.001044
     9  C    0.918479   0.214747
    10  C   -0.384275  -0.041659
    11  C   -0.511109   0.187709
    12  C    0.039251  -0.032483
    13  C   -0.335220   0.149953
    14  C   -0.610502  -0.039097
    15  N   -0.324773   0.196099
    16  O   -0.174010   0.181470
    17  O   -0.169149   0.185803
    18  H    0.144165   0.000073
    19  H    0.144882   0.000823
    20  H    0.142340   0.002613
    21  H    0.155379   0.046866
    22  H    0.193520  -0.008900
    23  H    0.023281   0.023177
    24  H    0.175492   0.000947
    25  H    0.145434   0.001073
    26  H    0.155051   0.003864
    27  H    0.228599   0.003393
    28  H    0.300136   0.002941
    29  H    0.148134   0.002477
    30  H    0.191703   0.002260
    31  H    0.237555   0.011445
    32  H    0.120236   0.004602
    33  H    0.227119  -0.009766
    34  H    0.230365  -0.007230
    35  H    0.109742   0.009658
 Sum of Mulliken charges =  -1.00000   1.00000

 Dipole moment (field-independent basis, Debye):
    X=            -12.6531    Y=              1.8695    Z=              0.0436  Tot=             12.7906
 Quadrupole moment (field-independent basis, Debye-Ang):
   XX=           -211.2543   YY=           -116.0750   ZZ=           -109.0713
   XY=              8.6872   XZ=             -0.8110   YZ=              1.9433

 Summary of Natural Population Analysis:

                                       Natural Population
                Natural  -----------------------------------------------
    Atom  No    Charge         Core      Valence    Rydberg      Total
 -----------------------------------------------------------------------
      C    1   -0.28565      0.99966     2.28125    0.00474     3.28565
      C    2   -0.11695      0.99958     2.10642    0.01095     3.11695
      C    3   -0.18576      0.99960     2.17629    0.00987     3.18576
      C    4   -0.12537      0.99959     2.11660    0.00918     3.12537
      C    5   -0.09140      0.99961     2.08195    0.00984     3.09140
      N    6   -0.43364      0.99977     2.92444    0.00944     3.93364
      C    7   -0.00879      0.99956     1.99669    0.01254     3.00879
      O    8   -0.37304      0.99990     3.36655    0.00659     4.37304
      C    9    0.03184      0.99949     1.95623    0.01244     2.96816
      C   10   -0.13283      0.99952     2.12530    0.00801     3.13283
      C   11   -0.06245      0.99953     2.05328    0.00964     3.06245
      C   12    0.05073      0.99940     1.93392    0.01595     2.94927
      C   13   -0.07289      0.99953     2.06366    0.00971     3.07289
      C   14   -0.13495      0.99953     2.12701    0.00841     3.13495
      N   15    0.30265      0.99972     2.17134    0.02630     3.19735
      O   16   -0.19548      0.99990     3.18792    0.00766     4.19548
      O   17   -0.19385      0.99990     3.18627    0.00768     4.19385
      H   18    0.09551      0.00000     0.40348    0.00101     0.40449
      H   19    0.10166      0.00000     0.39752    0.00082     0.39834
      H   20    0.09598      0.00000     0.40319    0.00082     0.40402
      H   21    0.09764      0.00000     0.40057    0.00179     0.40236
      H   22    0.10151      0.00000     0.39753    0.00096     0.39849
      H   23    0.09292      0.00000     0.40497    0.00210     0.40708
      H   24    0.09621      0.00000     0.40246    0.00132     0.40379
      H   25    0.08366      0.00000     0.41513    0.00121     0.41634
      H   26    0.09340      0.00000     0.40535    0.00125     0.40660
      H   27    0.17439      0.00000     0.32411    0.00150     0.32561
      H   28    0.18768      0.00000     0.31075    0.00157     0.31232
      H   29    0.08036      0.00000     0.41837    0.00127     0.41964
      H   30    0.08631      0.00000     0.41240    0.00129     0.41369
      H   31    0.22646      0.00000     0.27097    0.00257     0.27354
      H   32    0.09480      0.00000     0.40418    0.00101     0.40520
      H   33    0.11239      0.00000     0.38650    0.00111     0.38761
      H   34    0.11360      0.00000     0.38526    0.00113     0.38640
      H   35    0.09332      0.00000     0.40549    0.00119     0.40668
 =======================================================================
   * Total *    0.00000     16.99377    46.80336    0.20288    64.00000

 Normal termination of Gaussian 16 at Sun Dec 13 21:20:12 2020.
