 Gaussian 16, Revision A.03,

 -----------------------------------------------------------
 # opt freq B3LYP/6-31G(d) empiricaldispersion=gd3bj scf=xqc
 -----------------------------------------------------------

 -------------------------------
 CID_17168007_JID_10496_neutraal
 -------------------------------
 Symbolic Z-matrix:
 Charge =  0 Multiplicity = 1

 SCF Done:  E(RB3LYP) =  -828.648229240     A.U. after   15 cycles
 SCF Done:  E(RB3LYP) =  -828.649352558     A.U. after   13 cycles
 SCF Done:  E(RB3LYP) =  -828.649934812     A.U. after   12 cycles
 SCF Done:  E(RB3LYP) =  -828.651170070     A.U. after   12 cycles
 SCF Done:  E(RB3LYP) =  -828.652038140     A.U. after   12 cycles
 SCF Done:  E(RB3LYP) =  -828.652131099     A.U. after   11 cycles
 SCF Done:  E(RB3LYP) =  -828.652178393     A.U. after   11 cycles
 SCF Done:  E(RB3LYP) =  -828.652193376     A.U. after    9 cycles
 SCF Done:  E(RB3LYP) =  -828.652199384     A.U. after   10 cycles
 SCF Done:  E(RB3LYP) =  -828.652202551     A.U. after    9 cycles
 SCF Done:  E(RB3LYP) =  -828.652228736     A.U. after    7 cycles
 SCF Done:  E(RB3LYP) =  -828.652228754     A.U. after    7 cycles
 SCF Done:  E(RB3LYP) =  -828.652228759     A.U. after    6 cycles
 SCF Done:  E(RB3LYP) =  -828.652228760     A.U. after    6 cycles
 Optimization completed.
    -- Stationary point found.
 Normal termination of Gaussian 16 at Sun Dec 13 21:13:58 2020.

 --------------------------------------------------------------------
 #N Geom=AllCheck Guess=TCheck SCRF=Check GenChk RB3LYP/6-31G(d) Freq
 --------------------------------------------------------------------

 Structure from the checkpoint file:  "JID_10496.chk"
 -------------------------------
 CID_17168007_JID_10496_neutraal
 -------------------------------
 Charge =  0 Multiplicity = 1

 SCF Done:  E(RB3LYP) =  -828.652228760     A.U. after    1 cycles

  Exact polarizability: 232.012   5.738 166.466  15.731 -14.602 163.659
 Approx polarizability: 308.009   3.179 264.314  29.783 -41.427 291.677

                      1                      2                      3
                      A                      A                      A
 Frequencies --     22.3557                28.0374                30.6780
 Red. masses --      4.1213                 1.0954                 3.5216
 Frc consts  --      0.0012                 0.0005                 0.0020
 IR Inten    --      0.0628                 0.1449                 0.3387

                      4                      5                      6
                      A                      A                      A
 Frequencies --     33.4890                49.2238                58.3511
 Red. masses --      3.8646                 5.3570                 3.8468
 Frc consts  --      0.0026                 0.0076                 0.0077
 IR Inten    --      0.2359                 0.4168                 0.0414

                      7                      8                      9
                      A                      A                      A
 Frequencies --     88.5628                89.5595               100.1558
 Red. masses --      5.5208                 3.0250                 3.7072
 Frc consts  --      0.0255                 0.0143                 0.0219
 IR Inten    --      1.0401                 0.4482                 0.8431

                     10                     11                     12
                      A                      A                      A
 Frequencies --    143.4304               179.1296               227.6489
 Red. masses --      3.7950                 1.5393                 3.3191
 Frc consts  --      0.0460                 0.0291                 0.1013
 IR Inten    --      1.1701                 0.2391                 0.1561

                     13                     14                     15
                      A                      A                      A
 Frequencies --    232.5942               265.1680               278.0890
 Red. masses --      3.3691                 1.8722                 2.8798
 Frc consts  --      0.1074                 0.0776                 0.1312
 IR Inten    --      0.7233                 0.2272                 2.2889

                     16                     17                     18
                      A                      A                      A
 Frequencies --    301.4058               336.5317               374.3802
 Red. masses --      4.8927                 3.7296                 2.8728
 Frc consts  --      0.2619                 0.2489                 0.2372
 IR Inten    --      1.1425                 0.0663                 1.2039

                     19                     20                     21
                      A                      A                      A
 Frequencies --    397.1451               415.2503               420.5854
 Red. masses --      3.2484                 2.9724                 3.0537
 Frc consts  --      0.3019                 0.3020                 0.3183
 IR Inten    --      1.4853                 0.1027                 0.0096

                     22                     23                     24
                      A                      A                      A
 Frequencies --    427.8137               446.2501               475.1487
 Red. masses --      3.6040                 4.2664                 2.4635
 Frc consts  --      0.3886                 0.5006                 0.3277
 IR Inten    --      0.4419                 4.3256                 6.9972

                     25                     26                     27
                      A                      A                      A
 Frequencies --    513.1660               539.0921               569.9278
 Red. masses --      2.5288                 3.3058                 2.1698
 Frc consts  --      0.3924                 0.5660                 0.4153
 IR Inten    --     16.4387                12.8613                58.3061

                     28                     29                     30
                      A                      A                      A
 Frequencies --    620.3166               634.9588               641.3116
 Red. masses --      3.2731                 3.7628                 2.9648
 Frc consts  --      0.7421                 0.8938                 0.7184
 IR Inten    --     13.1440                16.4017                30.5466

                     31                     32                     33
                      A                      A                      A
 Frequencies --    661.4840               693.4830               715.5943
 Red. masses --      5.8247                 4.1897                 1.7632
 Frc consts  --      1.5016                 1.1871                 0.5320
 IR Inten    --      4.6290                40.4225                29.4838

                     34                     35                     36
                      A                      A                      A
 Frequencies --    723.1989               767.5043               779.5710
 Red. masses --      3.4182                 1.7329                 2.1758
 Frc consts  --      1.0533                 0.6014                 0.7791
 IR Inten    --      4.8577                 5.8731                15.8142

                     37                     38                     39
                      A                      A                      A
 Frequencies --    791.9908               821.7750               857.8290
 Red. masses --      2.7525                 1.7516                 1.2854
 Frc consts  --      1.0172                 0.6969                 0.5573
 IR Inten    --     15.5592                18.0279                 0.7978

                     40                     41                     42
                      A                      A                      A
 Frequencies --    860.7064               862.4628               866.0707
 Red. masses --      1.6778                 2.6505                 1.5609
 Frc consts  --      0.7323                 1.1616                 0.6898
 IR Inten    --      3.4670                 5.2597                 2.4661

                     43                     44                     45
                      A                      A                      A
 Frequencies --    891.6977               915.2670               937.2995
 Red. masses --      3.0466                 1.5829                 1.7260
 Frc consts  --      1.4273                 0.7812                 0.8934
 IR Inten    --      1.2432                 8.2414                 2.8593

                     46                     47                     48
                      A                      A                      A
 Frequencies --    955.1221               965.1725               972.6737
 Red. masses --      1.3812                 1.3521                 1.6099
 Frc consts  --      0.7424                 0.7421                 0.8974
 IR Inten    --      2.6185                 0.0252                 5.4908

                     49                     50                     51
                      A                      A                      A
 Frequencies --    985.8763               995.9024              1022.4255
 Red. masses --      1.4526                 1.2522                 5.6968
 Frc consts  --      0.8318                 0.7318                 3.5087
 IR Inten    --      0.3894                 0.1064                 0.5545

                     52                     53                     54
                      A                      A                      A
 Frequencies --   1022.6998              1045.0942              1046.0532
 Red. masses --      1.4426                 2.5606                 2.8803
 Frc consts  --      0.8890                 1.6478                 1.8569
 IR Inten    --      1.7391                 2.7562                 1.5971

                     55                     56                     57
                      A                      A                      A
 Frequencies --   1062.1368              1076.2541              1096.0593
 Red. masses --      2.2347                 1.5216                 1.7466
 Frc consts  --      1.4853                 1.0384                 1.2363
 IR Inten    --      1.7481                11.0482                 8.8015

                     58                     59                     60
                      A                      A                      A
 Frequencies --   1107.4709              1126.1722              1149.0137
 Red. masses --      2.1165                 1.8718                 1.3438
 Frc consts  --      1.5295                 1.3987                 1.0453
 IR Inten    --      5.1417                 8.9256                 4.3161

                     61                     62                     63
                      A                      A                      A
 Frequencies --   1163.1033              1185.7978              1194.9613
 Red. masses --      2.5331                 1.1960                 1.0981
 Frc consts  --      2.0190                 0.9909                 0.9239
 IR Inten    --     10.0184                43.3030                 0.2013

                     64                     65                     66
                      A                      A                      A
 Frequencies --   1217.7657              1221.8496              1229.7328
 Red. masses --      1.1355                 1.2052                 2.7885
 Frc consts  --      0.9921                 1.0601                 2.4845
 IR Inten    --      0.0874                 2.3696                 1.9239

                     67                     68                     69
                      A                      A                      A
 Frequencies --   1237.4859              1246.6984              1284.9233
 Red. masses --      2.3550                 2.6194                 1.4346
 Frc consts  --      2.1248                 2.3987                 1.3955
 IR Inten    --      8.4373                 3.0443                 0.0852

                     70                     71                     72
                      A                      A                      A
 Frequencies --   1314.6780              1326.0465              1353.7412
 Red. masses --      1.6302                 1.6380                 1.8056
 Frc consts  --      1.6601                 1.6970                 1.9496
 IR Inten    --      4.3692                 1.0043                14.7001

                     73                     74                     75
                      A                      A                      A
 Frequencies --   1354.3235              1360.3961              1368.4707
 Red. masses --      1.7558                 1.7584                 2.3287
 Frc consts  --      1.8975                 1.9173                 2.5694
 IR Inten    --      1.8985                36.7007                 0.1434

                     76                     77                     78
                      A                      A                      A
 Frequencies --   1389.2659              1393.5703              1400.7630
 Red. masses --      1.6711                 1.4069                 2.3105
 Frc consts  --      1.9003                 1.6098                 2.6711
 IR Inten    --     60.8254                27.2373               109.4518

                     79                     80                     81
                      A                      A                      A
 Frequencies --   1440.4754              1443.2332              1464.0159
 Red. masses --      1.2559                 1.2480                 2.4377
 Frc consts  --      1.5354                 1.5315                 3.0783
 IR Inten    --      4.0216                 0.0669                 4.9339

                     82                     83                     84
                      A                      A                      A
 Frequencies --   1497.8252              1506.1963              1514.5445
 Red. masses --      1.7627                 1.6865                 1.2057
 Frc consts  --      2.3300                 2.2542                 1.6294
 IR Inten    --     61.2132                11.1823                18.6353

                     85                     86                     87
                      A                      A                      A
 Frequencies --   1517.0263              1520.1763              1524.3342
 Red. masses --      1.0502                 1.0872                 1.1074
 Frc consts  --      1.4240                 1.4803                 1.5160
 IR Inten    --      7.1876                18.8430                 9.1131

                     88                     89                     90
                      A                      A                      A
 Frequencies --   1529.9520              1535.5191              1549.4260
 Red. masses --      1.0446                 1.0705                 2.2365
 Frc consts  --      1.4406                 1.4871                 3.1635
 IR Inten    --      1.5128                 4.5594                 5.1198

                     91                     92                     93
                      A                      A                      A
 Frequencies --   1566.8565              1634.5061              1648.9080
 Red. masses --      2.4896                 5.6882                 5.4901
 Frc consts  --      3.6011                 8.9536                 8.7947
 IR Inten    --     25.5913                 2.5980                 1.2079

                     94                     95                     96
                      A                      A                      A
 Frequencies --   1668.9243              1678.2251              1778.2510
 Red. masses --      5.6127                 5.7892                 7.9364
 Frc consts  --      9.2108                 9.6067                14.7863
 IR Inten    --      2.6630                 0.3549               439.1706

                     97                     98                     99
                      A                      A                      A
 Frequencies --   3042.9690              3047.2369              3052.0888
 Red. masses --      1.0394                 1.0673                 1.0364
 Frc consts  --      5.6705                 5.8391                 5.6879
 IR Inten    --     35.5861                13.9832                22.3802

                    100                    101                    102
                      A                      A                      A
 Frequencies --   3068.9792              3098.5085              3106.9218
 Red. masses --      1.0616                 1.0975                 1.0948
 Frc consts  --      5.8910                 6.2079                 6.2263
 IR Inten    --     15.6939                18.9638                 2.2494

                    103                    104                    105
                      A                      A                      A
 Frequencies --   3117.8953              3119.2456              3125.9417
 Red. masses --      1.0991                 1.1024                 1.1022
 Frc consts  --      6.2955                 6.3198                 6.3454
 IR Inten    --      7.1405                22.9092                16.5860

                    106                    107                    108
                      A                      A                      A
 Frequencies --   3127.1861              3131.5594              3168.9756
 Red. masses --      1.0918                 1.0967                 1.0869
 Frc consts  --      6.2905                 6.3366                 6.4309
 IR Inten    --     18.6937                46.2587                16.3065

                    109                    110                    111
                      A                      A                      A
 Frequencies --   3174.3730              3177.6576              3177.8400
 Red. masses --      1.0866                 1.0880                 1.0873
 Frc consts  --      6.4512                 6.4730                 6.4693
 IR Inten    --     11.7688                15.1028                 7.2972

                    112                    113                    114
                      A                      A                      A
 Frequencies --   3188.0881              3190.6517              3199.9867
 Red. masses --      1.0939                 1.0892                 1.0939
 Frc consts  --      6.5505                 6.5330                 6.5995
 IR Inten    --     21.5337                 5.7873                 3.4711

                    115                    116                    117
                      A                      A                      A
 Frequencies --   3200.1429              3212.1792              3581.1861
 Red. masses --      1.0937                 1.0979                 1.0752
 Frc consts  --      6.5989                 6.6744                 8.1246
 IR Inten    --     37.0185                23.4663                12.4529

 - Thermochemistry -
 -------------------
 Temperature   298.150 Kelvin.  Pressure   1.00000 Atm.
 Atom     1 has atomic number  6 and mass  12.00000

 Molecular mass:   267.16231 amu.
 Principal axes and moments of inertia in atomic units:
                           1         2         3
     Eigenvalues --  2959.216049268.50363**********
           X            0.99995   0.00935   0.00321
           Y           -0.00939   0.99986   0.01362
           Z           -0.00308  -0.01365   0.99990
 This molecule is an asymmetric top.
 Rotational symmetry number  1.
 Warning -- assumption of classical behavior for rotation
           may cause significant error
 Rotational temperatures (Kelvin)      0.02927     0.00934     0.00814
 Rotational constants (GHZ):           0.60987     0.19472     0.16956
 Zero-point vibrational energy     922831.6 (Joules/Mol)
                                  220.56205 (Kcal/Mol)
 Warning -- explicit consideration of  28 degrees of freedom as
           vibrations may cause significant error
 Vibrational temperatures:     32.16    40.34    44.14    48.18    70.82
          (Kelvin)             83.95   127.42   128.86   144.10   206.36
                              257.73   327.54   334.65   381.52   400.11
                              433.66   484.19   538.65   571.40   597.45
                              605.13   615.53   642.05   683.63   738.33
                              775.63   820.00   892.50   913.56   922.70
                              951.73   997.77  1029.58  1040.52  1104.27
                             1121.63  1139.50  1182.35  1234.22  1238.36
                             1240.89  1246.08  1282.95  1316.87  1348.56
                             1374.21  1388.67  1399.46  1418.46  1432.88
                             1471.04  1471.44  1503.66  1505.04  1528.18
                             1548.49  1576.98  1593.40  1620.31  1653.17
                             1673.45  1706.10  1719.28  1752.09  1757.97
                             1769.31  1780.47  1793.72  1848.72  1891.53
                             1907.89  1947.73  1948.57  1957.31  1968.92
                             1998.84  2005.04  2015.39  2072.52  2076.49
                             2106.39  2155.04  2167.08  2179.09  2182.66
                             2187.19  2193.18  2201.26  2209.27  2229.28
                             2254.36  2351.69  2372.41  2401.21  2414.59
                             2558.51  4378.15  4384.29  4391.28  4415.58
                             4458.06  4470.17  4485.96  4487.90  4497.53
                             4499.32  4505.62  4559.45  4567.21  4571.94
                             4572.20  4586.95  4590.64  4604.07  4604.29
                             4621.61  5152.53

 Zero-point correction=                           0.351488 (Hartree/Particle)
 Thermal correction to Energy=                    0.370731
 Thermal correction to Enthalpy=                  0.371675
 Thermal correction to Gibbs Free Energy=         0.300649
 Sum of electronic and zero-point Energies=           -828.300741
 Sum of electronic and thermal Energies=              -828.281498
 Sum of electronic and thermal Enthalpies=            -828.280553
 Sum of electronic and thermal Free Energies=         -828.351579

                     E (Thermal)             CV                S
                      KCal/Mol        Cal/Mol-Kelvin    Cal/Mol-Kelvin
 Total                  232.637             72.831            149.487
 Electronic               0.000              0.000              0.000
 Translational            0.889              2.981             42.647
 Rotational               0.889              2.981             34.034
 Vibrational            230.860             66.869             72.806
 Vibration     1          0.593              1.985              6.413
 Vibration     2          0.593              1.984              5.964
 Vibration     3          0.594              1.984              5.785
 Vibration     4          0.594              1.983              5.611
 Vibration     5          0.595              1.978              4.848
 Vibration     6          0.596              1.974              4.512
 Vibration     7          0.601              1.957              3.692
 Vibration     8          0.602              1.957              3.670
 Vibration     9          0.604              1.949              3.451
 Vibration    10          0.616              1.910              2.758
 Vibration    11          0.629              1.868              2.337
 Vibration    12          0.651              1.799              1.897
 Vibration    13          0.653              1.791              1.859
 Vibration    14          0.671              1.737              1.627
 Vibration    15          0.679              1.714              1.545
 Vibration    16          0.693              1.671              1.409
 Vibration    17          0.717              1.603              1.229
 Vibration    18          0.746              1.525              1.062
 Vibration    19          0.764              1.476              0.973
 Vibration    20          0.779              1.437              0.908
 Vibration    21          0.783              1.425              0.890
 Vibration    22          0.789              1.410              0.866
 Vibration    23          0.806              1.369              0.807
 Vibration    24          0.832              1.305              0.723
 Vibration    25          0.868              1.221              0.626
 Vibration    26          0.894              1.164              0.567
 Vibration    27          0.926              1.096              0.504
 Vibration    28          0.980              0.989              0.416

 Optimization completed.
    -- Stationary point found.
 Normal termination of Gaussian 16 at Sun Dec 13 21:35:13 2020.

 ----------------------------------------------------------------------
 # B3LYP/6-311++G(d,p) empiricaldispersion=gd3bj scf=xqc pop=npa geom=c
 heck
 ----------------------------------------------------------------------

 ---------------------------------------
 CID_17168007_JID_10496_Energie_neutraal
 ---------------------------------------
 Structure from the checkpoint file:  "JID_10496.chk"
 Charge =  0 Multiplicity = 1

 SCF Done:  E(RB3LYP) =  -828.875501319     A.U. after   16 cycles
 Normal termination of Gaussian 16 at Sun Dec 13 21:44:14 2020.

 ----------------------------------------------------------------------
 # B3LYP/6-311++G(d,p) empiricaldispersion=gd3bj scf=xqc pop=npa geom=c
 heck
 ----------------------------------------------------------------------

 -------------------------------------
 CID_17168007_JID_10496_Energie_kation
 -------------------------------------
 Structure from the checkpoint file:  "JID_10496.chk"
 Charge =  1 Multiplicity = 2

 SCF Done:  E(UB3LYP) =  -828.574676141     A.U. after   33 cycles
 SCF Done:  E(UB3LYP) =  -828.574676141     a.u. after    1 cycles
 Normal termination of Gaussian 16 at Sun Dec 13 22:09:20 2020.
 Gaussian 16:  ES64L-G16RevA.03 25-Dec-2016

 ----------------------------------------------------------------------
 # B3LYP/6-311++G(d,p) empiricaldispersion=gd3bj scf=xqc pop=npa geom=c
 heck
 ----------------------------------------------------------------------

 ------------------------------------
 CID_17168007_JID_10496_Energie_anion
 ------------------------------------
 Structure from the checkpoint file:  "JID_10496.chk"
 Charge = -1 Multiplicity = 2

                         Standard orientation:
 ---------------------------------------------------------------------
 Center     Atomic      Atomic             Coordinates (Angstroms)
 Number     Number       Type             X           Y           Z
 ---------------------------------------------------------------------
      1          6           0        0.306152   -2.313496   -0.732160
      2          6           0        0.265293   -0.846125   -1.159502
      3          6           0        0.971074    0.085981   -0.154295
      4          6           0        2.452744   -0.217228   -0.007788
      5          6           0        2.983401   -0.577376    1.233773
      6          6           0        4.343709   -0.853460    1.378482
      7          6           0        5.193971   -0.768770    0.276533
      8          6           0        4.674954   -0.410584   -0.969295
      9          6           0        3.314725   -0.141504   -1.109215
     10          7           0        0.778987    1.494901   -0.506345
     11          6           0       -0.161831    2.372721   -0.043177
     12          8           0       -0.334806    3.461427   -0.580683
     13          6           0       -1.002840    1.940435    1.160745
     14          6           0       -2.047756    0.912051    0.776015
     15          6           0       -2.888891    1.143314   -0.320723
     16          6           0       -3.815600    0.184464   -0.718677
     17          6           0       -3.938850   -1.034154   -0.035999
     18          6           0       -3.104163   -1.255686    1.063208
     19          6           0       -2.173301   -0.296385    1.464382
     20          6           0       -4.957076   -2.061841   -0.465330
     21          1           0        1.335081   -2.676324   -0.638066
     22          1           0       -0.212628   -2.945493   -1.460422
     23          1           0       -0.191678   -2.446088    0.235531
     24          1           0        0.730276   -0.725678   -2.146924
     25          1           0       -0.772542   -0.512671   -1.254257
     26          1           0        0.504212   -0.065145    0.820260
     27          1           0        2.324013   -0.642521    2.095969
     28          1           0        4.737618   -1.132866    2.351668
     29          1           0        6.253560   -0.981408    0.385629
     30          1           0        5.329925   -0.344268   -1.833536
     31          1           0        2.923107    0.126191   -2.087873
     32          1           0        1.258408    1.831779   -1.333548
     33          1           0       -0.367553    1.551565    1.964040
     34          1           0       -1.474934    2.857187    1.525024
     35          1           0       -2.794871    2.075203   -0.871884
     36          1           0       -4.452253    0.380724   -1.578355
     37          1           0       -3.177964   -2.192390    1.610514
     38          1           0       -1.530218   -0.497088    2.318476
     39          1           0       -5.965388   -1.787247   -0.128998
     40          1           0       -4.995629   -2.155198   -1.556323
     41          1           0       -4.729283   -3.048122   -0.048893
 ---------------------------------------------------------------------

 SCF Done:  E(UB3LYP) =  -828.865925949     A.U. after   33 cycles
 SCF Done:  E(UB3LYP) =  -828.865925949     a.u. after    1 cycles

 The electronic state is 2-A.
 Alpha  occ. eigenvalues --  -19.00267 -14.25186 -10.18995 -10.13647 -10.10375
 Alpha  occ. eigenvalues --  -10.10273 -10.10165 -10.10071 -10.09616 -10.09559
 Alpha  occ. eigenvalues --  -10.09345 -10.09288 -10.09232 -10.09151 -10.09086
 Alpha  occ. eigenvalues --  -10.09065 -10.08902 -10.08600 -10.08483 -10.07132
 Alpha  occ. eigenvalues --   -0.95388  -0.84526  -0.78226  -0.77739  -0.71599
 Alpha  occ. eigenvalues --   -0.70892  -0.66799  -0.66569  -0.66502  -0.65378
 Alpha  occ. eigenvalues --   -0.60343  -0.58825  -0.53682  -0.53054  -0.52687
 Alpha  occ. eigenvalues --   -0.50755  -0.49983  -0.48835  -0.44394  -0.42523
 Alpha  occ. eigenvalues --   -0.41135  -0.40218  -0.38739  -0.37498  -0.37343
 Alpha  occ. eigenvalues --   -0.36757  -0.36308  -0.35088  -0.34269  -0.34135
 Alpha  occ. eigenvalues --   -0.33868  -0.33492  -0.33174  -0.32218  -0.30886
 Alpha  occ. eigenvalues --   -0.30286  -0.29918  -0.28742  -0.28105  -0.27908
 Alpha  occ. eigenvalues --   -0.27026  -0.26832  -0.26228  -0.25779  -0.25508
 Alpha  occ. eigenvalues --   -0.25041  -0.18059  -0.17626  -0.17576  -0.17456
 Alpha  occ. eigenvalues --   -0.16438  -0.15601   0.03651
 Alpha virt. eigenvalues --    0.05125   0.05693   0.06059   0.06209   0.06343
 Alpha virt. eigenvalues --    0.06584   0.06841   0.07193   0.07897   0.08334
 Alpha virt. eigenvalues --    0.08677   0.08945   0.09643   0.09911   0.10226

  Beta  occ. eigenvalues --  -19.00257 -14.25184 -10.18986 -10.13644 -10.10377
  Beta  occ. eigenvalues --  -10.10274 -10.10168 -10.10064 -10.09607 -10.09548
  Beta  occ. eigenvalues --  -10.09330 -10.09274 -10.09216 -10.09135 -10.09064
  Beta  occ. eigenvalues --  -10.09056 -10.08881 -10.08572 -10.08478 -10.07115
  Beta  occ. eigenvalues --   -0.95370  -0.84517  -0.78204  -0.77716  -0.71579
  Beta  occ. eigenvalues --   -0.70875  -0.66768  -0.66541  -0.66467  -0.65349
  Beta  occ. eigenvalues --   -0.60318  -0.58782  -0.53650  -0.53006  -0.52653
  Beta  occ. eigenvalues --   -0.50727  -0.49954  -0.48811  -0.44350  -0.42490
  Beta  occ. eigenvalues --   -0.41104  -0.40192  -0.38714  -0.37457  -0.37313
  Beta  occ. eigenvalues --   -0.36733  -0.36282  -0.35060  -0.34240  -0.34103
  Beta  occ. eigenvalues --   -0.33835  -0.33469  -0.33154  -0.32197  -0.30859
  Beta  occ. eigenvalues --   -0.30259  -0.29887  -0.28718  -0.28078  -0.27885
  Beta  occ. eigenvalues --   -0.26990  -0.26800  -0.26199  -0.25752  -0.25480
  Beta  occ. eigenvalues --   -0.25023  -0.18045  -0.17610  -0.17556  -0.17395
  Beta  occ. eigenvalues --   -0.16423  -0.15578
  Beta virt. eigenvalues --    0.05573   0.05864   0.05969   0.06278   0.06399
  Beta virt. eigenvalues --    0.06608   0.06748   0.07314   0.07583   0.08223
  Beta virt. eigenvalues --    0.08627   0.08993   0.09258   0.09798   0.10139

 Mulliken charges and spin densities:
               1          2
     1  C   -0.432748  -0.386671
     2  C   -0.520396   0.222843
     3  C    0.719807  -0.850410
     4  C    1.418505  -0.491525
     5  C   -0.735185   0.789413
     6  C   -0.327905   0.022822
     7  C    0.935924  -1.209416
     8  C   -0.102979  -0.307927
     9  C   -0.849206   0.569546
    10  N   -0.077245   0.026303
    11  C   -0.123193  -0.090321
    12  O   -0.302130   0.003394
    13  C   -0.007210  -0.408531
    14  C    1.257344  -0.678495
    15  C   -0.946287   0.552293
    16  C   -0.909362   0.520659
    17  C   -0.084978   0.487335
    18  C   -0.658432   0.331502
    19  C   -0.071663  -0.193586
    20  C    1.826541  -2.443623
    21  H    0.197832  -0.058807
    22  H   -0.062378   0.200946
    23  H   -0.135849   0.284595
    24  H    0.017774   0.136461
    25  H    0.429027  -0.261726
    26  H    1.202788  -1.191225
    27  H   -0.402751   0.589884
    28  H   -0.538501   0.727316
    29  H   -0.341005   0.509047
    30  H   -0.371182   0.547281
    31  H   -0.005037   0.141077
    32  H    0.273311   0.017119
    33  H   -0.021043   0.202172
    34  H    0.165657   0.066687
    35  H    0.136076   0.057821
    36  H   -0.097235   0.269671
    37  H   -0.456378   0.645215
    38  H   -0.674976   0.866555
    39  H    0.004419   0.156713
    40  H   -0.082066   0.226623
    41  H   -0.247684   0.400968
 Sum of Mulliken charges =  -1.00000   1.00000

 Dipole moment (field-independent basis, Debye):
    X=             -2.3060    Y=              2.3233    Z=             -3.1585  Tot=              4.5488
 Quadrupole moment (field-independent basis, Debye-Ang):
   XX=           -225.6190   YY=           -180.3603   ZZ=           -162.4745
   XY=             -4.0069   XZ=             -3.4221   YZ=              7.7152

 Summary of Natural Population Analysis:

                                       Natural Population
                Natural  -----------------------------------------------
    Atom  No    Charge         Core      Valence    Rydberg      Total
 -----------------------------------------------------------------------
      C    1   -0.28781      0.99966     2.28328    0.00487     3.28781
      C    2   -0.19113      0.99961     2.18387    0.00765     3.19113
      C    3   -0.02046      0.99953     2.00804    0.01289     3.02046
      C    4   -0.01693      0.99949     2.00547    0.01197     3.01693
      C    5   -0.09486      0.99951     2.08544    0.00991     3.09486
      C    6   -0.09473      0.99956     2.08484    0.01033     3.09473
      C    7   -0.10140      0.99956     2.09205    0.00979     3.10140
      C    8   -0.09732      0.99956     2.08714    0.01062     3.09732
      C    9   -0.10350      0.99950     2.09510    0.00889     3.10350
      N   10   -0.31371      0.99965     2.80483    0.00923     3.81371
      C   11    0.35058      0.99967     1.62718    0.02258     2.64942
      O   12   -0.32611      0.99988     3.32070    0.00553     4.32611
      C   13   -0.24127      0.99956     2.23292    0.00879     3.24127
      C   14   -0.02374      0.99949     2.01406    0.01018     3.02374
      C   15   -0.09957      0.99951     2.09140    0.00867     3.09957
      C   16   -0.09698      0.99951     2.08803    0.00943     3.09698
      C   17   -0.01895      0.99951     2.00954    0.00989     3.01895
      C   18   -0.09513      0.99951     2.08519    0.01044     3.09513
      C   19   -0.09842      0.99950     2.08823    0.01068     3.09842
      C   20   -0.29129      0.99964     2.28664    0.00501     3.29129
      H   21    0.10041      0.00000     0.39862    0.00097     0.39959
      H   22    0.10075      0.00000     0.39850    0.00076     0.39925
      H   23    0.10079      0.00000     0.39788    0.00133     0.39921
      H   24    0.09279      0.00000     0.40604    0.00117     0.40721
      H   25    0.10616      0.00000     0.39175    0.00209     0.39384
      H   26    0.10538      0.00000     0.39130    0.00332     0.39462
      H   27    0.10359      0.00000     0.39422    0.00219     0.39641
      H   28    0.10427      0.00000     0.39423    0.00150     0.39573
      H   29    0.10311      0.00000     0.39555    0.00134     0.39689
      H   30    0.10204      0.00000     0.39685    0.00111     0.39796
      H   31    0.09835      0.00000     0.40005    0.00161     0.40165
      H   32    0.19298      0.00000     0.30469    0.00233     0.30702
      H   33    0.11041      0.00000     0.38829    0.00131     0.38959
      H   34    0.11738      0.00000     0.38162    0.00100     0.38262
      H   35    0.10652      0.00000     0.39208    0.00140     0.39348
      H   36    0.09903      0.00000     0.40015    0.00082     0.40097
      H   37    0.10331      0.00000     0.39529    0.00140     0.39669
      H   38    0.10347      0.00000     0.39470    0.00184     0.39653
      H   39    0.10402      0.00000     0.39481    0.00117     0.39598
      H   40    0.10268      0.00000     0.39621    0.00110     0.39732
      H   41    0.10528      0.00000     0.39349    0.00123     0.39472
 =======================================================================
   * Total *   -0.00000     19.99141    51.78024    0.22834    72.00000

 Normal termination of Gaussian 16 at Sun Dec 13 22:35:33 2020.
