 Gaussian 16, Revision A.03,

 -----------------------------------------------------------
 # opt freq B3LYP/6-31G(d) empiricaldispersion=gd3bj scf=xqc
 -----------------------------------------------------------

 ------------------------------
 CID_54405558_JID_7462_neutraal
 ------------------------------
 Symbolic Z-matrix:
 Charge =  0 Multiplicity = 1

 SCF Done:  E(RB3LYP) =  -764.965401849     A.U. after   18 cycles
 SCF Done:  E(RB3LYP) =  -764.970974361     A.U. after   15 cycles
 SCF Done:  E(RB3LYP) =  -764.972004248     A.U. after   16 cycles
 SCF Done:  E(RB3LYP) =  -764.972570215     A.U. after   14 cycles
 SCF Done:  E(RB3LYP) =  -764.973033859     A.U. after   15 cycles
 SCF Done:  E(RB3LYP) =  -764.973212276     A.U. after   14 cycles
 SCF Done:  E(RB3LYP) =  -764.973335284     A.U. after   12 cycles
 SCF Done:  E(RB3LYP) =  -764.973371477     A.U. after   13 cycles
 SCF Done:  E(RB3LYP) =  -764.973379863     A.U. after   12 cycles
 SCF Done:  E(RB3LYP) =  -764.973385022     A.U. after   11 cycles
 SCF Done:  E(RB3LYP) =  -764.973386286     A.U. after   11 cycles
 SCF Done:  E(RB3LYP) =  -764.973386876     A.U. after   11 cycles
 SCF Done:  E(RB3LYP) =  -764.973388097     A.U. after   10 cycles
 SCF Done:  E(RB3LYP) =  -764.973388120     A.U. after    9 cycles
 Optimization completed.
    -- Stationary point found.
 Normal termination of Gaussian 16 at Sun Dec 13 20:11:44 2020.

 --------------------------------------------------------------------
 #N Geom=AllCheck Guess=TCheck SCRF=Check GenChk RB3LYP/6-31G(d) Freq
 --------------------------------------------------------------------

 Structure from the checkpoint file:  "JID_7462.chk"
 ------------------------------
 CID_54405558_JID_7462_neutraal
 ------------------------------
 Charge =  0 Multiplicity = 1

 SCF Done:  E(RB3LYP) =  -764.973388120     A.U. after    1 cycles

  Exact polarizability: 178.607  13.327 141.822  17.256  -8.746 111.922
 Approx polarizability: 232.055  29.827 252.697  33.733 -14.699 178.216

                      1                      2                      3
                      A                      A                      A
 Frequencies --     27.4465                33.4025                40.6879
 Red. masses --      4.1121                 5.8572                 4.8526
 Frc consts  --      0.0018                 0.0039                 0.0047
 IR Inten    --      0.9559                 0.3046                 0.7263

                      4                      5                      6
                      A                      A                      A
 Frequencies --     61.3321                83.4963                85.8266
 Red. masses --      6.8453                 5.2043                 4.7372
 Frc consts  --      0.0152                 0.0214                 0.0206
 IR Inten    --      1.1092                 0.6431                 3.5899

                      7                      8                      9
                      A                      A                      A
 Frequencies --    120.7996               188.6132               217.5252
 Red. masses --      4.8902                 4.9337                 1.0756
 Frc consts  --      0.0420                 0.1034                 0.0300
 IR Inten    --      2.4801                 2.6609                 0.4739

                     10                     11                     12
                      A                      A                      A
 Frequencies --    228.2359               261.7740               282.9530
 Red. masses --      5.0837                 2.7806                 2.8605
 Frc consts  --      0.1560                 0.1123                 0.1349
 IR Inten    --      3.4332                 0.7054                 4.1618

                     13                     14                     15
                      A                      A                      A
 Frequencies --    301.7010               323.7619               354.4270
 Red. masses --      4.1558                 3.6479                 2.8739
 Frc consts  --      0.2229                 0.2253                 0.2127
 IR Inten    --      5.4640                 2.5002                 0.4493

                     16                     17                     18
                      A                      A                      A
 Frequencies --    390.6191               417.6773               465.7202
 Red. masses --      2.5585                 3.0109                 3.6283
 Frc consts  --      0.2300                 0.3095                 0.4637
 IR Inten    --      3.5580                 0.1524                 3.7599

                     19                     20                     21
                      A                      A                      A
 Frequencies --    494.7623               522.5897               584.8988
 Red. masses --      3.5513                 3.1484                 3.4518
 Frc consts  --      0.5122                 0.5066                 0.6958
 IR Inten    --     12.9763                 2.7934                 4.1139

                     22                     23                     24
                      A                      A                      A
 Frequencies --    601.9474               637.0177               672.9463
 Red. masses --      4.5540                 6.2421                 4.3504
 Frc consts  --      0.9722                 1.4924                 1.1608
 IR Inten    --      9.3283                 0.3578                 7.5341

                     25                     26                     27
                      A                      A                      A
 Frequencies --    691.3905               711.8883               722.5628
 Red. masses --      3.1591                 4.7329                 1.5836
 Frc consts  --      0.8897                 1.4132                 0.4871
 IR Inten    --      3.2809                 7.9032                46.3958

                     28                     29                     30
                      A                      A                      A
 Frequencies --    775.9763               779.9038               821.8962
 Red. masses --      3.3171                 2.7007                 3.9399
 Frc consts  --      1.1768                 0.9679                 1.5681
 IR Inten    --      5.5417                 8.7453                26.1725

                     31                     32                     33
                      A                      A                      A
 Frequencies --    826.3786               834.0043               868.2677
 Red. masses --      4.3235                 3.5185                 1.2478
 Frc consts  --      1.7396                 1.4419                 0.5543
 IR Inten    --      3.3300                 8.3497                 0.1981

                     34                     35                     36
                      A                      A                      A
 Frequencies --    925.2396               936.8315               956.6233
 Red. masses --      1.7416                 1.5410                 1.9230
 Frc consts  --      0.8784                 0.7968                 1.0368
 IR Inten    --      3.6132                 1.8684                10.0258

                     37                     38                     39
                      A                      A                      A
 Frequencies --    966.0511               976.8235              1003.9562
 Red. masses --      1.8662                 1.3360                 1.2875
 Frc consts  --      1.0262                 0.7511                 0.7646
 IR Inten    --      2.2273                 0.5743                 1.8380

                     40                     41                     42
                      A                      A                      A
 Frequencies --   1007.1463              1022.2472              1039.8944
 Red. masses --      1.6393                 6.2679                 2.1247
 Frc consts  --      0.9797                 3.8591                 1.3537
 IR Inten    --      1.5315                 0.6056                 0.7030

                     43                     44                     45
                      A                      A                      A
 Frequencies --   1060.1662              1067.4259              1091.8922
 Red. masses --      2.3659                 2.7845                 1.5942
 Frc consts  --      1.5667                 1.8693                 1.1198
 IR Inten    --      1.3162                 5.7041                 3.5531

                     46                     47                     48
                      A                      A                      A
 Frequencies --   1111.0557              1122.8653              1170.5332
 Red. masses --      1.6494                 1.6106                 1.7494
 Frc consts  --      1.1996                 1.1965                 1.4122
 IR Inten    --      6.5237                 7.8202                 8.8406

                     49                     50                     51
                      A                      A                      A
 Frequencies --   1194.4880              1199.5993              1213.6200
 Red. masses --      1.1093                 1.3728                 1.5909
 Frc consts  --      0.9326                 1.1640                 1.3806
 IR Inten    --      0.0911                 5.2846                 5.8017

                     52                     53                     54
                      A                      A                      A
 Frequencies --   1217.0755              1230.8609              1234.7131
 Red. masses --      1.1908                 1.3662                 2.4031
 Frc consts  --      1.0393                 1.2195                 2.1585
 IR Inten    --      2.8899                 1.4034                 3.0486

                     55                     56                     57
                      A                      A                      A
 Frequencies --   1254.0803              1288.5099              1299.9738
 Red. masses --      1.2760                 1.5707                 2.3433
 Frc consts  --      1.1823                 1.5364                 2.3331
 IR Inten    --      7.9445                51.8836                74.7320

                     58                     59                     60
                      A                      A                      A
 Frequencies --   1334.9860              1345.9061              1351.7575
 Red. masses --      2.0126                 1.7071                 1.7684
 Frc consts  --      2.1133                 1.8220                 1.9038
 IR Inten    --     26.7582                 5.3301                 5.9892

                     61                     62                     63
                      A                      A                      A
 Frequencies --   1369.6877              1380.8520              1396.6741
 Red. masses --      2.5125                 1.4307                 1.3829
 Frc consts  --      2.7772                 1.6073                 1.5894
 IR Inten    --      6.8623                14.5294                 3.5657

                     64                     65                     66
                      A                      A                      A
 Frequencies --   1402.5424              1447.2615              1468.6386
 Red. masses --      1.4026                 1.2945                 2.3223
 Frc consts  --      1.6256                 1.5975                 2.9511
 IR Inten    --     22.4401                16.9949                92.6086

                     67                     68                     69
                      A                      A                      A
 Frequencies --   1498.2190              1505.1915              1506.4627
 Red. masses --      1.0831                 1.1314                 2.0840
 Frc consts  --      1.4324                 1.5103                 2.7865
 IR Inten    --      4.9181                14.0700                 4.9663

                     70                     71                     72
                      A                      A                      A
 Frequencies --   1515.3766              1525.4400              1548.5815
 Red. masses --      1.0504                 1.0513                 2.2006
 Frc consts  --      1.4212                 1.4413                 3.1093
 IR Inten    --      9.5448                 7.1198                 9.2328

                     73                     74                     75
                      A                      A                      A
 Frequencies --   1560.0407              1648.8446              1668.3778
 Red. masses --      1.1050                 5.5372                 5.5142
 Frc consts  --      1.5845                 8.8695                 9.0432
 IR Inten    --     14.9730                 1.5510                 2.9586

                     76                     77                     78
                      A                      A                      A
 Frequencies --   1676.5228              1803.8491              3021.2909
 Red. masses --     12.7330                11.4899                 1.0823
 Frc consts  --     21.0863                22.0275                 5.8206
 IR Inten    --     89.8629               309.9591                10.2858

                     79                     80                     81
                      A                      A                      A
 Frequencies --   3026.8553              3058.6609              3064.3558
 Red. masses --      1.0619                 1.0661                 1.1024
 Frc consts  --      5.7323                 5.8762                 6.0992
 IR Inten    --     39.7863                29.9561                34.6430

                     82                     83                     84
                      A                      A                      A
 Frequencies --   3074.8588              3077.1568              3102.5854
 Red. masses --      1.0664                 1.0374                 1.0852
 Frc consts  --      5.9404                 5.7875                 6.1544
 IR Inten    --      7.4690                 7.0033                18.4212

                     85                     86                     87
                      A                      A                      A
 Frequencies --   3128.2681              3134.1208              3145.8743
 Red. masses --      1.0986                 1.0977                 1.1025
 Frc consts  --      6.3343                 6.3526                 6.4288
 IR Inten    --      2.8128                 6.1124                21.2062

                     88                     89                     90
                      A                      A                      A
 Frequencies --   3153.0771              3173.5133              3185.6222
 Red. masses --      1.1022                 1.0872                 1.0865
 Frc consts  --      6.4560                 6.4511                 6.4963
 IR Inten    --     11.6905                10.0559                 0.6867

                     91                     92                     93
                      A                      A                      A
 Frequencies --   3195.1788              3204.0391              3212.1103
 Red. masses --      1.0906                 1.0939                 1.0980
 Frc consts  --      6.5599                 6.6165                 6.6745
 IR Inten    --     19.4347                20.6017                19.5821

 - Thermochemistry -
 -------------------
 Temperature   298.150 Kelvin.  Pressure   1.00000 Atm.
 Atom     1 has atomic number  6 and mass  12.00000

 Molecular mass:   232.12118 amu.
 Principal axes and moments of inertia in atomic units:
                           1         2         3
     Eigenvalues --  1499.311627997.984628379.92382
           X            0.99996   0.00056   0.00866
           Y            0.00006   0.99746  -0.07129
           Z           -0.00868   0.07128   0.99742
 This molecule is an asymmetric top.
 Rotational symmetry number  1.
 Warning -- assumption of classical behavior for rotation
           may cause significant error
 Rotational temperatures (Kelvin)      0.05777     0.01083     0.01034
 Rotational constants (GHZ):           1.20371     0.22565     0.21536
 Zero-point vibrational energy     723363.2 (Joules/Mol)
                                  172.88795 (Kcal/Mol)
 Warning -- explicit consideration of  22 degrees of freedom as
           vibrations may cause significant error
 Vibrational temperatures:     39.49    48.06    58.54    88.24   120.13
          (Kelvin)            123.49   173.80   271.37   312.97   328.38
                              376.63   407.11   434.08   465.82   509.94
                              562.01   600.94   670.07   711.85   751.89
                              841.54   866.07   916.53   968.22   994.76
                             1024.25  1039.61  1116.46  1122.11  1182.53
                             1188.97  1199.95  1249.24  1331.21  1347.89
                             1376.37  1389.93  1405.43  1444.47  1449.06
                             1470.79  1496.18  1525.34  1535.79  1570.99
                             1598.56  1615.55  1684.14  1718.60  1725.96
                             1746.13  1751.10  1770.93  1776.48  1804.34
                             1853.88  1870.37  1920.75  1936.46  1944.88
                             1970.68  1986.74  2009.50  2017.95  2082.29
                             2113.04  2155.60  2165.63  2167.46  2180.29
                             2194.77  2228.06  2244.55  2372.32  2400.42
                             2412.14  2595.34  4346.96  4354.97  4400.73
                             4408.92  4424.04  4427.34  4463.93  4500.88
                             4509.30  4526.21  4536.57  4565.98  4583.40
                             4597.15  4609.90  4621.51

 Zero-point correction=                           0.275514 (Hartree/Particle)
 Thermal correction to Energy=                    0.291111
 Thermal correction to Enthalpy=                  0.292055
 Thermal correction to Gibbs Free Energy=         0.230407
 Sum of electronic and zero-point Energies=           -764.697874
 Sum of electronic and thermal Energies=              -764.682278
 Sum of electronic and thermal Enthalpies=            -764.681333
 Sum of electronic and thermal Free Energies=         -764.742981

                     E (Thermal)             CV                S
                      KCal/Mol        Cal/Mol-Kelvin    Cal/Mol-Kelvin
 Total                  182.675             58.879            129.748
 Electronic               0.000              0.000              0.000
 Translational            0.889              2.981             42.228
 Rotational               0.889              2.981             32.974
 Vibrational            180.897             52.917             54.546
 Vibration     1          0.593              1.984              6.006
 Vibration     2          0.594              1.983              5.616
 Vibration     3          0.594              1.981              5.225
 Vibration     4          0.597              1.973              4.414
 Vibration     5          0.600              1.961              3.807
 Vibration     6          0.601              1.959              3.753
 Vibration     7          0.609              1.932              3.088
 Vibration     8          0.633              1.856              2.241
 Vibration     9          0.646              1.814              1.980
 Vibration    10          0.651              1.798              1.893
 Vibration    11          0.669              1.743              1.650
 Vibration    12          0.682              1.705              1.516
 Vibration    13          0.694              1.670              1.407
 Vibration    14          0.708              1.628              1.291
 Vibration    15          0.730              1.566              1.146
 Vibration    16          0.758              1.490              0.998
 Vibration    17          0.781              1.432              0.900
 Vibration    18          0.823              1.326              0.750
 Vibration    19          0.850              1.262              0.671
 Vibration    20          0.878              1.200              0.604
 Vibration    21          0.942              1.064              0.476
 Vibration    22          0.960              1.028              0.446

 Optimization completed.
    -- Stationary point found.
 Normal termination of Gaussian 16 at Sun Dec 13 20:24:15 2020.

 ----------------------------------------------------------------------
 # B3LYP/6-311++G(d,p) empiricaldispersion=gd3bj scf=xqc pop=npa geom=c
 heck
 ----------------------------------------------------------------------

 --------------------------------------
 CID_54405558_JID_7462_Energie_neutraal
 --------------------------------------
 Structure from the checkpoint file:  "JID_7462.chk"
 Charge =  0 Multiplicity = 1

 SCF Done:  E(RB3LYP) =  -765.183942154     A.U. after   18 cycles
 Normal termination of Gaussian 16 at Sun Dec 13 20:31:07 2020.

 ----------------------------------------------------------------------
 # B3LYP/6-311++G(d,p) empiricaldispersion=gd3bj scf=xqc pop=npa geom=c
 heck
 ----------------------------------------------------------------------

 ------------------------------------
 CID_54405558_JID_7462_Energie_kation
 ------------------------------------
 Structure from the checkpoint file:  "JID_7462.chk"
 Charge =  1 Multiplicity = 2

 SCF Done:  E(UB3LYP) =  -764.878917505     A.U. after   33 cycles
 SCF Done:  E(UB3LYP) =  -764.878917505     a.u. after    2 cycles
 Normal termination of Gaussian 16 at Sun Dec 13 21:06:55 2020.
 Gaussian 16:  ES64L-G16RevA.03 25-Dec-2016

 ----------------------------------------------------------------------
 # B3LYP/6-311++G(d,p) empiricaldispersion=gd3bj scf=xqc pop=npa geom=c
 heck
 ----------------------------------------------------------------------

 -----------------------------------
 CID_54405558_JID_7462_Energie_anion
 -----------------------------------
 Structure from the checkpoint file:  "JID_7462.chk"
 Charge = -1 Multiplicity = 2

                         Standard orientation:
 ---------------------------------------------------------------------
 Center     Atomic      Atomic             Coordinates (Angstroms)
 Number     Number       Type             X           Y           Z
 ---------------------------------------------------------------------
      1          6           0        3.170510   -0.546309    1.316366
      2          6           0        3.049183   -0.993990   -0.131381
      3          6           0        1.804829   -0.496420   -0.904278
      4          6           0        1.652129    1.036252   -0.869953
      5          6           0        0.623269    1.311109    0.222994
      6          8           0        0.316021    2.397485    0.689823
      7          7           0        0.069211    0.106532    0.577387
      8          6           0        0.490071   -1.001664   -0.262728
      9          6           0       -1.106481    0.025002    1.430383
     10          6           0       -2.387163   -0.090933    0.629837
     11          6           0       -2.833987    1.004493   -0.122153
     12          6           0       -3.987894    0.902094   -0.895735
     13          6           0       -4.708727   -0.295044   -0.928088
     14          6           0       -4.269298   -1.388509   -0.183133
     15          6           0       -3.111075   -1.284835    0.590534
     16          7           0        4.217536   -0.613616   -1.002923
     17          8           0        5.037959    0.089946   -0.457790
     18          1           0        3.182952    0.542946    1.405183
     19          1           0        4.100578   -0.920933    1.753028
     20          1           0        2.330644   -0.927416    1.903275
     21          1           0        3.049497   -2.092551   -0.201950
     22          1           0        1.894343   -0.864717   -1.929630
     23          1           0        1.246800    1.418908   -1.813870
     24          1           0        2.579985    1.580007   -0.676298
     25          1           0       -0.270198   -1.228460   -1.023393
     26          1           0        0.636252   -1.907343    0.339124
     27          1           0       -0.995470   -0.833931    2.102798
     28          1           0       -1.103774    0.938056    2.031509
     29          1           0       -2.269978    1.932730   -0.090202
     30          1           0       -4.329730    1.757989   -1.471098
     31          1           0       -5.609657   -0.372393   -1.530193
     32          1           0       -4.824947   -2.321940   -0.203477
     33          1           0       -2.768560   -2.138274    1.171684
 ---------------------------------------------------------------------

 SCF Done:  E(UB3LYP) =  -765.204098300     A.U. after   33 cycles
 SCF Done:  E(UB3LYP) =  -765.204946351     a.u. after    7 cycles

 The electronic state is 2-A.
 Alpha  occ. eigenvalues --  -18.98964 -18.94634 -14.24330 -14.18211 -10.16692
 Alpha  occ. eigenvalues --  -10.12277 -10.10634 -10.10269 -10.09780 -10.09758
 Alpha  occ. eigenvalues --  -10.09696 -10.09650 -10.09249 -10.06931 -10.06701
 Alpha  occ. eigenvalues --  -10.05373 -10.03685  -0.94363  -0.94074  -0.85397
 Alpha  occ. eigenvalues --   -0.78039  -0.71966  -0.68129  -0.66944  -0.64087
 Alpha  occ. eigenvalues --   -0.61426  -0.59374  -0.55217  -0.53026  -0.51267
 Alpha  occ. eigenvalues --   -0.49274  -0.45066  -0.42916  -0.41748  -0.40521
 Alpha  occ. eigenvalues --   -0.38830  -0.38201  -0.37208  -0.35339  -0.34822
 Alpha  occ. eigenvalues --   -0.34421  -0.33284  -0.31669  -0.30834  -0.30347
 Alpha  occ. eigenvalues --   -0.29852  -0.29737  -0.28368  -0.27269  -0.26568
 Alpha  occ. eigenvalues --   -0.26332  -0.25981  -0.25508  -0.24104  -0.23203
 Alpha  occ. eigenvalues --   -0.20444  -0.19768  -0.17918  -0.17603  -0.15613
 Alpha  occ. eigenvalues --   -0.14802  -0.02878   0.03742
 Alpha virt. eigenvalues --    0.04828   0.05954   0.06286   0.06610   0.07498
 Alpha virt. eigenvalues --    0.08796   0.09079   0.09808   0.10333   0.10841
 Alpha virt. eigenvalues --    0.11303   0.12187   0.12321   0.12602   0.13250

  Beta  occ. eigenvalues --  -18.98963 -18.93773 -14.24330 -14.17247 -10.16688
  Beta  occ. eigenvalues --  -10.12276 -10.10622 -10.10267 -10.09776 -10.09745
  Beta  occ. eigenvalues --  -10.09689 -10.09638 -10.09242 -10.06882 -10.06704
  Beta  occ. eigenvalues --  -10.05422 -10.03684  -0.94078  -0.92656  -0.85387
  Beta  occ. eigenvalues --   -0.78021  -0.71893  -0.68030  -0.66921  -0.63926
  Beta  occ. eigenvalues --   -0.61387  -0.59353  -0.54674  -0.52980  -0.51215
  Beta  occ. eigenvalues --   -0.48671  -0.44988  -0.42881  -0.41371  -0.40129
  Beta  occ. eigenvalues --   -0.38679  -0.38149  -0.37056  -0.35300  -0.34624
  Beta  occ. eigenvalues --   -0.34379  -0.33033  -0.31471  -0.30710  -0.30301
  Beta  occ. eigenvalues --   -0.29658  -0.29442  -0.28314  -0.27239  -0.26539
  Beta  occ. eigenvalues --   -0.26200  -0.25798  -0.24556  -0.23135  -0.21877
  Beta  occ. eigenvalues --   -0.19081  -0.18353  -0.17894  -0.17565  -0.15594
  Beta  occ. eigenvalues --   -0.14789  -0.01903
  Beta virt. eigenvalues --    0.05480   0.05999   0.06286   0.06833   0.07673
  Beta virt. eigenvalues --    0.08912   0.08979   0.09788   0.10329   0.10755
  Beta virt. eigenvalues --    0.11267   0.12098   0.12373   0.12560   0.13176

 Mulliken charges and spin densities:
               1          2
     1  C   -0.742368  -0.003180
     2  C   -0.175934  -0.101463
     3  C    0.706151   0.127979
     4  C   -0.551861  -0.002250
     5  C   -0.188089   0.006608
     6  O   -0.338510  -0.000250
     7  N    0.239594  -0.005802
     8  C   -0.812194  -0.043164
     9  C   -0.203168  -0.483081
    10  C    0.903418   0.124292
    11  C   -0.634405   0.396396
    12  C   -0.238397  -0.048057
    13  C    0.499786  -0.897820
    14  C    0.133872  -0.439631
    15  C   -0.491400   0.325905
    16  N   -0.250849   0.453783
    17  O   -0.228870   0.272862
    18  H    0.191768   0.001373
    19  H    0.153628   0.009365
    20  H    0.079668   0.001822
    21  H    0.123100   0.016432
    22  H    0.175616  -0.013814
    23  H    0.166337   0.009832
    24  H    0.239947  -0.005205
    25  H    0.165281  -0.000247
    26  H    0.164983  -0.003360
    27  H    0.139529   0.027466
    28  H    0.202389   0.015681
    29  H    0.166626   0.011321
    30  H    0.049240   0.128251
    31  H   -0.260605   0.410003
    32  H   -0.431091   0.616903
    33  H    0.046809   0.091047
 Sum of Mulliken charges =  -1.00000   1.00000

 Dipole moment (field-independent basis, Debye):
    X=             -7.7071    Y=             -1.0416    Z=              2.3114  Tot=              8.1134
 Quadrupole moment (field-independent basis, Debye-Ang):
   XX=           -220.3398   YY=           -124.4567   ZZ=           -116.9045
   XY=             -7.7835   XZ=              7.3938   YZ=             -7.4779

 Summary of Natural Population Analysis:

                                       Natural Population
                Natural  -----------------------------------------------
    Atom  No    Charge         Core      Valence    Rydberg      Total
 -----------------------------------------------------------------------
      C    1   -0.30345      0.99964     2.29639    0.00742     3.30345
      C    2   -0.06102      0.99959     2.04152    0.01991     3.06102
      C    3   -0.11310      0.99958     2.09838    0.01515     3.11310
      C    4   -0.23457      0.99958     2.22594    0.00905     3.23457
      C    5    0.35353      0.99963     1.62372    0.02312     2.64647
      O    6   -0.33044      0.99987     3.32478    0.00579     4.33044
      N    7   -0.25650      0.99963     2.74742    0.00946     3.75650
      C    8   -0.07686      0.99962     2.06700    0.01025     3.07686
      C    9   -0.09272      0.99959     2.08253    0.01060     3.09272
      C   10   -0.02305      0.99950     2.01372    0.00983     3.02305
      C   11   -0.09875      0.99951     2.08998    0.00925     3.09875
      C   12   -0.09985      0.99957     2.09026    0.01002     3.09985
      C   13   -0.10501      0.99957     2.09538    0.01006     3.10501
      C   14   -0.09959      0.99957     2.08957    0.01045     3.09959
      C   15   -0.10236      0.99951     2.09279    0.01006     3.10236
      N   16    0.12069      0.99980     2.34560    0.03391     3.37931
      O   17   -0.11517      0.99990     3.10262    0.01266     4.11517
      H   18    0.10335      0.00000     0.39577    0.00088     0.39665
      H   19    0.10558      0.00000     0.39339    0.00103     0.39442
      H   20    0.09076      0.00000     0.40825    0.00099     0.40924
      H   21    0.09066      0.00000     0.40656    0.00278     0.40934
      H   22    0.10439      0.00000     0.39123    0.00438     0.39561
      H   23    0.10923      0.00000     0.38969    0.00108     0.39077
      H   24    0.12234      0.00000     0.37601    0.00166     0.37766
      H   25    0.09137      0.00000     0.40764    0.00098     0.40863
      H   26    0.09307      0.00000     0.40594    0.00099     0.40693
      H   27    0.09566      0.00000     0.40331    0.00103     0.40434
      H   28    0.11649      0.00000     0.38219    0.00132     0.38351
      H   29    0.11096      0.00000     0.38736    0.00168     0.38904
      H   30    0.10052      0.00000     0.39875    0.00073     0.39948
      H   31    0.10181      0.00000     0.39715    0.00105     0.39819
      H   32    0.10213      0.00000     0.39663    0.00123     0.39787
      H   33    0.09991      0.00000     0.39908    0.00101     0.40009
 =======================================================================
   * Total *    0.00000     16.99365    44.76653    0.23982    62.00000

 Normal termination of Gaussian 16 at Sun Dec 13 23:10:40 2020.
