 Gaussian 16, Revision A.03,

 -----------------------------------------------------------
 # opt freq B3LYP/6-31G(d) empiricaldispersion=gd3bj scf=xqc
 -----------------------------------------------------------

 -------------------------------
 CID_153080372_JID_4683_neutraal
 -------------------------------
 Symbolic Z-matrix:
 Charge =  0 Multiplicity = 1

 SCF Done:  E(RB3LYP) =  -549.225486610     A.U. after   13 cycles
 SCF Done:  E(RB3LYP) =  -549.227387439     A.U. after   11 cycles
 SCF Done:  E(RB3LYP) =  -549.227377587     A.U. after   11 cycles
 SCF Done:  E(RB3LYP) =  -549.227513982     A.U. after   11 cycles
 SCF Done:  E(RB3LYP) =  -549.228092960     A.U. after   10 cycles
 SCF Done:  E(RB3LYP) =  -549.228162853     A.U. after    9 cycles
 SCF Done:  E(RB3LYP) =  -549.228254600     A.U. after   10 cycles
 SCF Done:  E(RB3LYP) =  -549.228309198     A.U. after    9 cycles
 SCF Done:  E(RB3LYP) =  -549.228353752     A.U. after    9 cycles
 SCF Done:  E(RB3LYP) =  -549.228368479     A.U. after    8 cycles
 SCF Done:  E(RB3LYP) =  -549.228386737     A.U. after    8 cycles
 SCF Done:  E(RB3LYP) =  -549.228387219     A.U. after    7 cycles
 SCF Done:  E(RB3LYP) =  -549.228388386     A.U. after    7 cycles
 SCF Done:  E(RB3LYP) =  -549.228388926     A.U. after    7 cycles
 SCF Done:  E(RB3LYP) =  -549.228389321     A.U. after    6 cycles
 SCF Done:  E(RB3LYP) =  -549.228389677     A.U. after    6 cycles
 Optimization completed.
    -- Stationary point found.
 Normal termination of Gaussian 16 at Thu Dec 10 10:31:40 2020.

 --------------------------------------------------------------------
 #N Geom=AllCheck Guess=TCheck SCRF=Check GenChk RB3LYP/6-31G(d) Freq
 --------------------------------------------------------------------

 Structure from the checkpoint file:  "JID_4683.chk"
 -------------------------------
 CID_153080372_JID_4683_neutraal
 -------------------------------
 Charge =  0 Multiplicity = 1

 SCF Done:  E(RB3LYP) =  -549.228389677     A.U. after    1 cycles

  Exact polarizability: 174.471   2.482 131.027   7.866   4.482 132.098
 Approx polarizability: 221.356   5.412 189.310  16.825   9.550 200.001

                      1                      2                      3
                      A                      A                      A
 Frequencies --     45.3260                81.1731                87.2452
 Red. masses --      2.2393                 1.3675                 2.3843
 Frc consts  --      0.0027                 0.0053                 0.0107
 IR Inten    --      0.0122                 0.0644                 0.0141

                      4                      5                      6
                      A                      A                      A
 Frequencies --    105.6769               118.7581               153.1064
 Red. masses --      2.2015                 2.3263                 1.2277
 Frc consts  --      0.0145                 0.0193                 0.0170
 IR Inten    --      0.0867                 0.0345                 0.7756

                      7                      8                      9
                      A                      A                      A
 Frequencies --    169.5064               186.1043               214.3975
 Red. masses --      1.2084                 1.6564                 1.7079
 Frc consts  --      0.0205                 0.0338                 0.0463
 IR Inten    --      0.2138                 0.0103                 0.1643

                     10                     11                     12
                      A                      A                      A
 Frequencies --    229.7978               239.3480               251.4282
 Red. masses --      1.4836                 2.4597                 1.8708
 Frc consts  --      0.0462                 0.0830                 0.0697
 IR Inten    --      0.0040                 0.0481                 0.0186

                     13                     14                     15
                      A                      A                      A
 Frequencies --    269.2516               279.3649               300.1894
 Red. masses --      1.2736                 1.4240                 1.9278
 Frc consts  --      0.0544                 0.0655                 0.1024
 IR Inten    --      0.0442                 0.0831                 0.3732

                     16                     17                     18
                      A                      A                      A
 Frequencies --    322.7046               351.6141               376.2734
 Red. masses --      2.3469                 2.3145                 2.4461
 Frc consts  --      0.1440                 0.1686                 0.2040
 IR Inten    --      1.1289                 1.8655                 0.5733

                     19                     20                     21
                      A                      A                      A
 Frequencies --    405.9010               417.3976               424.7130
 Red. masses --      2.6849                 1.9120                 2.0639
 Frc consts  --      0.2606                 0.1963                 0.2193
 IR Inten    --      0.0519                 1.0711                 0.2094

                     22                     23                     24
                      A                      A                      A
 Frequencies --    432.8039               456.1617               496.0559
 Red. masses --      2.1666                 2.3898                 3.0725
 Frc consts  --      0.2391                 0.2930                 0.4455
 IR Inten    --      0.3263                 0.4780                 0.1710

                     25                     26                     27
                      A                      A                      A
 Frequencies --    519.6414               532.5884               590.9034
 Red. masses --      3.2539                 2.7661                 3.1469
 Frc consts  --      0.5177                 0.4623                 0.6474
 IR Inten    --      0.2635                 0.5271                 0.8458

                     28                     29                     30
                      A                      A                      A
 Frequencies --    648.2157               734.8314               756.9734
 Red. masses --      2.1664                 3.3207                 2.4497
 Frc consts  --      0.5363                 1.0565                 0.8271
 IR Inten    --      3.3568                 0.0943                 0.5685

                     31                     32                     33
                      A                      A                      A
 Frequencies --    787.0985               845.7548               889.4418
 Red. masses --      2.7194                 2.1391                 2.1675
 Frc consts  --      0.9926                 0.9015                 1.0103
 IR Inten    --      2.0929                 0.1436                 0.0340

                     34                     35                     36
                      A                      A                      A
 Frequencies --    917.8173               932.9515               956.3293
 Red. masses --      2.1773                 2.2123                 1.5875
 Frc consts  --      1.0807                 1.1345                 0.8554
 IR Inten    --      3.4985                 1.8027                 0.4685

                     37                     38                     39
                      A                      A                      A
 Frequencies --    966.0949               973.4372               976.2478
 Red. masses --      1.5782                 1.4150                 1.5372
 Frc consts  --      0.8679                 0.7900                 0.8632
 IR Inten    --      0.4175                 0.6062                 0.3975

                     40                     41                     42
                      A                      A                      A
 Frequencies --    994.1025               995.9410              1012.0599
 Red. masses --      1.4947                 1.3150                 1.9502
 Frc consts  --      0.8703                 0.7685                 1.1769
 IR Inten    --      1.8206                 0.2485                 0.7776

                     43                     44                     45
                      A                      A                      A
 Frequencies --   1035.6667              1043.0871              1046.0515
 Red. masses --      1.8626                 1.3352                 1.4535
 Frc consts  --      1.1771                 0.8560                 0.9371
 IR Inten    --      4.3447                 0.0591                 2.1657

                     46                     47                     48
                      A                      A                      A
 Frequencies --   1070.9361              1095.9372              1105.0257
 Red. masses --      1.5139                 1.7145                 1.6084
 Frc consts  --      1.0230                 1.2133                 1.1572
 IR Inten    --      0.3390                 1.1144                 2.3811

                     49                     50                     51
                      A                      A                      A
 Frequencies --   1114.6499              1134.2633              1168.0035
 Red. masses --      1.6126                 1.6697                 2.8213
 Frc consts  --      1.1804                 1.2656                 2.2677
 IR Inten    --      0.1903                15.5505                 3.8850

                     52                     53                     54
                      A                      A                      A
 Frequencies --   1184.3154              1197.2784              1210.4541
 Red. masses --      1.6909                 1.9515                 2.3158
 Frc consts  --      1.3974                 1.6482                 1.9992
 IR Inten    --     11.6431                 2.5370                 4.4709

                     55                     56                     57
                      A                      A                      A
 Frequencies --   1221.8242              1266.4638              1292.8211
 Red. masses --      2.0450                 1.4405                 3.7119
 Frc consts  --      1.7987                 1.3612                 3.6553
 IR Inten    --      7.0106                 0.3746                 2.4015

                     58                     59                     60
                      A                      A                      A
 Frequencies --   1298.8749              1319.8782              1336.7330
 Red. masses --      2.1874                 1.3982                 1.4140
 Frc consts  --      2.1742                 1.4351                 1.4887
 IR Inten    --      1.0073                 1.5399                 1.1038

                     61                     62                     63
                      A                      A                      A
 Frequencies --   1356.8843              1362.9848              1390.3053
 Red. masses --      1.3638                 1.4789                 1.4441
 Frc consts  --      1.4794                 1.6187                 1.6446
 IR Inten    --      2.9202                 0.0105                 0.6486

                     64                     65                     66
                      A                      A                      A
 Frequencies --   1397.7238              1406.8980              1424.3432
 Red. masses --      1.4616                 1.3598                 1.3705
 Frc consts  --      1.6824                 1.5858                 1.6382
 IR Inten    --      1.8979                 2.4980                 1.1620

                     67                     68                     69
                      A                      A                      A
 Frequencies --   1428.8512              1435.7685              1441.3329
 Red. masses --      1.2520                 1.3152                 1.3051
 Frc consts  --      1.5060                 1.5974                 1.5974
 IR Inten    --      5.5129                 1.1790                10.0999

                     70                     71                     72
                      A                      A                      A
 Frequencies --   1445.7325              1451.7201              1459.9730
 Red. masses --      1.2191                 1.2439                 1.1996
 Frc consts  --      1.5013                 1.5445                 1.5066
 IR Inten    --      3.9872                 7.5816                 1.4546

                     73                     74                     75
                      A                      A                      A
 Frequencies --   1505.7014              1507.7032              1509.8947
 Red. masses --      1.0524                 1.0598                 1.0754
 Frc consts  --      1.4057                 1.4194                 1.4444
 IR Inten    --      0.6310                 0.3087                 1.9929

                     76                     77                     78
                      A                      A                      A
 Frequencies --   1514.3834              1517.2905              1520.6659
 Red. masses --      1.0525                 1.0514                 1.0532
 Frc consts  --      1.4222                 1.4261                 1.4350
 IR Inten    --      2.7653                 0.5968                 1.1728

                     79                     80                     81
                      A                      A                      A
 Frequencies --   1524.8658              1526.4471              1527.7916
 Red. masses --      1.0585                 1.0745                 1.0437
 Frc consts  --      1.4501                 1.4750                 1.4354
 IR Inten    --      8.6275                 2.4522                10.3602

                     82                     83                     84
                      A                      A                      A
 Frequencies --   1532.3185              1535.0793              1539.5821
 Red. masses --      1.0742                 1.0644                 1.0630
 Frc consts  --      1.4861                 1.4778                 1.4845
 IR Inten    --      1.9956                 3.3088                 5.1334

                     85                     86                     87
                      A                      A                      A
 Frequencies --   1541.2390              1543.5703              1546.8678
 Red. masses --      1.0785                 1.0584                 1.0572
 Frc consts  --      1.5094                 1.4858                 1.4904
 IR Inten    --      6.5580                 8.7213                 1.7996

                     88                     89                     90
                      A                      A                      A
 Frequencies --   1734.1855              3023.9104              3027.6533
 Red. masses --      6.1326                 1.0438                 1.0584
 Frc consts  --     10.8664                 5.6237                 5.7161
 IR Inten    --      0.7479                14.2067                14.0187

                     91                     92                     93
                      A                      A                      A
 Frequencies --   3029.6985              3030.8053              3032.4796
 Red. masses --      1.0663                 1.0451                 1.0495
 Frc consts  --      5.7667                 5.6563                 5.6865
 IR Inten    --     10.9136               102.0614                16.3878

                     94                     95                     96
                      A                      A                      A
 Frequencies --   3036.2858              3042.7084              3047.0140
 Red. masses --      1.0460                 1.0730                 1.0437
 Frc consts  --      5.6816                 5.8528                 5.7094
 IR Inten    --     42.2518                33.0397                19.6787

                     97                     98                     99
                      A                      A                      A
 Frequencies --   3049.8949              3051.8727              3060.4689
 Red. masses --      1.0437                 1.0493                 1.0937
 Frc consts  --      5.7198                 5.7583                 6.0358
 IR Inten    --     32.3364                29.2564                20.9128

                    100                    101                    102
                      A                      A                      A
 Frequencies --   3060.9747              3062.7590              3067.0978
 Red. masses --      1.0840                 1.0990                 1.0987
 Frc consts  --      5.9839                 6.0741                 6.0895
 IR Inten    --     22.2382                 3.5437                50.1869

                    103                    104                    105
                      A                      A                      A
 Frequencies --   3071.9644              3080.1241              3094.8382
 Red. masses --      1.1033                 1.0977                 1.0964
 Frc consts  --      6.1342                 6.1356                 6.1874
 IR Inten    --     43.5288                43.2969                32.7949

                    106                    107                    108
                      A                      A                      A
 Frequencies --   3099.6165              3103.7597              3106.4874
 Red. masses --      1.1025                 1.1017                 1.1016
 Frc consts  --      6.2406                 6.2531                 6.2635
 IR Inten    --      2.2734                63.0210                68.3787

                    109                    110                    111
                      A                      A                      A
 Frequencies --   3111.4872              3126.5049              3128.0596
 Red. masses --      1.0997                 1.0981                 1.1013
 Frc consts  --      6.2728                 6.3245                 6.3487
 IR Inten    --     36.4161                34.1242                40.3086

                    112                    113                    114
                      A                      A                      A
 Frequencies --   3152.3163              3159.9368              3174.2172
 Red. masses --      1.0966                 1.0923                 1.0897
 Frc consts  --      6.4205                 6.4260                 6.4688
 IR Inten    --     17.1315                28.5661                41.5453

 - Thermochemistry -
 -------------------
 Temperature   298.150 Kelvin.  Pressure   1.00000 Atm.
 Atom     1 has atomic number  6 and mass  12.00000

 Molecular mass:   194.20345 amu.
 Principal axes and moments of inertia in atomic units:
                           1         2         3
     Eigenvalues --  1656.435624374.432224529.36101
           X            0.99999   0.00444  -0.00001
           Y           -0.00443   0.99818   0.06013
           Z            0.00027  -0.06013   0.99819
 This molecule is an asymmetric top.
 Rotational symmetry number  1.
 Warning -- assumption of classical behavior for rotation
           may cause significant error
 Rotational temperatures (Kelvin)      0.05229     0.01980     0.01912
 Rotational constants (GHZ):           1.08953     0.41257     0.39845
 Zero-point vibrational energy     982433.4 (Joules/Mol)
                                  234.80721 (Kcal/Mol)
 Warning -- explicit consideration of  27 degrees of freedom as
           vibrations may cause significant error
 Vibrational temperatures:     65.21   116.79   125.53   152.05   170.87
          (Kelvin)            220.29   243.88   267.76   308.47   330.63
                              344.37   361.75   387.39   401.94   431.91
                              464.30   505.89   541.37   584.00   600.54
                              611.07   622.71   656.32   713.71   747.65
                              766.28   850.18   932.64  1057.26  1089.12
                             1132.46  1216.85  1279.71  1320.53  1342.31
                             1375.94  1390.00  1400.56  1404.60  1430.29
                             1432.94  1456.13  1490.09  1500.77  1505.03
                             1540.84  1576.81  1589.89  1603.73  1631.95
                             1680.50  1703.97  1722.62  1741.57  1757.93
                             1822.16  1860.08  1868.79  1899.01  1923.26
                             1952.25  1961.03  2000.34  2011.01  2024.21
                             2049.31  2055.80  2065.75  2073.76  2080.09
                             2088.70  2100.58  2166.37  2169.25  2172.40
                             2178.86  2183.04  2187.90  2193.94  2196.22
                             2198.15  2204.66  2208.64  2215.12  2217.50
                             2220.85  2225.60  2495.11  4350.73  4356.12
                             4359.06  4360.65  4363.06  4368.54  4377.78
                             4383.97  4388.12  4390.96  4403.33  4404.06
                             4406.63  4412.87  4419.87  4431.61  4452.78
                             4459.66  4465.62  4469.54  4476.74  4498.34
                             4500.58  4535.48  4546.44  4566.99

 Zero-point correction=                           0.374189 (Hartree/Particle)
 Thermal correction to Energy=                    0.390742
 Thermal correction to Enthalpy=                  0.391686
 Thermal correction to Gibbs Free Energy=         0.331939
 Sum of electronic and zero-point Energies=           -548.854201
 Sum of electronic and thermal Energies=              -548.837648
 Sum of electronic and thermal Enthalpies=            -548.836703
 Sum of electronic and thermal Free Energies=         -548.896451

                     E (Thermal)             CV                S
                      KCal/Mol        Cal/Mol-Kelvin    Cal/Mol-Kelvin
 Total                  245.194             64.446            125.748
 Electronic               0.000              0.000              0.000
 Translational            0.889              2.981             41.696
 Rotational               0.889              2.981             31.862
 Vibrational            243.417             58.484             52.190
 Vibration     1          0.595              1.979              5.012
 Vibration     2          0.600              1.962              3.862
 Vibration     3          0.601              1.958              3.721
 Vibration     4          0.605              1.945              3.347
 Vibration     5          0.609              1.934              3.120
 Vibration     6          0.619              1.899              2.633
 Vibration     7          0.625              1.880              2.441
 Vibration     8          0.632              1.859              2.266
 Vibration     9          0.644              1.819              2.006
 Vibration    10          0.652              1.795              1.881
 Vibration    11          0.657              1.780              1.808
 Vibration    12          0.663              1.760              1.721
 Vibration    13          0.674              1.730              1.601
 Vibration    14          0.680              1.712              1.538
 Vibration    15          0.693              1.673              1.416
 Vibration    16          0.708              1.630              1.296
 Vibration    17          0.728              1.572              1.159
 Vibration    18          0.747              1.521              1.054
 Vibration    19          0.771              1.457              0.941
 Vibration    20          0.780              1.432              0.901
 Vibration    21          0.787              1.416              0.876
 Vibration    22          0.794              1.399              0.850
 Vibration    23          0.814              1.347              0.777
 Vibration    24          0.852              1.259              0.668
 Vibration    25          0.875              1.206              0.611
 Vibration    26          0.888              1.178              0.581
 Vibration    27          0.948              1.051              0.466

 Optimization completed.
    -- Stationary point found.
 Normal termination of Gaussian 16 at Thu Dec 10 10:46:32 2020.

 ----------------------------------------------------------------------
 # B3LYP/6-311++G(d,p) empiricaldispersion=gd3bj scf=xqc pop=npa geom=c
 heck
 ----------------------------------------------------------------------

 ---------------------------------------
 CID_153080372_JID_4683_Energie_neutraal
 ---------------------------------------
 Structure from the checkpoint file:  "JID_4683.chk"
 Charge =  0 Multiplicity = 1

 SCF Done:  E(RB3LYP) =  -549.376109096     A.U. after   13 cycles
 Normal termination of Gaussian 16 at Thu Dec 10 10:53:58 2020.

 ----------------------------------------------------------------------
 # B3LYP/6-311++G(d,p) empiricaldispersion=gd3bj scf=xqc pop=npa geom=c
 heck
 ----------------------------------------------------------------------

 -------------------------------------
 CID_153080372_JID_4683_Energie_kation
 -------------------------------------
 Structure from the checkpoint file:  "JID_4683.chk"
 Charge =  1 Multiplicity = 2

 SCF Done:  E(UB3LYP) =  -549.085282868     A.U. after   18 cycles
 Normal termination of Gaussian 16 at Thu Dec 10 11:07:56 2020.
 Gaussian 16:  ES64L-G16RevA.03 25-Dec-2016

 ----------------------------------------------------------------------
 # B3LYP/6-311++G(d,p) empiricaldispersion=gd3bj scf=xqc pop=npa geom=c
 heck
 ----------------------------------------------------------------------

 ------------------------------------
 CID_153080372_JID_4683_Energie_anion
 ------------------------------------
 Structure from the checkpoint file:  "JID_4683.chk"
 Charge = -1 Multiplicity = 2

                         Standard orientation:
 ---------------------------------------------------------------------
 Center     Atomic      Atomic             Coordinates (Angstroms)
 Number     Number       Type             X           Y           Z
 ---------------------------------------------------------------------
      1          6           0        0.089307    1.615990   -1.808944
      2          6           0       -0.046671    1.414509   -0.293748
      3          6           0       -1.422379    1.868306    0.229430
      4          6           0       -2.553643    0.915471   -0.174932
      5          6           0       -2.303710   -0.545950    0.258394
      6          6           0       -0.909837   -0.988807   -0.243708
      7          6           0        0.233622   -0.043490    0.173637
      8          6           0        1.624030   -0.531297   -0.242310
      9          6           0        2.725601   -0.183187    0.456160
     10          6           0        2.703716    0.691130    1.691223
     11          6           0        4.137036   -0.604290    0.115021
     12          6           0        1.673812   -1.398757   -1.480980
     13          6           0       -3.369036   -1.450010   -0.380747
     14          6           0       -2.408217   -0.686532    1.788172
     15          1           0        1.109890    1.402337   -2.140855
     16          1           0       -0.137793    2.654934   -2.075507
     17          1           0       -0.591298    0.975999   -2.380701
     18          1           0        0.714446    2.050476    0.176593
     19          1           0       -1.379854    1.942948    1.324046
     20          1           0       -1.641586    2.879565   -0.137460
     21          1           0       -2.674307    0.939632   -1.266569
     22          1           0       -3.506438    1.264280    0.245432
     23          1           0       -0.953522   -1.069349   -1.336350
     24          1           0       -0.702067   -2.000797    0.128844
     25          1           0        0.212105   -0.012479    1.267747
     26          1           0        3.225077    0.193803    2.520930
     27          1           0        3.247380    1.628146    1.505336
     28          1           0        1.704572    0.957147    2.037478
     29          1           0        4.778267    0.278113   -0.020019
     30          1           0        4.574258   -1.175808    0.946005
     31          1           0        4.222381   -1.215460   -0.783655
     32          1           0        1.186853   -2.366826   -1.307635
     33          1           0        1.138000   -0.929684   -2.313878
     34          1           0        2.688628   -1.602020   -1.822830
     35          1           0       -3.215570   -2.499581   -0.101068
     36          1           0       -4.376530   -1.160598   -0.057494
     37          1           0       -3.335633   -1.385489   -1.475085
     38          1           0       -1.689066   -0.058446    2.321869
     39          1           0       -3.410629   -0.404549    2.132154
     40          1           0       -2.229348   -1.724805    2.092661
 ---------------------------------------------------------------------

 SCF Done:  E(UB3LYP) =  -549.361261585     A.U. after   31 cycles

 The electronic state is 2-A.
 Alpha  occ. eigenvalues --  -10.07982 -10.07045 -10.06827 -10.06822 -10.06757
 Alpha  occ. eigenvalues --  -10.06201 -10.06070 -10.06022 -10.05976 -10.05879
 Alpha  occ. eigenvalues --  -10.05877 -10.05799 -10.05517 -10.05398  -0.75139
 Alpha  occ. eigenvalues --   -0.71741  -0.68552  -0.65398  -0.61948  -0.60539
 Alpha  occ. eigenvalues --   -0.58790  -0.58609  -0.55897  -0.53936  -0.49968
 Alpha  occ. eigenvalues --   -0.46558  -0.41570  -0.39763  -0.37640  -0.37388
 Alpha  occ. eigenvalues --   -0.35644  -0.34664  -0.34263  -0.33487  -0.32887
 Alpha  occ. eigenvalues --   -0.31772  -0.30462  -0.29544  -0.28972  -0.28776
 Alpha  occ. eigenvalues --   -0.28296  -0.27965  -0.27401  -0.27138  -0.26802
 Alpha  occ. eigenvalues --   -0.25886  -0.24771  -0.24245  -0.23332  -0.22730
 Alpha  occ. eigenvalues --   -0.22552  -0.20661  -0.19404  -0.18885  -0.12433
 Alpha  occ. eigenvalues --    0.04361
 Alpha virt. eigenvalues --    0.06412   0.07010   0.07314   0.08403   0.08623
 Alpha virt. eigenvalues --    0.09001   0.09435   0.09545   0.10511   0.10520
 Alpha virt. eigenvalues --    0.11166   0.11537   0.11839   0.12232   0.12621

  Beta  occ. eigenvalues --  -10.07982 -10.07044 -10.06823 -10.06820 -10.06752
  Beta  occ. eigenvalues --  -10.06170 -10.06042 -10.06006 -10.05961 -10.05864
  Beta  occ. eigenvalues --  -10.05854 -10.05777 -10.05488 -10.05373  -0.75123
  Beta  occ. eigenvalues --   -0.71725  -0.68529  -0.65370  -0.61916  -0.60502
  Beta  occ. eigenvalues --   -0.58739  -0.58557  -0.55851  -0.53890  -0.49928
  Beta  occ. eigenvalues --   -0.46520  -0.41522  -0.39725  -0.37604  -0.37354
  Beta  occ. eigenvalues --   -0.35618  -0.34638  -0.34238  -0.33460  -0.32858
  Beta  occ. eigenvalues --   -0.31735  -0.30435  -0.29520  -0.28944  -0.28751
  Beta  occ. eigenvalues --   -0.28265  -0.27936  -0.27374  -0.27110  -0.26774
  Beta  occ. eigenvalues --   -0.25855  -0.24741  -0.24214  -0.23311  -0.22706
  Beta  occ. eigenvalues --   -0.22529  -0.20639  -0.19376  -0.18865  -0.12416
  Beta virt. eigenvalues --    0.06277   0.07082   0.07581   0.07852   0.08842
  Beta virt. eigenvalues --    0.09008   0.09384   0.09819   0.09859   0.10734
  Beta virt. eigenvalues --    0.10873   0.11460   0.11842   0.12061   0.12509

 Mulliken charges and spin densities:
               1          2
     1  C    0.444329  -1.278538
     2  C   -1.634463   1.830064
     3  C    0.610101  -1.068468
     4  C   -0.008438  -0.488984
     5  C   -0.879016   1.624664
     6  C   -0.944516  -0.226608
     7  C    0.155820   0.113576
     8  C    0.033143   0.412350
     9  C   -0.099591   0.146977
    10  C    0.062073  -0.593285
    11  C    1.263040  -1.845207
    12  C    0.565313  -0.938658
    13  C   -0.274595  -0.240205
    14  C    0.915631  -1.612253
    15  H    0.119488   0.028428
    16  H   -0.189160   0.328552
    17  H   -0.052610   0.219263
    18  H   -0.006362   0.224390
    19  H    0.035491   0.105538
    20  H   -0.195032   0.371850
    21  H    0.149153  -0.002053
    22  H   -0.127506   0.298962
    23  H    0.428473  -0.253783
    24  H    0.003621   0.175956
    25  H    0.606202  -0.450937
    26  H   -0.145027   0.272740
    27  H   -0.060961   0.221324
    28  H   -0.307200   0.452137
    29  H   -0.185437   0.329290
    30  H   -0.034863   0.177384
    31  H   -0.189825   0.307423
    32  H   -0.078594   0.255009
    33  H   -0.134126   0.285635
    34  H   -0.076220   0.192603
    35  H   -0.092046   0.226291
    36  H   -0.086919   0.235216
    37  H   -0.153114   0.283611
    38  H   -0.088477   0.227177
    39  H   -0.284457   0.441457
    40  H   -0.063323   0.211110
 Sum of Mulliken charges =  -1.00000   1.00000

 Dipole moment (field-independent basis, Debye):
    X=             -0.4755    Y=             -0.2912    Z=             -0.7615  Tot=              0.9438
 Quadrupole moment (field-independent basis, Debye-Ang):
   XX=           -168.4993   YY=           -136.0147   ZZ=           -134.7357
   XY=              0.5212   XZ=              2.7040   YZ=              0.3052

 Summary of Natural Population Analysis:

                                       Natural Population
                Natural  -----------------------------------------------
    Atom  No    Charge         Core      Valence    Rydberg      Total
 -----------------------------------------------------------------------
      C    1   -0.28943      0.99964     2.28339    0.00639     3.28943
      C    2   -0.10514      0.99958     2.09489    0.01068     3.10514
      C    3   -0.18757      0.99961     2.17847    0.00949     3.18757
      C    4   -0.18857      0.99958     2.17886    0.01013     3.18857
      C    5   -0.04475      0.99957     2.03332    0.01186     3.04475
      C    6   -0.18880      0.99958     2.17851    0.01070     3.18880
      C    7   -0.11862      0.99954     2.10696    0.01212     3.11862
      C    8   -0.01015      0.99942     1.99750    0.01323     3.01015
      C    9   -0.01621      0.99943     2.00669    0.01010     3.01621
      C   10   -0.29402      0.99963     2.28955    0.00485     3.29402
      C   11   -0.29143      0.99963     2.28706    0.00474     3.29143
      C   12   -0.29721      0.99962     2.29183    0.00577     3.29721
      C   13   -0.27922      0.99962     2.27352    0.00607     3.27922
      C   14   -0.28666      0.99962     2.27967    0.00737     3.28666
      H   15    0.10273      0.00000     0.39623    0.00105     0.39727
      H   16    0.09888      0.00000     0.40022    0.00090     0.40112
      H   17    0.09536      0.00000     0.40359    0.00105     0.40464
      H   18    0.09874      0.00000     0.39933    0.00192     0.40126
      H   19    0.09649      0.00000     0.40207    0.00145     0.40351
      H   20    0.09839      0.00000     0.40065    0.00096     0.40161
      H   21    0.09629      0.00000     0.40241    0.00129     0.40371
      H   22    0.09974      0.00000     0.39920    0.00106     0.40026
      H   23    0.09876      0.00000     0.39966    0.00158     0.40124
      H   24    0.10145      0.00000     0.39742    0.00112     0.39855
      H   25    0.10366      0.00000     0.39387    0.00246     0.39634
      H   26    0.09956      0.00000     0.39924    0.00120     0.40044
      H   27    0.10168      0.00000     0.39701    0.00131     0.39832
      H   28    0.10285      0.00000     0.39600    0.00114     0.39715
      H   29    0.10009      0.00000     0.39856    0.00135     0.39991
      H   30    0.09998      0.00000     0.39872    0.00130     0.40002
      H   31    0.10106      0.00000     0.39800    0.00094     0.39894
      H   32    0.10323      0.00000     0.39571    0.00106     0.39677
      H   33    0.10215      0.00000     0.39663    0.00122     0.39785
      H   34    0.10157      0.00000     0.39753    0.00090     0.39843
      H   35    0.09857      0.00000     0.40046    0.00097     0.40143
      H   36    0.09888      0.00000     0.40013    0.00099     0.40112
      H   37    0.09838      0.00000     0.40064    0.00098     0.40162
      H   38    0.10044      0.00000     0.39839    0.00117     0.39956
      H   39    0.09951      0.00000     0.39947    0.00103     0.40049
      H   40    0.09934      0.00000     0.39970    0.00096     0.40066
 =======================================================================
   * Total *    0.00000     13.99406    40.85108    0.15485    55.00000

 Normal termination of Gaussian 16 at Thu Dec 10 11:29:49 2020.
