 Gaussian 16, Revision A.03,

 -----------------------------------------------------------
 # opt freq B3LYP/6-31G(d) empiricaldispersion=gd3bj scf=xqc
 -----------------------------------------------------------

 -----------------------------
 CID_2806236_JID_2241_neutraal
 -----------------------------
 Symbolic Z-matrix:
 Charge =  0 Multiplicity = 1

 SCF Done:  E(RB3LYP) =  -989.075972435     A.U. after   14 cycles
 SCF Done:  E(RB3LYP) =  -989.080824492     A.U. after   13 cycles
 SCF Done:  E(RB3LYP) =  -989.079897697     A.U. after   14 cycles
 SCF Done:  E(RB3LYP) =  -989.081277856     A.U. after   12 cycles
 SCF Done:  E(RB3LYP) =  -989.081929103     A.U. after   12 cycles
 SCF Done:  E(RB3LYP) =  -989.081963131     A.U. after    9 cycles
 SCF Done:  E(RB3LYP) =  -989.081966483     A.U. after    9 cycles
 SCF Done:  E(RB3LYP) =  -989.081967256     A.U. after    9 cycles
 SCF Done:  E(RB3LYP) =  -989.081967812     A.U. after    9 cycles
 SCF Done:  E(RB3LYP) =  -989.081968241     A.U. after    9 cycles
 SCF Done:  E(RB3LYP) =  -989.081968397     A.U. after    8 cycles
 Optimization completed.
    -- Stationary point found.
 Normal termination of Gaussian 16 at Wed Dec  9 16:55:32 2020.

 --------------------------------------------------------------------
 #N Geom=AllCheck Guess=TCheck SCRF=Check GenChk RB3LYP/6-31G(d) Freq
 --------------------------------------------------------------------

 Structure from the checkpoint file:  "JID_2241.chk"
 -----------------------------
 CID_2806236_JID_2241_neutraal
 -----------------------------
 Charge =  0 Multiplicity = 1

 SCF Done:  E(RB3LYP) =  -989.081968397     A.U. after    1 cycles

  Exact polarizability:  97.098  -0.007  88.219   1.762  -0.850  90.514
 Approx polarizability: 135.454  -4.002 142.333   2.910   4.039 142.661

                      1                      2                      3
                      A                      A                      A
 Frequencies --     25.9328                69.4520                85.8790
 Red. masses --      7.2395                 8.0403                 5.0084
 Frc consts  --      0.0029                 0.0229                 0.0218
 IR Inten    --      1.4681                 2.0213                 1.2853

                      4                      5                      6
                      A                      A                      A
 Frequencies --    151.4825               178.4001               208.5551
 Red. masses --      7.0762                 3.9128                 4.9629
 Frc consts  --      0.0957                 0.0734                 0.1272
 IR Inten    --      4.9852                 1.8919                 2.6253

                      7                      8                      9
                      A                      A                      A
 Frequencies --    260.2169               301.7296               356.8610
 Red. masses --      4.1755                 3.6100                 3.3765
 Frc consts  --      0.1666                 0.1936                 0.2533
 IR Inten    --      5.2110                 4.4331                 0.9534

                     10                     11                     12
                      A                      A                      A
 Frequencies --    364.6083               422.4284               435.3619
 Red. masses --      3.4369                 3.7413                 2.1484
 Frc consts  --      0.2692                 0.3933                 0.2399
 IR Inten    --      1.1762                21.4995                 4.3200

                     13                     14                     15
                      A                      A                      A
 Frequencies --    446.1851               463.7870               483.7461
 Red. masses --      3.6311                 1.7114                 8.6792
 Frc consts  --      0.4259                 0.2169                 1.1966
 IR Inten    --      0.6601                 4.7175                33.2113

                     16                     17                     18
                      A                      A                      A
 Frequencies --    551.4057               595.1091               646.1681
 Red. masses --      3.6123                 2.6057                 3.6916
 Frc consts  --      0.6471                 0.5437                 0.9082
 IR Inten    --     37.2594                 3.2570                 6.5241

                     19                     20                     21
                      A                      A                      A
 Frequencies --    666.0190               706.6431               736.7947
 Red. masses --      1.8640                 2.2837                 2.1042
 Frc consts  --      0.4872                 0.6719                 0.6730
 IR Inten    --     81.7250                26.9281                95.2857

                     22                     23                     24
                      A                      A                      A
 Frequencies --    802.1012               859.9907               889.0716
 Red. masses --      2.9949                 2.4004                 5.8367
 Frc consts  --      1.1353                 1.0460                 2.7182
 IR Inten    --      2.8485                19.7251                 6.7761

                     25                     26                     27
                      A                      A                      A
 Frequencies --    941.1641               955.8064               986.7369
 Red. masses --      1.9352                 2.2621                 2.3474
 Frc consts  --      1.0099                 1.2176                 1.3466
 IR Inten    --      2.0633                11.0325                 7.8473

                     28                     29                     30
                      A                      A                      A
 Frequencies --    987.4674              1002.8783              1050.3645
 Red. masses --      2.1869                 1.6798                 2.3909
 Frc consts  --      1.2564                 0.9954                 1.5541
 IR Inten    --     18.5759                 7.4884                63.9859

                     31                     32                     33
                      A                      A                      A
 Frequencies --   1109.5032              1137.7885              1148.8263
 Red. masses --      5.8166                 2.1713                 1.9947
 Frc consts  --      4.2187                 1.6561                 1.5511
 IR Inten    --     84.1865               152.8446                93.1805

                     34                     35                     36
                      A                      A                      A
 Frequencies --   1179.3858              1210.6987              1226.3768
 Red. masses --      1.2711                 1.8240                 1.3797
 Frc consts  --      1.0417                 1.5752                 1.2226
 IR Inten    --     18.7112                58.5653                26.9330

                     37                     38                     39
                      A                      A                      A
 Frequencies --   1249.5931              1294.1106              1323.7531
 Red. masses --      1.3825                 3.4048                 1.4446
 Frc consts  --      1.2719                 3.3595                 1.4915
 IR Inten    --     20.1759                99.0599                 7.8616

                     40                     41                     42
                      A                      A                      A
 Frequencies --   1338.4209              1350.5230              1389.9999
 Red. masses --      2.2742                 1.5985                 1.3494
 Frc consts  --      2.4002                 1.7178                 1.5361
 IR Inten    --     94.6787                 7.7706                 8.3313

                     43                     44                     45
                      A                      A                      A
 Frequencies --   1402.5294              1414.6569              1424.2633
 Red. masses --      1.2510                 1.6373                 1.3268
 Frc consts  --      1.4498                 1.9305                 1.5857
 IR Inten    --      8.2731                25.0483                15.6816

                     46                     47                     48
                      A                      A                      A
 Frequencies --   1428.5877              1481.0511              1486.6135
 Red. masses --      1.3944                 1.0964                 1.0801
 Frc consts  --      1.6767                 1.4170                 1.4064
 IR Inten    --     13.6717                 6.3983                 6.2714

                     49                     50                     51
                      A                      A                      A
 Frequencies --   1490.5338              1499.8322              1512.7277
 Red. masses --      1.0911                 1.0769                 1.1015
 Frc consts  --      1.4282                 1.4273                 1.4852
 IR Inten    --     16.1962                 9.9115                11.4521

                     52                     53                     54
                      A                      A                      A
 Frequencies --   1838.8659              3061.3589              3063.2061
 Red. masses --      9.4009                 1.0606                 1.0607
 Frc consts  --     18.7293                 5.8566                 5.8640
 IR Inten    --    216.2480                26.2638                22.8886

                     55                     56                     57
                      A                      A                      A
 Frequencies --   3073.1785              3098.3116              3100.4310
 Red. masses --      1.0592                 1.0624                 1.0632
 Frc consts  --      5.8937                 6.0091                 6.0217
 IR Inten    --     26.2849                 2.4999                 5.7164

                     58                     59                     60
                      A                      A                      A
 Frequencies --   3113.1397              3115.5451              3127.6252
 Red. masses --      1.1039                 1.1037                 1.1079
 Frc consts  --      6.3034                 6.3121                 6.3852
 IR Inten    --      8.2299                12.6453                13.8050

                     61                     62                     63
                      A                      A                      A
 Frequencies --   3166.2755              3177.4804              3662.5479
 Red. masses --      1.1048                 1.1040                 1.0640
 Frc consts  --      6.5255                 6.5672                 8.4089
 IR Inten    --      2.7314                 0.6257                49.4476

 - Thermochemistry -
 -------------------
 Temperature   298.150 Kelvin.  Pressure   1.00000 Atm.
 Atom     1 has atomic number  6 and mass  12.00000

 Molecular mass:   193.04088 amu.
 Principal axes and moments of inertia in atomic units:
                           1         2         3
     Eigenvalues --  1298.363272916.387593136.86484
           X            0.99998   0.00216   0.00613
           Y           -0.00184   0.99867  -0.05150
           Z           -0.00623   0.05149   0.99865
 This molecule is an asymmetric top.
 Rotational symmetry number  1.
 Warning -- assumption of classical behavior for rotation
           may cause significant error
 Rotational temperatures (Kelvin)      0.06671     0.02970     0.02761
 Rotational constants (GHZ):           1.39001     0.61883     0.57533
 Zero-point vibrational energy     486462.0 (Joules/Mol)
                                  116.26720 (Kcal/Mol)
 Warning -- explicit consideration of  17 degrees of freedom as
           vibrations may cause significant error
 Vibrational temperatures:     37.31    99.93   123.56   217.95   256.68
          (Kelvin)            300.06   374.39   434.12   513.44   524.59
                              607.78   626.39   641.96   667.29   696.00
                              793.35   856.23   929.69   958.25  1016.70
                             1060.08  1154.04  1237.33  1279.18  1354.13
                             1375.19  1419.69  1420.75  1442.92  1511.24
                             1596.33  1637.02  1652.90  1696.87  1741.93
                             1764.48  1797.89  1861.94  1904.59  1925.69
                             1943.10  1999.90  2017.93  2035.38  2049.20
                             2055.42  2130.90  2138.91  2144.55  2157.92
                             2176.48  2645.72  4404.61  4407.27  4421.62
                             4457.78  4460.83  4479.11  4482.57  4499.96
                             4555.56  4571.69  5269.59

 Zero-point correction=                           0.185284 (Hartree/Particle)
 Thermal correction to Energy=                    0.196738
 Thermal correction to Enthalpy=                  0.197683
 Thermal correction to Gibbs Free Energy=         0.146898
 Sum of electronic and zero-point Energies=           -988.896685
 Sum of electronic and thermal Energies=              -988.885230
 Sum of electronic and thermal Enthalpies=            -988.884286
 Sum of electronic and thermal Free Energies=         -988.935070

                     E (Thermal)             CV                S
                      KCal/Mol        Cal/Mol-Kelvin    Cal/Mol-Kelvin
 Total                  123.455             43.456            106.885
 Electronic               0.000              0.000              0.000
 Translational            0.889              2.981             41.679
 Rotational               0.889              2.981             30.852
 Vibrational            121.678             37.495             34.354
 Vibration     1          0.593              1.985              6.118
 Vibration     2          0.598              1.969              4.169
 Vibration     3          0.601              1.959              3.752
 Vibration     4          0.619              1.901              2.654
 Vibration     5          0.629              1.869              2.345
 Vibration     6          0.642              1.828              2.056
 Vibration     7          0.668              1.745              1.660
 Vibration     8          0.694              1.670              1.407
 Vibration     9          0.732              1.561              1.136
 Vibration    10          0.738              1.545              1.102
 Vibration    11          0.785              1.421              0.884
 Vibration    12          0.796              1.393              0.841
 Vibration    13          0.805              1.369              0.807
 Vibration    14          0.821              1.330              0.755
 Vibration    15          0.840              1.286              0.700
 Vibration    16          0.907              1.137              0.541
 Vibration    17          0.953              1.042              0.458

 Optimization completed.
    -- Stationary point found.
 Normal termination of Gaussian 16 at Wed Dec  9 17:01:42 2020.

 ----------------------------------------------------------------------
 # B3LYP/6-311++G(d,p) empiricaldispersion=gd3bj scf=xqc pop=npa geom=c
 heck
 ----------------------------------------------------------------------

 -------------------------------------
 CID_2806236_JID_2241_Energie_neutraal
 -------------------------------------
 Structure from the checkpoint file:  "JID_2241.chk"
 Charge =  0 Multiplicity = 1

 SCF Done:  E(RB3LYP) =  -989.290982462     A.U. after   14 cycles
 Normal termination of Gaussian 16 at Wed Dec  9 17:04:21 2020.

 ----------------------------------------------------------------------
 # B3LYP/6-311++G(d,p) empiricaldispersion=gd3bj scf=xqc pop=npa geom=c
 heck
 ----------------------------------------------------------------------

 -----------------------------------
 CID_2806236_JID_2241_Energie_kation
 -----------------------------------
 Structure from the checkpoint file:  "JID_2241.chk"
 Charge =  1 Multiplicity = 2

 SCF Done:  E(UB3LYP) =  -988.969136759     A.U. after   22 cycles
 Normal termination of Gaussian 16 at Wed Dec  9 17:10:27 2020.
 Gaussian 16:  ES64L-G16RevA.03 25-Dec-2016

 ----------------------------------------------------------------------
 # B3LYP/6-311++G(d,p) empiricaldispersion=gd3bj scf=xqc pop=npa geom=c
 heck
 ----------------------------------------------------------------------

 ----------------------------------
 CID_2806236_JID_2241_Energie_anion
 ----------------------------------
 Structure from the checkpoint file:  "JID_2241.chk"
 Charge = -1 Multiplicity = 2

                         Standard orientation:
 ---------------------------------------------------------------------
 Center     Atomic      Atomic             Coordinates (Angstroms)
 Number     Number       Type             X           Y           Z
 ---------------------------------------------------------------------
      1          6           0        0.062480    1.155991    1.314688
      2          6           0       -0.606261   -0.232211    1.365196
      3         16           0       -1.791899   -0.400503    0.004477
      4          8           0       -2.188588   -1.810487   -0.122095
      5          8           0       -2.804683    0.657833    0.180361
      6          6           0       -0.753761    0.069172   -1.401749
      7          6           0       -0.053247    1.414459   -1.118204
      8          7           0        0.774150    1.455563    0.080840
      9          6           0        2.151560    1.006594   -0.023078
     10          6           0        2.354036   -0.501341   -0.187468
     11          8           0        2.227760   -1.115519   -1.224690
     12          8           0        2.650152   -1.109494    0.988162
     13          1           0       -0.719177    1.912565    1.450083
     14          1           0        0.760928    1.243113    2.153031
     15          1           0       -1.194502   -0.362499    2.278823
     16          1           0        0.112435   -1.050046    1.285474
     17          1           0       -0.045198   -0.740659   -1.580487
     18          1           0       -1.438828    0.149054   -2.251448
     19          1           0       -0.825713    2.186264   -1.020160
     20          1           0        0.569673    1.671138   -1.980591
     21          1           0        2.600318    1.478294   -0.902856
     22          1           0        2.692936    1.340876    0.867074
     23          1           0        2.732494   -2.063643    0.793321
 ---------------------------------------------------------------------

 SCF Done:  E(UB3LYP) =  -989.285172033     A.U. after   31 cycles

 The electronic state is 2-A.
 Alpha  occ. eigenvalues --  -88.94444 -19.06840 -19.01732 -19.01620 -19.01536
 Alpha  occ. eigenvalues --  -14.22685 -10.20023 -10.11922 -10.11751 -10.11232
 Alpha  occ. eigenvalues --  -10.11059 -10.10989  -8.00976  -5.97243  -5.97126
 Alpha  occ. eigenvalues --   -5.97068  -1.00921  -1.00786  -0.92120  -0.90530
 Alpha  occ. eigenvalues --   -0.84957  -0.71043  -0.69359  -0.64200  -0.57375
 Alpha  occ. eigenvalues --   -0.55034  -0.51180  -0.47155  -0.42257  -0.40423
 Alpha  occ. eigenvalues --   -0.40276  -0.39473  -0.38788  -0.37946  -0.37243
 Alpha  occ. eigenvalues --   -0.35225  -0.33807  -0.32992  -0.32696  -0.30895
 Alpha  occ. eigenvalues --   -0.30027  -0.28800  -0.27641  -0.27112  -0.23572
 Alpha  occ. eigenvalues --   -0.23025  -0.22208  -0.20838  -0.19384  -0.18729
 Alpha  occ. eigenvalues --   -0.12925   0.04233
 Alpha virt. eigenvalues --    0.06972   0.07708   0.07772   0.08879   0.09851
 Alpha virt. eigenvalues --    0.10068   0.10909   0.11764   0.12602   0.13622
 Alpha virt. eigenvalues --    0.14140   0.14430   0.14688   0.15441   0.15912

  Beta  occ. eigenvalues --  -88.94444 -19.06758 -19.01729 -19.01577 -19.01530
  Beta  occ. eigenvalues --  -14.22684 -10.19946 -10.11892 -10.11718 -10.11186
  Beta  occ. eigenvalues --  -10.11039 -10.10984  -8.00976  -5.97242  -5.97126
  Beta  occ. eigenvalues --   -5.97068  -1.00812  -1.00743  -0.92004  -0.90522
  Beta  occ. eigenvalues --   -0.84936  -0.71006  -0.69319  -0.64078  -0.57316
  Beta  occ. eigenvalues --   -0.54936  -0.51062  -0.47053  -0.42185  -0.40391
  Beta  occ. eigenvalues --   -0.40226  -0.39392  -0.38721  -0.37894  -0.37201
  Beta  occ. eigenvalues --   -0.35107  -0.33650  -0.32947  -0.32667  -0.30844
  Beta  occ. eigenvalues --   -0.29944  -0.28764  -0.27589  -0.27053  -0.23555
  Beta  occ. eigenvalues --   -0.22891  -0.22146  -0.20824  -0.19335  -0.18708
  Beta  occ. eigenvalues --   -0.12872
  Beta virt. eigenvalues --    0.06992   0.08005   0.08299   0.08759   0.09548
  Beta virt. eigenvalues --    0.10424   0.10637   0.11302   0.11936   0.12857
  Beta virt. eigenvalues --    0.14149   0.14395   0.14599   0.14857   0.15562

 Mulliken charges and spin densities:
               1          2
     1  C    0.601790  -0.982155
     2  C   -1.294972   0.587271
     3  S    1.421864  -0.804464
     4  O   -0.142502   0.007251
     5  O   -0.227343  -0.003106
     6  C   -1.623573   0.875615
     7  C    0.744910  -1.124581
     8  N   -0.128013   0.361763
     9  C    1.432451  -1.933830
    10  C    0.271532  -0.240685
    11  O   -0.332721   0.102227
    12  O   -0.169103   0.062960
    13  H    0.093271   0.130713
    14  H   -0.578654   0.760505
    15  H   -0.137890   0.382640
    16  H    0.329795  -0.063049
    17  H    0.199822   0.083318
    18  H    0.086168   0.143537
    19  H    0.010490   0.203348
    20  H   -0.284033   0.464444
    21  H   -0.383873   0.573809
    22  H   -0.291563   0.510495
    23  H   -0.597852   0.901974
 Sum of Mulliken charges =  -1.00000   1.00000

 Dipole moment (field-independent basis, Debye):
    X=             -4.1244    Y=              1.0074    Z=             -1.5764  Tot=              4.5289
 Quadrupole moment (field-independent basis, Debye-Ang):
   XX=           -141.0521   YY=           -120.0644   ZZ=           -110.6242
   XY=              0.5972   XZ=             -2.1657   YZ=              0.8407

 Summary of Natural Population Analysis:

                                       Natural Population
                Natural  -----------------------------------------------
    Atom  No    Charge         Core      Valence    Rydberg      Total
 -----------------------------------------------------------------------
      C    1   -0.09272      0.99959     2.08024    0.01289     3.09272
      C    2   -0.30210      0.99958     2.29107    0.01145     3.30210
      S    3    1.01918      4.99925     1.88720    0.09437     6.98082
      O    4   -0.46824      0.99991     3.46285    0.00548     4.46824
      O    5   -0.47716      0.99991     3.47176    0.00548     4.47716
      C    6   -0.30600      0.99958     2.29536    0.01107     3.30600
      C    7   -0.09150      0.99959     2.07911    0.01279     3.09150
      N    8   -0.27389      0.99973     2.75686    0.01731     3.77389
      C    9   -0.12715      0.99955     2.11418    0.01343     3.12715
      C   10    0.40219      0.99973     1.57301    0.02508     2.59781
      O   11   -0.31066      0.99987     3.30424    0.00655     4.31066
      O   12   -0.34399      0.99988     3.33629    0.00782     4.34399
      H   13    0.10252      0.00000     0.39613    0.00135     0.39748
      H   14    0.11101      0.00000     0.38702    0.00197     0.38899
      H   15    0.11896      0.00000     0.37977    0.00127     0.38104
      H   16    0.11875      0.00000     0.37930    0.00196     0.38125
      H   17    0.12694      0.00000     0.37151    0.00155     0.37306
      H   18    0.11621      0.00000     0.38267    0.00112     0.38379
      H   19    0.10154      0.00000     0.39720    0.00126     0.39846
      H   20    0.10899      0.00000     0.38963    0.00138     0.39101
      H   21    0.11099      0.00000     0.38596    0.00305     0.38901
      H   22    0.10984      0.00000     0.38704    0.00312     0.39016
      H   23    0.24631      0.00000     0.23502    0.01867     0.25369
 =======================================================================
   * Total *   -0.00000     15.99617    34.74343    0.26040    51.00000

 Normal termination of Gaussian 16 at Wed Dec  9 17:18:46 2020.
