 Gaussian 16, Revision A.03,

 -----------------------------------------------------------
 # opt freq B3LYP/6-31G(d) empiricaldispersion=gd3bj scf=xqc
 -----------------------------------------------------------

 -------------------------------
 CID_116456442_JID_4173_neutraal
 -------------------------------
 Symbolic Z-matrix:
 Charge =  0 Multiplicity = 1

 SCF Done:  E(RB3LYP) =  -645.573341894     A.U. after   14 cycles
 SCF Done:  E(RB3LYP) =  -645.583669246     A.U. after   13 cycles
 SCF Done:  E(RB3LYP) =  -645.585421793     A.U. after   13 cycles
 SCF Done:  E(RB3LYP) =  -645.586296624     A.U. after   13 cycles
 SCF Done:  E(RB3LYP) =  -645.586538078     A.U. after   12 cycles
 SCF Done:  E(RB3LYP) =  -645.586579022     A.U. after   11 cycles
 SCF Done:  E(RB3LYP) =  -645.586586707     A.U. after   10 cycles
 SCF Done:  E(RB3LYP) =  -645.586589156     A.U. after   10 cycles
 SCF Done:  E(RB3LYP) =  -645.586589878     A.U. after    8 cycles
 SCF Done:  E(RB3LYP) =  -645.586589958     A.U. after    7 cycles
 SCF Done:  E(RB3LYP) =  -645.586589987     A.U. after    7 cycles
 Optimization completed.
    -- Stationary point found.
 Normal termination of Gaussian 16 at Thu Dec 10 09:17:33 2020.

 --------------------------------------------------------------------
 #N Geom=AllCheck Guess=TCheck SCRF=Check GenChk RB3LYP/6-31G(d) Freq
 --------------------------------------------------------------------

 Structure from the checkpoint file:  "JID_4173.chk"
 -------------------------------
 CID_116456442_JID_4173_neutraal
 -------------------------------
 Charge =  0 Multiplicity = 1

 SCF Done:  E(RB3LYP) =  -645.586589987     A.U. after    1 cycles

  Exact polarizability: 171.162 -21.796 101.156  -9.491 -14.298  97.338
 Approx polarizability: 227.164 -38.071 165.388 -19.147 -36.537 166.537

                      1                      2                      3
                      A                      A                      A
 Frequencies --     36.8469                41.8333                53.3735
 Red. masses --      4.4731                 5.3202                 3.7352
 Frc consts  --      0.0036                 0.0055                 0.0063
 IR Inten    --      0.6321                 3.5697                 1.7630

                      4                      5                      6
                      A                      A                      A
 Frequencies --    113.9898               124.2140               175.4876
 Red. masses --      2.7285                 4.9480                 4.6060
 Frc consts  --      0.0209                 0.0450                 0.0836
 IR Inten    --      7.9840                 4.0328                 4.5555

                      7                      8                      9
                      A                      A                      A
 Frequencies --    219.3174               271.2594               283.5695
 Red. masses --      3.3259                 3.6837                 2.5480
 Frc consts  --      0.0943                 0.1597                 0.1207
 IR Inten    --      3.1615                 8.9094                 9.4595

                     10                     11                     12
                      A                      A                      A
 Frequencies --    308.7494               311.9361               337.9303
 Red. masses --      1.2562                 1.1019                 1.9701
 Frc consts  --      0.0706                 0.0632                 0.1326
 IR Inten    --     17.4384               161.3134                 4.0332

                     13                     14                     15
                      A                      A                      A
 Frequencies --    345.9507               389.8995               410.8812
 Red. masses --      3.1016                 2.0975                 3.5948
 Frc consts  --      0.2187                 0.1879                 0.3576
 IR Inten    --      4.8261                 1.1801                 0.6037

                     16                     17                     18
                      A                      A                      A
 Frequencies --    429.3502               459.8575               500.3917
 Red. masses --      5.1089                 1.6276                 4.2751
 Frc consts  --      0.5549                 0.2028                 0.6307
 IR Inten    --      8.5435               115.5314                 7.3784

                     19                     20                     21
                      A                      A                      A
 Frequencies --    539.9701               582.2566               596.7310
 Red. masses --      2.7004                 3.1058                 2.9706
 Frc consts  --      0.4639                 0.6204                 0.6232
 IR Inten    --     42.5401                55.7216                 3.9404

                     22                     23                     24
                      A                      A                      A
 Frequencies --    660.6189               703.3828               717.8661
 Red. masses --      7.7564                 1.7879                 3.2796
 Frc consts  --      1.9944                 0.5212                 0.9958
 IR Inten    --      0.1516               261.9642                 6.1137

                     25                     26                     27
                      A                      A                      A
 Frequencies --    763.9841               797.3290               808.5690
 Red. masses --      5.1047                 1.3089                 1.8396
 Frc consts  --      1.7554                 0.4903                 0.7086
 IR Inten    --     53.6844                 5.9873                 3.3466

                     28                     29                     30
                      A                      A                      A
 Frequencies --    838.8059               862.0142               866.1056
 Red. masses --      1.7426                 2.8207                 3.4827
 Frc consts  --      0.7224                 1.2349                 1.5393
 IR Inten    --     55.9100                16.1914                 3.1332

                     31                     32                     33
                      A                      A                      A
 Frequencies --    920.7761               943.3389               961.8146
 Red. masses --      1.6246                 1.8276                 1.2714
 Frc consts  --      0.8115                 0.9582                 0.6930
 IR Inten    --      4.7860                 9.7782                 0.0487

                     34                     35                     36
                      A                      A                      A
 Frequencies --    980.4657              1028.9442              1039.9027
 Red. masses --      1.8526                 1.7708                 3.0776
 Frc consts  --      1.0493                 1.1046                 1.9608
 IR Inten    --     11.3266                30.6682                32.6277

                     37                     38                     39
                      A                      A                      A
 Frequencies --   1048.6290              1060.8899              1086.6207
 Red. masses --      1.8209                 1.8156                 3.5204
 Frc consts  --      1.1797                 1.2039                 2.4491
 IR Inten    --     30.2061                 3.5716                51.7629

                     40                     41                     42
                      A                      A                      A
 Frequencies --   1090.4281              1108.9024              1126.3644
 Red. masses --      1.5197                 3.9231                 1.6938
 Frc consts  --      1.0646                 2.8423                 1.2661
 IR Inten    --      3.3598                40.6357                 3.8115

                     43                     44                     45
                      A                      A                      A
 Frequencies --   1162.6226              1201.6216              1236.6130
 Red. masses --      1.2926                 1.2706                 2.9277
 Frc consts  --      1.0294                 1.0809                 2.6378
 IR Inten    --     16.8342                 2.7073                20.4175

                     46                     47                     48
                      A                      A                      A
 Frequencies --   1239.9390              1258.6743              1298.5936
 Red. masses --      1.3800                 1.4375                 2.3546
 Frc consts  --      1.2501                 1.3417                 2.3394
 IR Inten    --     21.2850                 3.4067                 2.0968

                     49                     50                     51
                      A                      A                      A
 Frequencies --   1311.1738              1370.4483              1372.2974
 Red. masses --      1.9042                 1.9066                 3.5284
 Frc consts  --      1.9288                 2.1097                 3.9149
 IR Inten    --    104.3046                12.9829                41.2835

                     52                     53                     54
                      A                      A                      A
 Frequencies --   1406.5521              1414.7928              1419.3461
 Red. masses --      1.2836                 2.3369                 1.4871
 Frc consts  --      1.4962                 2.7560                 1.7651
 IR Inten    --     45.1440                 2.7144                28.1535

                     55                     56                     57
                      A                      A                      A
 Frequencies --   1438.1972              1482.2302              1496.8636
 Red. masses --      1.3395                 1.0911                 1.3747
 Frc consts  --      1.6324                 1.4123                 1.8148
 IR Inten    --     17.3678                 4.9104                99.2695

                     58                     59                     60
                      A                      A                      A
 Frequencies --   1513.5685              1522.7438              1532.9593
 Red. masses --      1.7772                 1.1528                 1.4420
 Frc consts  --      2.3988                 1.5749                 1.9965
 IR Inten    --    192.0735                38.3216                 5.3048

                     61                     62                     63
                      A                      A                      A
 Frequencies --   1545.7848              1617.7054              1661.1901
 Red. masses --      1.9710                 3.9409                 1.6395
 Frc consts  --      2.7748                 6.0764                 2.6656
 IR Inten    --    118.2711                99.1154                90.9038

                     64                     65                     66
                      A                      A                      A
 Frequencies --   1684.2076              3039.1945              3054.8230
 Red. masses --      2.4839                 1.0668                 1.0705
 Frc consts  --      4.1512                 5.8058                 5.8861
 IR Inten    --     30.4272                66.5306                50.8642

                     67                     68                     69
                      A                      A                      A
 Frequencies --   3112.5942              3135.0448              3143.4685
 Red. masses --      1.0980                 1.0539                 1.0937
 Frc consts  --      6.2676                 6.1030                 6.3675
 IR Inten    --     18.5743                18.9119                 3.4873

                     70                     71                     72
                      A                      A                      A
 Frequencies --   3150.8473              3183.4014              3203.1807
 Red. masses --      1.0567                 1.0879                 1.0967
 Frc consts  --      6.1810                 6.4958                 6.6300
 IR Inten    --     18.0449                13.3695                13.9473

                     73                     74                     75
                      A                      A                      A
 Frequencies --   3210.2225              3240.7556              3532.6832
 Red. masses --      1.1168                 1.1158                 1.0475
 Frc consts  --      6.7812                 6.9045                 7.7022
 IR Inten    --     13.4366                 8.6879                15.3841

                     76                     77                     78
                      A                      A                      A
 Frequencies --   3589.5016              3636.4192              3759.8359
 Red. masses --      1.0754                 1.0977                 1.0663
 Frc consts  --      8.1641                 8.5523                 8.8809
 IR Inten    --     11.7064                13.9217                10.5134

 - Thermochemistry -
 -------------------
 Temperature   298.150 Kelvin.  Pressure   1.00000 Atm.
 Atom     1 has atomic number  6 and mass  12.00000

 Molecular mass:   194.11676 amu.
 Principal axes and moments of inertia in atomic units:
                           1         2         3
     Eigenvalues --  1194.458315182.854985667.14072
           X            0.99997  -0.00622  -0.00364
           Y            0.00614   0.99978  -0.02015
           Z            0.00376   0.02013   0.99979
 This molecule is an asymmetric top.
 Rotational symmetry number  1.
 Warning -- assumption of classical behavior for rotation
           may cause significant error
 Rotational temperatures (Kelvin)      0.07251     0.01671     0.01528
 Rotational constants (GHZ):           1.51093     0.34821     0.31846
 Zero-point vibrational energy     616852.3 (Joules/Mol)
                                  147.43123 (Kcal/Mol)
 Warning -- explicit consideration of  21 degrees of freedom as
           vibrations may cause significant error
 Vibrational temperatures:     53.01    60.19    76.79   164.01   178.72
          (Kelvin)            252.49   315.55   390.28   407.99   444.22
                              448.81   486.21   497.75   560.98   591.17
                              617.74   661.63   719.95   776.90   837.74
                              858.56   950.48  1012.01  1032.85  1099.20
                             1147.18  1163.35  1206.85  1240.25  1246.13
                             1324.79  1357.25  1383.84  1410.67  1480.42
                             1496.19  1508.74  1526.38  1563.40  1568.88
                             1595.46  1620.59  1672.75  1728.87  1779.21
                             1784.00  1810.95  1868.39  1886.49  1971.77
                             1974.43  2023.71  2035.57  2042.12  2069.25
                             2132.60  2153.65  2177.69  2190.89  2205.59
                             2224.04  2327.52  2390.08  2423.20  4372.72
                             4395.21  4478.33  4510.63  4522.75  4533.37
                             4580.20  4608.66  4618.79  4662.72  5082.74
                             5164.49  5232.00  5409.57

 Zero-point correction=                           0.234947 (Hartree/Particle)
 Thermal correction to Energy=                    0.248575
 Thermal correction to Enthalpy=                  0.249519
 Thermal correction to Gibbs Free Energy=         0.193947
 Sum of electronic and zero-point Energies=           -645.351643
 Sum of electronic and thermal Energies=              -645.338015
 Sum of electronic and thermal Enthalpies=            -645.337071
 Sum of electronic and thermal Free Energies=         -645.392643

                     E (Thermal)             CV                S
                      KCal/Mol        Cal/Mol-Kelvin    Cal/Mol-Kelvin
 Total                  155.983             52.410            116.962
 Electronic               0.000              0.000              0.000
 Translational            0.889              2.981             41.695
 Rotational               0.889              2.981             31.929
 Vibrational            154.206             46.449             43.339
 Vibration     1          0.594              1.982              5.422
 Vibration     2          0.594              1.980              5.170
 Vibration     3          0.596              1.976              4.688
 Vibration     4          0.607              1.938              3.200
 Vibration     5          0.610              1.929              3.034
 Vibration     6          0.627              1.873              2.376
 Vibration     7          0.647              1.812              1.965
 Vibration     8          0.675              1.726              1.588
 Vibration     9          0.682              1.704              1.512
 Vibration    10          0.698              1.657              1.369
 Vibration    11          0.700              1.651              1.352
 Vibration    12          0.718              1.600              1.222
 Vibration    13          0.724              1.584              1.185
 Vibration    14          0.758              1.492              1.001
 Vibration    15          0.775              1.447              0.924
 Vibration    16          0.791              1.406              0.861
 Vibration    17          0.818              1.339              0.767
 Vibration    18          0.856              1.249              0.657
 Vibration    19          0.895              1.162              0.565
 Vibration    20          0.939              1.070              0.481
 Vibration    21          0.955              1.039              0.455

 Optimization completed.
    -- Stationary point found.
 Normal termination of Gaussian 16 at Thu Dec 10 09:24:48 2020.

 ----------------------------------------------------------------------
 # B3LYP/6-311++G(d,p) empiricaldispersion=gd3bj scf=xqc pop=npa geom=c
 heck
 ----------------------------------------------------------------------

 ---------------------------------------
 CID_116456442_JID_4173_Energie_neutraal
 ---------------------------------------
 Structure from the checkpoint file:  "JID_4173.chk"
 Charge =  0 Multiplicity = 1

 SCF Done:  E(RB3LYP) =  -645.782241738     A.U. after   15 cycles
 Normal termination of Gaussian 16 at Thu Dec 10 09:27:30 2020.

 ----------------------------------------------------------------------
 # B3LYP/6-311++G(d,p) empiricaldispersion=gd3bj scf=xqc pop=npa geom=c
 heck
 ----------------------------------------------------------------------

 -------------------------------------
 CID_116456442_JID_4173_Energie_kation
 -------------------------------------
 Structure from the checkpoint file:  "JID_4173.chk"
 Charge =  1 Multiplicity = 2

 SCF Done:  E(UB3LYP) =  -645.507338339     A.U. after   26 cycles
 Normal termination of Gaussian 16 at Thu Dec 10 09:33:51 2020.
 Gaussian 16:  ES64L-G16RevA.03 25-Dec-2016

 ----------------------------------------------------------------------
 # B3LYP/6-311++G(d,p) empiricaldispersion=gd3bj scf=xqc pop=npa geom=c
 heck
 ----------------------------------------------------------------------

 ------------------------------------
 CID_116456442_JID_4173_Energie_anion
 ------------------------------------
 Structure from the checkpoint file:  "JID_4173.chk"
 Charge = -1 Multiplicity = 2

                         Standard orientation:
 ---------------------------------------------------------------------
 Center     Atomic      Atomic             Coordinates (Angstroms)
 Number     Number       Type             X           Y           Z
 ---------------------------------------------------------------------
      1          6           0        3.398950   -0.652216    0.724514
      2          6           0        3.818822   -0.082008   -0.611219
      3          6           0        2.367828   -0.064065   -0.213167
      4          6           0        1.441977   -1.042575   -0.922020
      5          7           0        0.343133   -1.541239   -0.101203
      6          6           0       -0.874613   -0.887248   -0.028174
      7          7           0       -1.133342    0.065831   -0.925693
      8          7           0       -2.325074    0.674995   -0.942044
      9          6           0       -3.250411    0.371365   -0.035896
     10          6           0       -3.032425   -0.613369    0.956876
     11          6           0       -1.827275   -1.263995    0.952290
     12          7           0       -4.427167    1.119990   -0.067163
     13          6           0        1.737590    1.282696    0.129116
     14          8           0        2.636277    2.185309    0.768950
     15          1           0        3.680545   -0.095096    1.614050
     16          1           0        3.421476   -1.731927    0.855547
     17          1           0        4.341920    0.868480   -0.597410
     18          1           0        4.133454   -0.771664   -1.390275
     19          1           0        0.996569   -0.577157   -1.803486
     20          1           0        2.025750   -1.907806   -1.258187
     21          1           0        0.630750   -1.991923    0.757959
     22          1           0       -3.797122   -0.835704    1.695680
     23          1           0       -1.598656   -2.042069    1.675958
     24          1           0       -5.271965    0.593412    0.121932
     25          1           0       -4.499141    1.653379   -0.927477
     26          1           0        1.416922    1.775395   -0.793552
     27          1           0        0.836687    1.133487    0.739391
     28          1           0        2.707097    1.918182    1.697069
 ---------------------------------------------------------------------

 SCF Done:  E(UB3LYP) =  -645.779085126     A.U. after   33 cycles
 SCF Done:  E(UB3LYP) =  -645.779085126     a.u. after    1 cycles

 The electronic state is 2-A.
 Alpha  occ. eigenvalues --  -19.01612 -14.20295 -14.20092 -14.18493 -14.18174
 Alpha  occ. eigenvalues --  -10.10649 -10.10378 -10.10244 -10.09144 -10.07761
 Alpha  occ. eigenvalues --  -10.06835 -10.06730 -10.04703 -10.04621  -0.91670
 Alpha  occ. eigenvalues --   -0.87707  -0.81957  -0.78768  -0.75771  -0.67332
 Alpha  occ. eigenvalues --   -0.65433  -0.60507  -0.57218  -0.52070  -0.50525
 Alpha  occ. eigenvalues --   -0.49760  -0.45085  -0.41995  -0.40547  -0.40156
 Alpha  occ. eigenvalues --   -0.39573  -0.38818  -0.35821  -0.34906  -0.33151
 Alpha  occ. eigenvalues --   -0.32137  -0.30590  -0.29350  -0.28578  -0.28190
 Alpha  occ. eigenvalues --   -0.27194  -0.26457  -0.23540  -0.23184  -0.20205
 Alpha  occ. eigenvalues --   -0.18881  -0.17757  -0.17351  -0.16898  -0.14962
 Alpha  occ. eigenvalues --   -0.09561  -0.07909   0.04517
 Alpha virt. eigenvalues --    0.06628   0.07270   0.07968   0.08384   0.09499
 Alpha virt. eigenvalues --    0.10404   0.10938   0.11844   0.12081   0.12356
 Alpha virt. eigenvalues --    0.12933   0.13397   0.14243   0.14785   0.15073

  Beta  occ. eigenvalues --  -19.01586 -14.20285 -14.20085 -14.18240 -14.17948
  Beta  occ. eigenvalues --  -10.10704 -10.10438 -10.10240 -10.09144 -10.07760
  Beta  occ. eigenvalues --  -10.06802 -10.06725 -10.04498 -10.04417  -0.91611
  Beta  occ. eigenvalues --   -0.87374  -0.81906  -0.78674  -0.75744  -0.66916
  Beta  occ. eigenvalues --   -0.65164  -0.60435  -0.57136  -0.51659  -0.50453
  Beta  occ. eigenvalues --   -0.49658  -0.45038  -0.41914  -0.40459  -0.40091
  Beta  occ. eigenvalues --   -0.39473  -0.38738  -0.35753  -0.34825  -0.33042
  Beta  occ. eigenvalues --   -0.32113  -0.30172  -0.29233  -0.28358  -0.27961
  Beta  occ. eigenvalues --   -0.27130  -0.26430  -0.23510  -0.23032  -0.20127
  Beta  occ. eigenvalues --   -0.18657  -0.17471  -0.16868  -0.16504  -0.14211
  Beta  occ. eigenvalues --   -0.09228  -0.07307
  Beta virt. eigenvalues --    0.07183   0.07410   0.08416   0.08628   0.09626
  Beta virt. eigenvalues --    0.09649   0.10544   0.11069   0.11838   0.12309
  Beta virt. eigenvalues --    0.12387   0.13166   0.13418   0.14358   0.14926

 Mulliken charges and spin densities:
               1          2
     1  C    0.606994  -0.994124
     2  C   -0.488580   0.173749
     3  C   -0.135982   0.982095
     4  C   -0.408942  -0.599429
     5  N    0.045636   0.068487
     6  C    0.366752  -1.046677
     7  N   -0.406996   0.091389
     8  N    0.061764   0.142472
     9  C   -0.289075  -0.142622
    10  C    0.643823  -0.448998
    11  C   -0.711159   1.078800
    12  N   -0.274666  -0.015055
    13  C   -0.027736  -0.573478
    14  O   -0.234983  -0.014942
    15  H   -0.405371   0.557701
    16  H   -0.087177   0.219230
    17  H    0.146986   0.005583
    18  H    0.114637   0.011555
    19  H    0.197144   0.009475
    20  H    0.138466   0.006455
    21  H    0.098835   0.134268
    22  H   -0.119937   0.257309
    23  H   -0.446557   0.577589
    24  H    0.064955   0.160534
    25  H    0.228053   0.009780
    26  H    0.204332   0.001026
    27  H    0.082108   0.130712
    28  H    0.036676   0.217117
 Sum of Mulliken charges =  -1.00000   1.00000

 Dipole moment (field-independent basis, Debye):
    X=              0.9607    Y=             -1.3619    Z=             -2.6940  Tot=              3.1679
 Quadrupole moment (field-independent basis, Debye-Ang):
   XX=           -136.1709   YY=           -111.7098   ZZ=           -110.3240
   XY=             -5.1114   XZ=             -6.5434   YZ=              2.2179

 Summary of Natural Population Analysis:

                                       Natural Population
                Natural  -----------------------------------------------
    Atom  No    Charge         Core      Valence    Rydberg      Total
 -----------------------------------------------------------------------
      C    1   -0.20084      0.99959     2.19021    0.01103     3.20084
      C    2   -0.19884      0.99959     2.19016    0.00909     3.19884
      C    3   -0.06193      0.99954     2.05047    0.01191     3.06193
      C    4   -0.08528      0.99956     2.07324    0.01248     3.08528
      N    5   -0.31998      0.99968     2.80912    0.01117     3.81998
      C    6    0.16661      0.99954     1.81801    0.01584     2.83339
      N    7   -0.14074      0.99967     2.62702    0.01405     3.64074
      N    8   -0.12493      0.99967     2.61100    0.01426     3.62493
      C    9    0.15252      0.99956     1.83186    0.01605     2.84748
      C   10   -0.08189      0.99952     2.07312    0.00925     3.08189
      C   11   -0.07937      0.99952     2.07014    0.00970     3.07937
      N   12   -0.40969      0.99972     2.89913    0.01084     3.90969
      C   13   -0.00559      0.99953     1.99288    0.01318     3.00559
      O   14   -0.37306      0.99990     3.36701    0.00615     4.37306
      H   15    0.10227      0.00000     0.39572    0.00201     0.39773
      H   16    0.09958      0.00000     0.39939    0.00103     0.40042
      H   17    0.10912      0.00000     0.38989    0.00099     0.39088
      H   18    0.09640      0.00000     0.40278    0.00082     0.40360
      H   19    0.11433      0.00000     0.38426    0.00142     0.38567
      H   20    0.08931      0.00000     0.40964    0.00104     0.41069
      H   21    0.18432      0.00000     0.31276    0.00292     0.31568
      H   22    0.09611      0.00000     0.40279    0.00110     0.40389
      H   23    0.09689      0.00000     0.40190    0.00121     0.40311
      H   24    0.17986      0.00000     0.31851    0.00163     0.32014
      H   25    0.18457      0.00000     0.31303    0.00240     0.31543
      H   26    0.09113      0.00000     0.40763    0.00125     0.40887
      H   27    0.09023      0.00000     0.40828    0.00148     0.40977
      H   28    0.22884      0.00000     0.26760    0.00356     0.27116
 =======================================================================
   * Total *   -0.00000     13.99458    37.81755    0.18786    52.00000

 Normal termination of Gaussian 16 at Thu Dec 10 09:42:05 2020.
