 Gaussian 16, Revision A.03,

 -----------------------------------------------------------
 # opt freq B3LYP/6-31G(d) empiricaldispersion=gd3bj scf=xqc
 -----------------------------------------------------------

 --------------------------------
 CID_106397459_JID_10487_neutraal
 --------------------------------
 Symbolic Z-matrix:
 Charge =  0 Multiplicity = 1

 SCF Done:  E(RB3LYP) =  -916.251579956     A.U. after   14 cycles
 SCF Done:  E(RB3LYP) =  -916.256275312     A.U. after   12 cycles
 SCF Done:  E(RB3LYP) =  -916.256329116     A.U. after   13 cycles
 SCF Done:  E(RB3LYP) =  -916.256634720     A.U. after   13 cycles
 SCF Done:  E(RB3LYP) =  -916.258078146     A.U. after   13 cycles
 SCF Done:  E(RB3LYP) =  -916.258199951     A.U. after   11 cycles
 SCF Done:  E(RB3LYP) =  -916.258130243     A.U. after   12 cycles
 SCF Done:  E(RB3LYP) =  -916.258330736     A.U. after   11 cycles
 SCF Done:  E(RB3LYP) =  -916.258408765     A.U. after   11 cycles
 SCF Done:  E(RB3LYP) =  -916.258755460     A.U. after   13 cycles
 SCF Done:  E(RB3LYP) =  -916.261463099     A.U. after   10 cycles
 SCF Done:  E(RB3LYP) =  -916.261470947     A.U. after   10 cycles
 SCF Done:  E(RB3LYP) =  -916.261472337     A.U. after    9 cycles
 SCF Done:  E(RB3LYP) =  -916.261472404     A.U. after    6 cycles
 SCF Done:  E(RB3LYP) =  -916.261472421     A.U. after    7 cycles
 Optimization completed.
    -- Stationary point found.
 Normal termination of Gaussian 16 at Sun Dec 13 13:30:40 2020.

 --------------------------------------------------------------------
 #N Geom=AllCheck Guess=TCheck SCRF=Check GenChk RB3LYP/6-31G(d) Freq
 --------------------------------------------------------------------

 Structure from the checkpoint file:  "JID_10487.chk"
 --------------------------------
 CID_106397459_JID_10487_neutraal
 --------------------------------
 Charge =  0 Multiplicity = 1

 SCF Done:  E(RB3LYP) =  -916.261472421     A.U. after    1 cycles

  Exact polarizability: 207.237  -4.004 167.779  -5.245   2.458 132.705
 Approx polarizability: 258.187  -1.889 256.238  -4.164  11.966 218.009

                      1                      2                      3
                      A                      A                      A
 Frequencies --     21.3185                31.1023                42.7209
 Red. masses --      5.9731                 6.8116                 4.8438
 Frc consts  --      0.0016                 0.0039                 0.0052
 IR Inten    --      0.4379                 0.4747                 0.2735

                      4                      5                      6
                      A                      A                      A
 Frequencies --     51.2027                63.7306                87.9195
 Red. masses --      5.4010                 4.6203                 4.1458
 Frc consts  --      0.0083                 0.0111                 0.0189
 IR Inten    --      1.0849                 2.1249                 0.3004

                      7                      8                      9
                      A                      A                      A
 Frequencies --    123.7216               139.2419               161.7504
 Red. masses --      3.9017                 4.3623                 3.1387
 Frc consts  --      0.0352                 0.0498                 0.0484
 IR Inten    --      0.4322                 0.5564                 0.0800

                     10                     11                     12
                      A                      A                      A
 Frequencies --    192.7594               240.4448               250.5174
 Red. masses --      3.1385                 2.0456                 3.9474
 Frc consts  --      0.0687                 0.0697                 0.1460
 IR Inten    --      3.0317                 0.3592                 1.5187

                     13                     14                     15
                      A                      A                      A
 Frequencies --    261.7535               288.3861               324.0537
 Red. masses --      3.4203                 4.7796                 2.9035
 Frc consts  --      0.1381                 0.2342                 0.1796
 IR Inten    --      0.4102                 1.9965                 0.1695

                     16                     17                     18
                      A                      A                      A
 Frequencies --    333.8107               342.1506               366.0037
 Red. masses --      1.9927                 2.6097                 2.0328
 Frc consts  --      0.1308                 0.1800                 0.1604
 IR Inten    --      1.2054                 0.9560                 3.0687

                     19                     20                     21
                      A                      A                      A
 Frequencies --    403.6875               423.3181               458.2032
 Red. masses --      2.8989                 3.8451                 3.2430
 Frc consts  --      0.2783                 0.4060                 0.4012
 IR Inten    --      2.7914                 0.5792                 0.0362

                     22                     23                     24
                      A                      A                      A
 Frequencies --    483.4548               505.6755               518.2435
 Red. masses --      3.3320                 2.9758                 2.4782
 Frc consts  --      0.4589                 0.4483                 0.3921
 IR Inten    --     13.3361                 7.6968                 2.7724

                     25                     26                     27
                      A                      A                      A
 Frequencies --    567.2210               577.4391               637.8208
 Red. masses --      2.2138                 2.4061                 3.9703
 Frc consts  --      0.4196                 0.4727                 0.9516
 IR Inten    --      1.3626                19.5133                 9.6952

                     28                     29                     30
                      A                      A                      A
 Frequencies --    643.0068               673.5230               686.7797
 Red. masses --      5.2534                 2.4678                 1.7349
 Frc consts  --      1.2797                 0.6596                 0.4821
 IR Inten    --     10.0391                18.3960                46.5944

                     31                     32                     33
                      A                      A                      A
 Frequencies --    711.2784               751.9732               779.6870
 Red. masses --      4.1692                 2.7503                 1.9874
 Frc consts  --      1.2427                 0.9163                 0.7118
 IR Inten    --      4.6469                66.3762                 4.4183

                     34                     35                     36
                      A                      A                      A
 Frequencies --    816.7403               836.2198               860.6902
 Red. masses --      2.3217                 1.6344                 2.0860
 Frc consts  --      0.9125                 0.6733                 0.9105
 IR Inten    --     15.5864                81.9385                13.4548

                     37                     38                     39
                      A                      A                      A
 Frequencies --    862.2652               868.9394               892.6671
 Red. masses --      1.7042                 1.9193                 6.8041
 Frc consts  --      0.7465                 0.8538                 3.1945
 IR Inten    --      3.0672                 9.6131                12.2002

                     40                     41                     42
                      A                      A                      A
 Frequencies --    910.6313               917.3075               932.4222
 Red. masses --      2.4028                 1.3936                 1.7668
 Frc consts  --      1.1740                 0.6909                 0.9050
 IR Inten    --      3.4565                 6.7501                 3.6819

                     43                     44                     45
                      A                      A                      A
 Frequencies --    937.3938               951.6219               967.8405
 Red. masses --      1.9576                 2.3172                 2.5420
 Frc consts  --      1.0135                 1.2364                 1.4029
 IR Inten    --      4.2428                 6.6724                 2.0546

                     46                     47                     48
                      A                      A                      A
 Frequencies --    987.5519               999.4367              1019.7542
 Red. masses --      6.7782                 1.9179                 1.9861
 Frc consts  --      3.8948                 1.1287                 1.2168
 IR Inten    --     10.8837                 6.1838                 2.1506

                     49                     50                     51
                      A                      A                      A
 Frequencies --   1028.4224              1041.3500              1055.9809
 Red. masses --      1.7669                 4.3142                 2.3200
 Frc consts  --      1.1011                 2.7564                 1.5243
 IR Inten    --      1.5699                 0.5271                 9.1053

                     52                     53                     54
                      A                      A                      A
 Frequencies --   1065.0488              1078.9990              1100.7512
 Red. masses --      2.1373                 1.3399                 1.9426
 Frc consts  --      1.4284                 0.9191                 1.3868
 IR Inten    --      7.2323                 2.4231                 4.1167

                     55                     56                     57
                      A                      A                      A
 Frequencies --   1114.3141              1139.9543              1148.5022
 Red. masses --      2.5577                 2.4276                 2.4188
 Frc consts  --      1.8712                 1.8586                 1.8798
 IR Inten    --      5.9503                10.6633                29.3298

                     58                     59                     60
                      A                      A                      A
 Frequencies --   1156.0363              1164.2301              1182.2407
 Red. masses --      2.2331                 2.4451                 1.9731
 Frc consts  --      1.7584                 1.9526                 1.6249
 IR Inten    --     21.3245                 6.5336                 6.8367

                     61                     62                     63
                      A                      A                      A
 Frequencies --   1200.0838              1210.3940              1225.2315
 Red. masses --      2.0458                 1.5922                 1.2289
 Frc consts  --      1.7360                 1.3743                 1.0870
 IR Inten    --     55.2990                 1.8309                 8.4603

                     64                     65                     66
                      A                      A                      A
 Frequencies --   1232.5781              1233.1648              1274.9534
 Red. masses --      2.7204                 1.4984                 1.2868
 Frc consts  --      2.4351                 1.3425                 1.2324
 IR Inten    --     28.9492                 4.2078                 4.9776

                     67                     68                     69
                      A                      A                      A
 Frequencies --   1285.3209              1289.1714              1295.3538
 Red. masses --      1.3843                 1.9147                 1.3271
 Frc consts  --      1.3474                 1.8749                 1.3120
 IR Inten    --     15.1483                38.6976                 8.9423

                     70                     71                     72
                      A                      A                      A
 Frequencies --   1326.0548              1335.5867              1339.0780
 Red. masses --      1.5057                 1.2714                 1.3538
 Frc consts  --      1.5599                 1.3362                 1.4302
 IR Inten    --     11.8596                 6.4589                 2.5360

                     73                     74                     75
                      A                      A                      A
 Frequencies --   1351.3617              1355.1641              1377.7454
 Red. masses --      1.2799                 1.2210                 1.5199
 Frc consts  --      1.3771                 1.3211                 1.6998
 IR Inten    --      6.2036                24.6626                57.4310

                     76                     77                     78
                      A                      A                      A
 Frequencies --   1381.2337              1386.8620              1395.3768
 Red. masses --      1.4445                 1.4195                 1.3968
 Frc consts  --      1.6237                 1.6086                 1.6023
 IR Inten    --     53.5578                 1.1043                12.2277

                     79                     80                     81
                      A                      A                      A
 Frequencies --   1398.0187              1400.3672              1404.8561
 Red. masses --      1.4309                 1.5740                 1.6749
 Frc consts  --      1.6477                 1.8186                 1.9476
 IR Inten    --     16.6509                27.2774                 3.0274

                     82                     83                     84
                      A                      A                      A
 Frequencies --   1408.0800              1420.8222              1434.8112
 Red. masses --      1.5727                 1.6633                 1.5088
 Frc consts  --      1.8372                 1.9784                 1.8301
 IR Inten    --      2.1656                 3.2647                 3.6785

                     85                     86                     87
                      A                      A                      A
 Frequencies --   1438.6486              1491.8484              1500.0473
 Red. masses --      1.4793                 1.1535                 1.1426
 Frc consts  --      1.8039                 1.5125                 1.5148
 IR Inten    --     12.5615                14.0547                 2.6949

                     88                     89                     90
                      A                      A                      A
 Frequencies --   1503.2807              1511.6813              1517.1354
 Red. masses --      1.2227                 1.0960                 1.1110
 Frc consts  --      1.6279                 1.4757                 1.5067
 IR Inten    --     16.9745                 6.8467                 8.0673

                     91                     92                     93
                      A                      A                      A
 Frequencies --   1518.3544              1520.6278              1521.8451
 Red. masses --      1.2247                 1.0947                 1.6219
 Frc consts  --      1.6635                 1.4914                 2.2131
 IR Inten    --     24.2231                 9.1234                75.4646

                     94                     95                     96
                      A                      A                      A
 Frequencies --   1524.9456              1533.4775              1534.1930
 Red. masses --      1.1898                 4.1107                 1.1011
 Frc consts  --      1.6302                 5.6953                 1.5270
 IR Inten    --     37.4773                13.3440                 0.6372

                     97                     98                     99
                      A                      A                      A
 Frequencies --   1626.9776              1776.7419              2902.8545
 Red. masses --      7.2345                 7.8345                 1.0800
 Frc consts  --     11.2829                14.5716                 5.3622
 IR Inten    --     49.9723               367.6499                53.7425

                    100                    101                    102
                      A                      A                      A
 Frequencies --   2988.2374              3001.1907              3021.1591
 Red. masses --      1.0830                 1.0813                 1.0658
 Frc consts  --      5.6978                 5.7381                 5.7317
 IR Inten    --     35.0680                 7.4977                 4.0164

                    103                    104                    105
                      A                      A                      A
 Frequencies --   3025.8686              3028.4480              3029.8641
 Red. masses --      1.0644                 1.0640                 1.0648
 Frc consts  --      5.7421                 5.7495                 5.7592
 IR Inten    --     34.0343                 0.9998                77.6258

                    106                    107                    108
                      A                      A                      A
 Frequencies --   3032.5460              3059.0148              3060.8676
 Red. masses --      1.0631                 1.0684                 1.0642
 Frc consts  --      5.7601                 5.8905                 5.8742
 IR Inten    --     37.4721                14.0765                 8.6592

                    109                    110                    111
                      A                      A                      A
 Frequencies --   3066.1775              3068.2690              3069.4524
 Red. masses --      1.1006                 1.0742                 1.0950
 Frc consts  --      6.0965                 5.9585                 6.0781
 IR Inten    --     39.3734                26.4022                15.9588

                    112                    113                    114
                      A                      A                      A
 Frequencies --   3077.3280              3078.5252              3084.5519
 Red. masses --      1.0932                 1.0954                 1.1032
 Frc consts  --      6.0998                 6.1164                 6.1842
 IR Inten    --     69.4731                69.1870                76.2070

                    115                    116                    117
                      A                      A                      A
 Frequencies --   3105.2667              3106.8337              3206.2748
 Red. masses --      1.1040                 1.0968                 1.0916
 Frc consts  --      6.2721                 6.2374                 6.6120
 IR Inten    --     35.0770                13.8032                 2.7626

                    118                    119                    120
                      A                      A                      A
 Frequencies --   3281.5529              3465.0856              3578.7676
 Red. masses --      1.0978                 1.0739                 1.0755
 Frc consts  --      6.9652                 7.5971                 8.1155
 IR Inten    --      3.5674                 2.0228                62.3701

 - Thermochemistry -
 -------------------
 Temperature   298.150 Kelvin.  Pressure   1.00000 Atm.
 Atom     1 has atomic number  6 and mass  12.00000

 Molecular mass:   278.17428 amu.
 Principal axes and moments of inertia in atomic units:
                           1         2         3
     Eigenvalues --  3001.26417********************
           X            0.99990  -0.01408   0.00062
           Y            0.01409   0.99973  -0.01858
           Z           -0.00036   0.01859   0.99983
 This molecule is an asymmetric top.
 Rotational symmetry number  1.
 Warning -- assumption of classical behavior for rotation
           may cause significant error
 Rotational temperatures (Kelvin)      0.02886     0.00807     0.00683
 Rotational constants (GHZ):           0.60133     0.16816     0.14234
 Zero-point vibrational energy     962998.8 (Joules/Mol)
                                  230.16223 (Kcal/Mol)
 Warning -- explicit consideration of  26 degrees of freedom as
           vibrations may cause significant error
 Vibrational temperatures:     30.67    44.75    61.47    73.67    91.69
          (Kelvin)            126.50   178.01   200.34   232.72   277.34
                              345.95   360.44   376.60   414.92   466.24
                              480.28   492.28   526.60   580.82   609.06
                              659.25   695.58   727.55   745.64   816.10
                              830.81   917.68   925.14   969.05   988.12
                             1023.37  1081.92  1121.80  1175.11  1203.13
                             1238.34  1240.61  1250.21  1284.35  1310.20
                             1319.80  1341.55  1348.70  1369.17  1392.51
                             1420.87  1437.97  1467.20  1479.67  1498.27
                             1519.32  1532.37  1552.44  1583.74  1603.25
                             1640.14  1652.44  1663.28  1675.07  1700.98
                             1726.65  1741.49  1762.83  1773.41  1774.25
                             1834.37  1849.29  1854.83  1863.73  1907.90
                             1921.61  1926.63  1944.31  1949.78  1982.27
                             1987.29  1995.39  2007.64  2011.44  2014.82
                             2021.27  2025.91  2044.25  2064.37  2069.89
                             2146.44  2158.23  2162.89  2174.97  2182.82
                             2184.57  2187.84  2189.60  2194.06  2206.33
                             2207.36  2340.86  2556.34  4176.56  4299.41
                             4318.04  4346.77  4353.55  4357.26  4359.30
                             4363.16  4401.24  4403.91  4411.55  4414.55
                             4416.26  4427.59  4429.31  4437.98  4467.79
                             4470.04  4613.11  4721.42  4985.49  5149.05

 Zero-point correction=                           0.366787 (Hartree/Particle)
 Thermal correction to Energy=                    0.384618
 Thermal correction to Enthalpy=                  0.385562
 Thermal correction to Gibbs Free Energy=         0.318722
 Sum of electronic and zero-point Energies=           -915.894686
 Sum of electronic and thermal Energies=              -915.876855
 Sum of electronic and thermal Enthalpies=            -915.875911
 Sum of electronic and thermal Free Energies=         -915.942751

                     E (Thermal)             CV                S
                      KCal/Mol        Cal/Mol-Kelvin    Cal/Mol-Kelvin
 Total                  241.351             69.528            140.676
 Electronic               0.000              0.000              0.000
 Translational            0.889              2.981             42.768
 Rotational               0.889              2.981             34.367
 Vibrational            239.574             63.566             63.541
 Vibration     1          0.593              1.985              6.507
 Vibration     2          0.594              1.983              5.758
 Vibration     3          0.595              1.980              5.129
 Vibration     4          0.595              1.977              4.770
 Vibration     5          0.597              1.972              4.338
 Vibration     6          0.601              1.958              3.706
 Vibration     7          0.610              1.929              3.041
 Vibration     8          0.615              1.914              2.814
 Vibration     9          0.622              1.889              2.529
 Vibration    10          0.635              1.850              2.201
 Vibration    11          0.658              1.778              1.800
 Vibration    12          0.663              1.762              1.727
 Vibration    13          0.669              1.743              1.650
 Vibration    14          0.685              1.695              1.483
 Vibration    15          0.709              1.627              1.290
 Vibration    16          0.715              1.608              1.242
 Vibration    17          0.721              1.591              1.202
 Vibration    18          0.739              1.542              1.096
 Vibration    19          0.769              1.462              0.949
 Vibration    20          0.785              1.420              0.881
 Vibration    21          0.816              1.343              0.771
 Vibration    22          0.840              1.287              0.701
 Vibration    23          0.861              1.237              0.644
 Vibration    24          0.873              1.210              0.614
 Vibration    25          0.923              1.102              0.510
 Vibration    26          0.934              1.080              0.490

 Optimization completed.
    -- Stationary point found.
 Normal termination of Gaussian 16 at Sun Dec 13 13:52:17 2020.

 ----------------------------------------------------------------------
 # B3LYP/6-311++G(d,p) empiricaldispersion=gd3bj scf=xqc pop=npa geom=c
 heck
 ----------------------------------------------------------------------

 ----------------------------------------
 CID_106397459_JID_10487_Energie_neutraal
 ----------------------------------------
 Structure from the checkpoint file:  "JID_10487.chk"
 Charge =  0 Multiplicity = 1

 SCF Done:  E(RB3LYP) =  -916.515388055     A.U. after   15 cycles
 Normal termination of Gaussian 16 at Sun Dec 13 14:01:45 2020.

 ----------------------------------------------------------------------
 # B3LYP/6-311++G(d,p) empiricaldispersion=gd3bj scf=xqc pop=npa geom=c
 heck
 ----------------------------------------------------------------------

 --------------------------------------
 CID_106397459_JID_10487_Energie_kation
 --------------------------------------
 Structure from the checkpoint file:  "JID_10487.chk"
 Charge =  1 Multiplicity = 2

 SCF Done:  E(UB3LYP) =  -916.202232980     A.U. after   32 cycles
 Normal termination of Gaussian 16 at Sun Dec 13 14:27:39 2020.
 Gaussian 16:  ES64L-G16RevA.03 25-Dec-2016

 ----------------------------------------------------------------------
 # B3LYP/6-311++G(d,p) empiricaldispersion=gd3bj scf=xqc pop=npa geom=c
 heck
 ----------------------------------------------------------------------

 -------------------------------------
 CID_106397459_JID_10487_Energie_anion
 -------------------------------------
 Structure from the checkpoint file:  "JID_10487.chk"
 Charge = -1 Multiplicity = 2

                         Standard orientation:
 ---------------------------------------------------------------------
 Center     Atomic      Atomic             Coordinates (Angstroms)
 Number     Number       Type             X           Y           Z
 ---------------------------------------------------------------------
      1          6           0        4.587180   -1.871128   -0.433406
      2          6           0        3.820459   -2.349895    0.806880
      3          6           0        2.375436   -1.836163    0.797389
      4          6           0        2.325901   -0.312404    0.667364
      5          6           0        3.075951    0.164900   -0.586137
      6          6           0        4.522721   -0.344606   -0.571076
      7          6           0        2.985570    1.690951   -0.699142
      8          6           0        1.527507    2.160264   -0.672490
      9          6           0        0.803722    1.602894    0.565623
     10          7           0        0.930218    0.139101    0.611486
     11          6           0       -0.659180    2.056711    0.618081
     12          8           0       -0.990941    2.957996    1.381230
     13          7           0       -1.577295    1.471799   -0.211233
     14          6           0       -1.438527    0.401072   -1.181705
     15          6           0       -1.986301   -0.941952   -0.678742
     16          6           0       -3.435521   -0.878095   -0.335638
     17          7           0       -4.228936    0.159704   -0.351087
     18          6           0       -5.425327   -0.383873    0.055816
     19          7           0       -5.402432   -1.664117    0.310663
     20          8           0       -4.057398   -2.005503    0.047742
     21          1           0        5.630778   -2.205161   -0.387503
     22          1           0        4.147881   -2.332826   -1.329364
     23          1           0        3.829781   -3.444829    0.864058
     24          1           0        4.329441   -1.984178    1.710046
     25          1           0        1.825992   -2.272002   -0.048257
     26          1           0        1.852251   -2.149311    1.711640
     27          1           0        2.845873    0.128018    1.543080
     28          1           0        2.560117   -0.277494   -1.453195
     29          1           0        5.058054    0.120717    0.269865
     30          1           0        5.036654   -0.019371   -1.484542
     31          1           0        3.480067    2.034784   -1.616287
     32          1           0        3.530232    2.144024    0.142012
     33          1           0        1.019089    1.828916   -1.585399
     34          1           0        1.465799    3.253628   -0.648579
     35          1           0        1.258581    2.074988    1.451598
     36          1           0        0.453726   -0.195882    1.448725
     37          1           0       -2.523195    1.808540   -0.067071
     38          1           0       -1.968678    0.692672   -2.095541
     39          1           0       -0.387885    0.258543   -1.416175
     40          1           0       -1.838558   -1.717535   -1.441216
     41          1           0       -1.413848   -1.256798    0.200672
     42          1           0       -6.333867    0.193157    0.163964
 ---------------------------------------------------------------------

 SCF Done:  E(UB3LYP) =  -916.510324679     A.U. after   33 cycles
 SCF Done:  E(UB3LYP) =  -916.510324679     a.u. after    1 cycles

 The electronic state is 2-A.
 Alpha  occ. eigenvalues --  -19.10294 -18.99482 -14.25388 -14.24099 -14.22027
 Alpha  occ. eigenvalues --  -14.21608 -10.18034 -10.15971 -10.12920 -10.12189
 Alpha  occ. eigenvalues --  -10.11901 -10.11297 -10.09565 -10.08862 -10.08398
 Alpha  occ. eigenvalues --  -10.08332 -10.07950 -10.07869 -10.07691 -10.07424
 Alpha  occ. eigenvalues --   -1.05451  -0.94655  -0.84354  -0.83389  -0.82391
 Alpha  occ. eigenvalues --   -0.76994  -0.74248  -0.71104  -0.67991  -0.66551
 Alpha  occ. eigenvalues --   -0.64690  -0.58554  -0.57412  -0.54139  -0.53583
 Alpha  occ. eigenvalues --   -0.52518  -0.50277  -0.48852  -0.48146  -0.47079
 Alpha  occ. eigenvalues --   -0.42934  -0.41812  -0.41315  -0.39361  -0.38693
 Alpha  occ. eigenvalues --   -0.37783  -0.37015  -0.35928  -0.35745  -0.35220
 Alpha  occ. eigenvalues --   -0.34142  -0.33092  -0.32917  -0.32006  -0.31404
 Alpha  occ. eigenvalues --   -0.31157  -0.30459  -0.29254  -0.29068  -0.28051
 Alpha  occ. eigenvalues --   -0.27730  -0.26695  -0.26008  -0.25147  -0.24638
 Alpha  occ. eigenvalues --   -0.23758  -0.23588  -0.23318  -0.21967  -0.21047
 Alpha  occ. eigenvalues --   -0.20114  -0.18880  -0.16468  -0.16353  -0.15308
 Alpha  occ. eigenvalues --    0.03978
 Alpha virt. eigenvalues --    0.05398   0.06339   0.06722   0.07006   0.07913
 Alpha virt. eigenvalues --    0.08542   0.08636   0.09148   0.09380   0.09837
 Alpha virt. eigenvalues --    0.10144   0.10619   0.11361   0.11599   0.11925

  Beta  occ. eigenvalues --  -19.10101 -18.99475 -14.25136 -14.24102 -14.22025
  Beta  occ. eigenvalues --  -14.21654 -10.18029 -10.15690 -10.12871 -10.12190
  Beta  occ. eigenvalues --  -10.11893 -10.11295 -10.09581 -10.08855 -10.08390
  Beta  occ. eigenvalues --  -10.08322 -10.07942 -10.07854 -10.07677 -10.07398
  Beta  occ. eigenvalues --   -1.05112  -0.94643  -0.84342  -0.83292  -0.82344
  Beta  occ. eigenvalues --   -0.76591  -0.74224  -0.71089  -0.67908  -0.66521
  Beta  occ. eigenvalues --   -0.64664  -0.58485  -0.57334  -0.54110  -0.53359
  Beta  occ. eigenvalues --   -0.52487  -0.50137  -0.48735  -0.48112  -0.47036
  Beta  occ. eigenvalues --   -0.42883  -0.41675  -0.41134  -0.39310  -0.38071
  Beta  occ. eigenvalues --   -0.37748  -0.36989  -0.35870  -0.35693  -0.35159
  Beta  occ. eigenvalues --   -0.34080  -0.33040  -0.32874  -0.31924  -0.31287
  Beta  occ. eigenvalues --   -0.31111  -0.30336  -0.29170  -0.28999  -0.27975
  Beta  occ. eigenvalues --   -0.27695  -0.26665  -0.25971  -0.25121  -0.24601
  Beta  occ. eigenvalues --   -0.23558  -0.23524  -0.22709  -0.21938  -0.21021
  Beta  occ. eigenvalues --   -0.19988  -0.17709  -0.16452  -0.16340  -0.15284
  Beta virt. eigenvalues --    0.05999   0.06726   0.07042   0.07260   0.07954
  Beta virt. eigenvalues --    0.08132   0.08848   0.08987   0.09388   0.09594
  Beta virt. eigenvalues --    0.10007   0.10294   0.10866   0.11468   0.11770

 Mulliken charges and spin densities:
               1          2
     1  C    0.317302  -0.781136
     2  C   -0.092835  -0.500607
     3  C   -0.079704   0.005808
     4  C   -0.487344  -0.441888
     5  C    0.208043   0.511389
     6  C   -0.040726  -0.377340
     7  C   -0.003036  -0.466875
     8  C   -0.413498  -0.026608
     9  C    0.417467  -0.145283
    10  N    0.067577   0.016030
    11  C   -0.300791   0.019588
    12  O   -0.309305   0.002324
    13  N   -0.263129   0.014054
    14  C   -0.058782  -0.184487
    15  C    0.151564  -0.203933
    16  C   -0.445452  -0.056966
    17  N   -0.145484  -0.006811
    18  C    0.060033   0.056062
    19  N   -0.256000   0.105263
    20  O    0.077423   0.053741
    21  H   -0.442904   0.626401
    22  H   -0.074275   0.210447
    23  H   -0.360488   0.550728
    24  H    0.159314  -0.051050
    25  H    0.131779   0.020211
    26  H    0.054308   0.079535
    27  H    0.070325   0.110170
    28  H   -0.202033   0.393332
    29  H    0.080256   0.044833
    30  H   -0.176773   0.342201
    31  H   -0.056676   0.230339
    32  H    0.112150   0.017379
    33  H    0.008647   0.134786
    34  H    0.167838   0.029600
    35  H    0.221978  -0.011025
    36  H    0.296234  -0.055742
    37  H    0.358411   0.001120
    38  H    0.059353   0.152085
    39  H    0.092162   0.109394
    40  H   -0.223369   0.413207
    41  H    0.156426   0.059517
    42  H    0.164014   0.000205
 Sum of Mulliken charges =  -1.00000   1.00000

 Dipole moment (field-independent basis, Debye):
    X=             -0.1691    Y=              3.8117    Z=              2.1616  Tot=              4.3852
 Quadrupole moment (field-independent basis, Debye-Ang):
   XX=           -224.9299   YY=           -177.6189   ZZ=           -151.4457
   XY=              7.2746   XZ=             14.1090   YZ=             -9.1167

 Summary of Natural Population Analysis:

                                       Natural Population
                Natural  -----------------------------------------------
    Atom  No    Charge         Core      Valence    Rydberg      Total
 -----------------------------------------------------------------------
      C    1   -0.18836      0.99963     2.18015    0.00858     3.18836
      C    2   -0.18811      0.99963     2.17965    0.00883     3.18811
      C    3   -0.19092      0.99960     2.18195    0.00936     3.19092
      C    4   -0.00171      0.99955     1.99167    0.01048     3.00171
      C    5   -0.11621      0.99956     2.10479    0.01187     3.11621
      C    6   -0.18662      0.99961     2.17728    0.00973     3.18662
      C    7   -0.18606      0.99961     2.17718    0.00927     3.18606
      C    8   -0.18974      0.99961     2.18165    0.00848     3.18974
      C    9   -0.04395      0.99955     2.03240    0.01200     3.04395
      N   10   -0.34358      0.99972     2.83355    0.01031     3.84358
      C   11    0.34178      0.99963     1.63566    0.02292     2.65822
      O   12   -0.32700      0.99988     3.32141    0.00571     4.32700
      N   13   -0.31824      0.99966     2.80930    0.00928     3.81824
      C   14   -0.08918      0.99961     2.07775    0.01182     3.08918
      C   15   -0.22568      0.99958     2.21746    0.00864     3.22568
      C   16    0.32625      0.99963     1.65375    0.02036     2.67375
      N   17   -0.30240      0.99968     2.79328    0.00944     3.80240
      C   18    0.08882      0.99971     1.89327    0.01820     2.91118
      N   19   -0.06292      0.99971     2.55115    0.01207     3.56292
      O   20   -0.15869      0.99985     3.14998    0.00886     4.15869
      H   21    0.09977      0.00000     0.39895    0.00128     0.40023
      H   22    0.09685      0.00000     0.40133    0.00181     0.40315
      H   23    0.10181      0.00000     0.39715    0.00103     0.39819
      H   24    0.09097      0.00000     0.40798    0.00105     0.40903
      H   25    0.10212      0.00000     0.39625    0.00163     0.39788
      H   26    0.09530      0.00000     0.40377    0.00093     0.40470
      H   27    0.07627      0.00000     0.42196    0.00176     0.42373
      H   28    0.09981      0.00000     0.39765    0.00253     0.40019
      H   29    0.09156      0.00000     0.40722    0.00122     0.40844
      H   30    0.10237      0.00000     0.39647    0.00116     0.39763
      H   31    0.10230      0.00000     0.39680    0.00090     0.39770
      H   32    0.09293      0.00000     0.40586    0.00121     0.40707
      H   33    0.09934      0.00000     0.39938    0.00128     0.40066
      H   34    0.10355      0.00000     0.39562    0.00082     0.39645
      H   35    0.09258      0.00000     0.40549    0.00193     0.40742
      H   36    0.17317      0.00000     0.32453    0.00229     0.32683
      H   37    0.20618      0.00000     0.29157    0.00226     0.29382
      H   38    0.09655      0.00000     0.40227    0.00118     0.40345
      H   39    0.11331      0.00000     0.38508    0.00160     0.38669
      H   40    0.11826      0.00000     0.37964    0.00210     0.38174
      H   41    0.11486      0.00000     0.38363    0.00151     0.38514
      H   42    0.09264      0.00000     0.40655    0.00080     0.40736
 =======================================================================
   * Total *    0.00000     19.99302    54.74845    0.25852    75.00000

 Normal termination of Gaussian 16 at Sun Dec 13 14:53:55 2020.
