 Gaussian 16, Revision A.03,

 -----------------------------------------------------------
 # opt freq B3LYP/6-31G(d) empiricaldispersion=gd3bj scf=xqc
 -----------------------------------------------------------

 -------------------------------
 CID_130009132_JID_4123_neutraal
 -------------------------------
 Symbolic Z-matrix:
 Charge =  0 Multiplicity = 1

 SCF Done:  E(RB3LYP) =  -697.589946938     A.U. after   15 cycles
 SCF Done:  E(RB3LYP) =  -697.597717325     A.U. after   13 cycles
 SCF Done:  E(RB3LYP) =  -697.598922378     A.U. after   12 cycles
 SCF Done:  E(RB3LYP) =  -697.599117666     A.U. after   11 cycles
 SCF Done:  E(RB3LYP) =  -697.599204440     A.U. after   12 cycles
 SCF Done:  E(RB3LYP) =  -697.599280524     A.U. after   11 cycles
 SCF Done:  E(RB3LYP) =  -697.599360277     A.U. after   12 cycles
 SCF Done:  E(RB3LYP) =  -697.599404299     A.U. after   10 cycles
 SCF Done:  E(RB3LYP) =  -697.599428676     A.U. after    9 cycles
 SCF Done:  E(RB3LYP) =  -697.599433172     A.U. after    9 cycles
 SCF Done:  E(RB3LYP) =  -697.599435816     A.U. after    9 cycles
 SCF Done:  E(RB3LYP) =  -697.599437331     A.U. after    9 cycles
 SCF Done:  E(RB3LYP) =  -697.599438583     A.U. after    9 cycles
 SCF Done:  E(RB3LYP) =  -697.599439219     A.U. after    8 cycles
 SCF Done:  E(RB3LYP) =  -697.599439478     A.U. after    8 cycles
 Optimization completed.
    -- Stationary point found.
 Normal termination of Gaussian 16 at Thu Dec 10 09:17:07 2020.

 --------------------------------------------------------------------
 #N Geom=AllCheck Guess=TCheck SCRF=Check GenChk RB3LYP/6-31G(d) Freq
 --------------------------------------------------------------------

 Structure from the checkpoint file:  "JID_4123.chk"
 -------------------------------
 CID_130009132_JID_4123_neutraal
 -------------------------------
 Charge =  0 Multiplicity = 1

 SCF Done:  E(RB3LYP) =  -697.599439478     A.U. after    1 cycles

  Exact polarizability: 140.057  -4.577 114.580   5.121   6.360  74.063
 Approx polarizability: 191.222  -2.261 188.312   9.493  20.958 112.489

                      1                      2                      3
                      A                      A                      A
 Frequencies --     35.6080                55.4528                65.6227
 Red. masses --      3.6184                 6.4736                 5.5530
 Frc consts  --      0.0027                 0.0117                 0.0141
 IR Inten    --      0.0836                 1.4573                 1.1297

                      4                      5                      6
                      A                      A                      A
 Frequencies --     76.8513                87.7484               133.6827
 Red. masses --      3.8121                 3.8067                 1.0762
 Frc consts  --      0.0133                 0.0173                 0.0113
 IR Inten    --      7.9987                 2.3821                 0.2408

                      7                      8                      9
                      A                      A                      A
 Frequencies --    136.6119               145.8345               150.7431
 Red. masses --      1.2680                 3.3382                 1.0566
 Frc consts  --      0.0139                 0.0418                 0.0141
 IR Inten    --      0.2460                 3.6846                 0.5559

                     10                     11                     12
                      A                      A                      A
 Frequencies --    177.2697               257.8158               270.3459
 Red. masses --      3.5915                 4.1025                 3.6206
 Frc consts  --      0.0665                 0.1607                 0.1559
 IR Inten    --      0.0786                12.6985                 0.9952

                     13                     14                     15
                      A                      A                      A
 Frequencies --    310.6692               363.7803               397.1058
 Red. masses --      4.1876                 6.6817                 7.2922
 Frc consts  --      0.2381                 0.5210                 0.6775
 IR Inten    --      3.8093                 0.3344                 1.5537

                     16                     17                     18
                      A                      A                      A
 Frequencies --    442.9744               495.2650               503.8126
 Red. masses --      5.4842                 3.2899                 3.4237
 Frc consts  --      0.6341                 0.4755                 0.5120
 IR Inten    --      4.6760                30.5263                 8.6149

                     19                     20                     21
                      A                      A                      A
 Frequencies --    544.7914               562.3035               579.1949
 Red. masses --      1.6702                 2.0803                 3.4520
 Frc consts  --      0.2921                 0.3875                 0.6823
 IR Inten    --      6.6281                19.7319                13.4839

                     22                     23                     24
                      A                      A                      A
 Frequencies --    615.3498               648.6977               671.3758
 Red. masses --      2.1133                 3.5368                 1.6926
 Frc consts  --      0.4715                 0.8769                 0.4495
 IR Inten    --     57.3018                54.4401                91.1388

                     25                     26                     27
                      A                      A                      A
 Frequencies --    701.4700               725.7251               786.1249
 Red. masses --      6.5376                 4.8758                 4.6663
 Frc consts  --      1.8953                 1.5130                 1.6990
 IR Inten    --      1.8104                 6.3621                 5.2874

                     28                     29                     30
                      A                      A                      A
 Frequencies --    814.8133               888.1421               916.8387
 Red. masses --      4.2575                 4.5136                 4.8974
 Frc consts  --      1.6654                 2.0977                 2.4255
 IR Inten    --      9.1703                 1.3323                 2.8381

                     31                     32                     33
                      A                      A                      A
 Frequencies --   1015.2876              1036.4221              1039.0163
 Red. masses --      2.0121                 1.6281                 1.9530
 Frc consts  --      1.2220                 1.0304                 1.2422
 IR Inten    --     14.2282                13.1195                18.1850

                     34                     35                     36
                      A                      A                      A
 Frequencies --   1063.0838              1068.9676              1071.5550
 Red. masses --      3.5187                 1.7505                 1.7296
 Frc consts  --      2.3430                 1.1785                 1.1701
 IR Inten    --     16.2654                10.3098                 6.6910

                     37                     38                     39
                      A                      A                      A
 Frequencies --   1077.9533              1100.8481              1268.9789
 Red. masses --      1.4834                 4.8262                 3.3507
 Frc consts  --      1.0156                 3.4460                 3.1790
 IR Inten    --      1.5434                 2.3424                10.4506

                     40                     41                     42
                      A                      A                      A
 Frequencies --   1299.6482              1314.3398              1356.1142
 Red. masses --      3.4366                 2.8799                 4.9668
 Frc consts  --      3.4200                 2.9311                 5.3817
 IR Inten    --    261.7072               354.8872                10.0419

                     43                     44                     45
                      A                      A                      A
 Frequencies --   1425.5587              1428.0259              1434.4922
 Red. masses --      2.9692                 1.4335                 1.3412
 Frc consts  --      3.5552                 1.7223                 1.6261
 IR Inten    --      9.0212                47.0313                54.0387

                     46                     47                     48
                      A                      A                      A
 Frequencies --   1442.7259              1458.7562              1477.0805
 Red. masses --      1.3007                 1.4601                 1.0592
 Frc consts  --      1.5952                 1.8306                 1.3616
 IR Inten    --      3.5029                10.9833                21.7452

                     49                     50                     51
                      A                      A                      A
 Frequencies --   1497.1109              1500.4224              1505.0720
 Red. masses --      1.0586                 1.0441                 1.0482
 Frc consts  --      1.3980                 1.3849                 1.3989
 IR Inten    --      7.3845                10.8690                12.9027

                     52                     53                     54
                      A                      A                      A
 Frequencies --   1507.9207              1512.1126              1559.6381
 Red. masses --      1.0968                 1.0969                 2.9459
 Frc consts  --      1.4694                 1.4777                 4.2220
 IR Inten    --     10.8323                 8.6178               109.5003

                     55                     56                     57
                      A                      A                      A
 Frequencies --   1613.4267              1635.3938              1815.9036
 Red. masses --      7.3239                 9.7818                 8.6614
 Frc consts  --     11.2329                15.4140                16.8278
 IR Inten    --     67.9341               254.8810               388.5671

                     58                     59                     60
                      A                      A                      A
 Frequencies --   1839.8640              3051.6010              3071.5929
 Red. masses --      9.1505                 1.0396                 1.0382
 Frc consts  --     18.2501                 5.7038                 5.7710
 IR Inten    --    302.3375                18.8939                 1.1893

                     61                     62                     63
                      A                      A                      A
 Frequencies --   3080.8485              3101.9641              3132.6696
 Red. masses --      1.0357                 1.1015                 1.1004
 Frc consts  --      5.7919                 6.2448                 6.3625
 IR Inten    --      0.7043                12.4228                 3.4120

                     64                     65                     66
                      A                      A                      A
 Frequencies --   3143.9181              3168.7310              3186.0503
 Red. masses --      1.0992                 1.0984                 1.1058
 Frc consts  --      6.4016                 6.4978                 6.6137
 IR Inten    --      1.5059                 1.9615                11.0902

                     67                     68                     69
                      A                      A                      A
 Frequencies --   3189.4146              3554.3592              3572.9293
 Red. masses --      1.1022                 1.0773                 1.0756
 Frc consts  --      6.6056                 8.0186                 8.0903
 IR Inten    --      3.6893                24.4211                40.8144

 - Thermochemistry -
 -------------------
 Temperature   298.150 Kelvin.  Pressure   1.00000 Atm.
 Atom     1 has atomic number  6 and mass  12.00000

 Molecular mass:   197.09127 amu.
 Principal axes and moments of inertia in atomic units:
                           1         2         3
     Eigenvalues --  1847.525763542.634074880.01118
           X            0.99997  -0.00735   0.00190
           Y            0.00738   0.99985  -0.01577
           Z           -0.00179   0.01579   0.99987
 This molecule is an asymmetric top.
 Rotational symmetry number  1.
 Warning -- assumption of classical behavior for rotation
           may cause significant error
 Rotational temperatures (Kelvin)      0.04688     0.02445     0.01775
 Rotational constants (GHZ):           0.97684     0.50943     0.36982
 Zero-point vibrational energy     515481.8 (Joules/Mol)
                                  123.20310 (Kcal/Mol)
 Warning -- explicit consideration of  22 degrees of freedom as
           vibrations may cause significant error
 Vibrational temperatures:     51.23    79.78    94.42   110.57   126.25
          (Kelvin)            192.34   196.55   209.82   216.89   255.05
                              370.94   388.97   446.98   523.40   571.35
                              637.34   712.58   724.87   783.83   809.03
                              833.33   885.35   933.33   965.96  1009.26
                             1044.16  1131.06  1172.33  1277.84  1319.13
                             1460.77  1491.18  1494.91  1529.54  1538.01
                             1541.73  1550.93  1583.87  1825.78  1869.90
                             1891.04  1951.15  2051.06  2054.61  2063.91
                             2075.76  2098.82  2125.19  2154.01  2158.77
                             2165.46  2169.56  2175.59  2243.97  2321.36
                             2352.97  2612.68  2647.15  4390.57  4419.34
                             4432.65  4463.03  4507.21  4523.40  4559.10
                             4584.02  4588.86  5113.93  5140.65

 Zero-point correction=                           0.196337 (Hartree/Particle)
 Thermal correction to Energy=                    0.210935
 Thermal correction to Enthalpy=                  0.211879
 Thermal correction to Gibbs Free Energy=         0.153524
 Sum of electronic and zero-point Energies=           -697.403103
 Sum of electronic and thermal Energies=              -697.388504
 Sum of electronic and thermal Enthalpies=            -697.387560
 Sum of electronic and thermal Free Energies=         -697.445915

                     E (Thermal)             CV                S
                      KCal/Mol        Cal/Mol-Kelvin    Cal/Mol-Kelvin
 Total                  132.364             51.653            122.818
 Electronic               0.000              0.000              0.000
 Translational            0.889              2.981             41.740
 Rotational               0.889              2.981             31.835
 Vibrational            130.586             45.691             49.243
 Vibration     1          0.594              1.982              5.490
 Vibration     2          0.596              1.975              4.613
 Vibration     3          0.597              1.971              4.281
 Vibration     4          0.599              1.965              3.970
 Vibration     5          0.601              1.958              3.710
 Vibration     6          0.613              1.920              2.892
 Vibration     7          0.614              1.917              2.851
 Vibration     8          0.617              1.907              2.726
 Vibration     9          0.618              1.902              2.663
 Vibration    10          0.628              1.870              2.357
 Vibration    11          0.667              1.750              1.677
 Vibration    12          0.674              1.728              1.594
 Vibration    13          0.700              1.653              1.359
 Vibration    14          0.737              1.547              1.106
 Vibration    15          0.764              1.476              0.973
 Vibration    16          0.803              1.376              0.817
 Vibration    17          0.851              1.261              0.670
 Vibration    18          0.859              1.242              0.649
 Vibration    19          0.900              1.151              0.555
 Vibration    20          0.918              1.113              0.519
 Vibration    21          0.936              1.076              0.487
 Vibration    22          0.975              0.999              0.424

                           ! Non-Optimized Parameters !
 Normal termination of Gaussian 16 at Thu Dec 10 09:23:22 2020.

 ----------------------------------------------------------------------
 # B3LYP/6-311++G(d,p) empiricaldispersion=gd3bj scf=xqc pop=npa geom=c
 heck
 ----------------------------------------------------------------------

 ---------------------------------------
 CID_130009132_JID_4123_Energie_neutraal
 ---------------------------------------
 Structure from the checkpoint file:  "JID_4123.chk"
 Charge =  0 Multiplicity = 1

 SCF Done:  E(RB3LYP) =  -697.804521772     A.U. after   15 cycles
 Normal termination of Gaussian 16 at Thu Dec 10 09:25:32 2020.

 ----------------------------------------------------------------------
 # B3LYP/6-311++G(d,p) empiricaldispersion=gd3bj scf=xqc pop=npa geom=c
 heck
 ----------------------------------------------------------------------

 -------------------------------------
 CID_130009132_JID_4123_Energie_kation
 -------------------------------------
 Structure from the checkpoint file:  "JID_4123.chk"
 Charge =  1 Multiplicity = 2

 SCF Done:  E(UB3LYP) =  -697.479640658     A.U. after   25 cycles
 Normal termination of Gaussian 16 at Thu Dec 10 09:30:19 2020.
 Gaussian 16:  ES64L-G16RevA.03 25-Dec-2016

 ----------------------------------------------------------------------
 # B3LYP/6-311++G(d,p) empiricaldispersion=gd3bj scf=xqc pop=npa geom=c
 heck
 ----------------------------------------------------------------------

 ------------------------------------
 CID_130009132_JID_4123_Energie_anion
 ------------------------------------
 Structure from the checkpoint file:  "JID_4123.chk"
 Charge = -1 Multiplicity = 2

                         Standard orientation:
 ---------------------------------------------------------------------
 Center     Atomic      Atomic             Coordinates (Angstroms)
 Number     Number       Type             X           Y           Z
 ---------------------------------------------------------------------
      1          6           0       -2.688753    1.950786   -0.266835
      2          6           0       -1.240746    1.644864   -0.124376
      3          7           0       -0.293464    2.448331    0.267921
      4          7           0        0.923550    1.754914    0.244941
      5          6           0        0.665462    0.540992   -0.169962
      6          7           0       -0.685338    0.403774   -0.427218
      7          7           0       -1.315445   -0.759578   -0.808109
      8          6           0       -2.013300   -1.556514    0.116995
      9          8           0       -2.803363   -2.379515   -0.293735
     10          6           0       -1.651472   -1.339056    1.568828
     11          7           0        1.504712   -0.534269   -0.347087
     12          6           0        2.882959   -0.650416   -0.115560
     13          8           0        3.419469   -1.712109   -0.372787
     14          6           0        3.595811    0.554494    0.440510
     15          1           0       -2.855108    2.980404    0.054684
     16          1           0       -3.310026    1.286562    0.345737
     17          1           0       -3.023514    1.850846   -1.306346
     18          1           0       -1.669161   -0.786614   -1.759879
     19          1           0       -0.572734   -1.446859    1.723251
     20          1           0       -1.928104   -0.332989    1.901080
     21          1           0       -2.185293   -2.078922    2.164967
     22          1           0        1.082341   -1.372329   -0.732841
     23          1           0        3.502142    1.408746   -0.236342
     24          1           0        3.148751    0.872562    1.386863
     25          1           0        4.643971    0.288484    0.580242
 ---------------------------------------------------------------------

 SCF Done:  E(UB3LYP) =  -697.800838045     A.U. after   33 cycles
 SCF Done:  E(UB3LYP) =  -697.800838045     a.u. after    1 cycles

 The electronic state is 2-A.
 Alpha  occ. eigenvalues --  -19.02118 -19.02022 -14.32252 -14.29349 -14.27933
 Alpha  occ. eigenvalues --  -14.23269 -14.23072 -10.20949 -10.20405 -10.19230
 Alpha  occ. eigenvalues --  -10.15185 -10.09184 -10.08966 -10.08600  -1.00516
 Alpha  occ. eigenvalues --   -0.97413  -0.96646  -0.90132  -0.86601  -0.75595
 Alpha  occ. eigenvalues --   -0.73280  -0.66796  -0.66362  -0.63748  -0.57570
 Alpha  occ. eigenvalues --   -0.55190  -0.51047  -0.49488  -0.48619  -0.43196
 Alpha  occ. eigenvalues --   -0.41212  -0.39772  -0.38397  -0.37253  -0.35905
 Alpha  occ. eigenvalues --   -0.35102  -0.34173  -0.33981  -0.32452  -0.32411
 Alpha  occ. eigenvalues --   -0.31932  -0.31398  -0.29440  -0.29262  -0.24024
 Alpha  occ. eigenvalues --   -0.23138  -0.21926  -0.21627  -0.19147  -0.18320
 Alpha  occ. eigenvalues --   -0.16914  -0.14551   0.04010
 Alpha virt. eigenvalues --    0.06730   0.06865   0.07520   0.07954   0.08385
 Alpha virt. eigenvalues --    0.10008   0.10199   0.10552   0.10682   0.11456
 Alpha virt. eigenvalues --    0.11681   0.12019   0.13555   0.13680   0.14162

  Beta  occ. eigenvalues --  -19.02113 -19.02015 -14.32246 -14.29271 -14.27911
  Beta  occ. eigenvalues --  -14.23262 -14.23066 -10.20949 -10.20404 -10.19230
  Beta  occ. eigenvalues --  -10.15184 -10.09174 -10.08896 -10.08525  -1.00486
  Beta  occ. eigenvalues --   -0.97401  -0.96634  -0.90093  -0.86574  -0.75533
  Beta  occ. eigenvalues --   -0.73256  -0.66771  -0.66268  -0.63662  -0.57555
  Beta  occ. eigenvalues --   -0.55140  -0.50949  -0.49375  -0.48584  -0.43167
  Beta  occ. eigenvalues --   -0.41169  -0.39752  -0.38364  -0.37201  -0.35869
  Beta  occ. eigenvalues --   -0.35048  -0.34158  -0.33938  -0.32396  -0.32393
  Beta  occ. eigenvalues --   -0.31867  -0.31325  -0.29416  -0.29216  -0.24003
  Beta  occ. eigenvalues --   -0.23099  -0.21901  -0.21582  -0.19135  -0.18291
  Beta  occ. eigenvalues --   -0.16882  -0.14532
  Beta virt. eigenvalues --    0.06577   0.06879   0.07455   0.08039   0.08677
  Beta virt. eigenvalues --    0.09122   0.10231   0.10622   0.10755   0.11070
  Beta virt. eigenvalues --    0.11913   0.12116   0.12262   0.13728   0.14107

 Mulliken charges and spin densities:
               1          2
     1  C    2.413326  -2.989446
     2  C   -0.864892   0.976404
     3  N    0.060755   0.089718
     4  N   -0.189609  -0.100358
     5  C   -0.079259   0.145768
     6  N    0.518677  -0.460968
     7  N   -0.781566   0.413224
     8  C   -0.363163   0.357108
     9  O   -0.307780   0.039244
    10  C    1.059378  -1.441744
    11  N   -0.358981   0.075630
    12  C   -0.015415   0.180050
    13  O   -0.312181   0.010398
    14  C   -0.097650  -0.355178
    15  H   -0.011654   0.197055
    16  H   -0.323360   0.484962
    17  H   -0.663344   0.860155
    18  H   -0.425551   0.778659
    19  H   -0.158620   0.331446
    20  H   -0.225800   0.409804
    21  H   -0.319859   0.525213
    22  H    0.090645   0.270542
    23  H    0.087307   0.104637
    24  H    0.099392   0.084609
    25  H    0.169206   0.013067
 Sum of Mulliken charges =  -1.00000   1.00000

 Dipole moment (field-independent basis, Debye):
    X=              5.2015    Y=              0.7585    Z=              2.2725  Tot=              5.7267
 Quadrupole moment (field-independent basis, Debye-Ang):
   XX=           -142.2382   YY=           -130.6021   ZZ=           -118.7135
   XY=              2.9665   XZ=             -4.2346   YZ=             -1.3714

 Summary of Natural Population Analysis:

                                       Natural Population
                Natural  -----------------------------------------------
    Atom  No    Charge         Core      Valence    Rydberg      Total
 -----------------------------------------------------------------------
      C    1   -0.31066      0.99962     2.30523    0.00581     3.31066
      C    2    0.19472      0.99959     1.78855    0.01714     2.80528
      N    3   -0.15901      0.99967     2.64660    0.01274     3.65901
      N    4   -0.18822      0.99967     2.67609    0.01246     3.68822
      C    5    0.27733      0.99957     1.70583    0.01727     2.72267
      N    6   -0.14393      0.99956     2.62825    0.01611     3.64393
      N    7   -0.24279      0.99967     2.72793    0.01519     3.74279
      C    8    0.34968      0.99969     1.62941    0.02121     2.65032
      O    9   -0.29429      0.99987     3.28775    0.00667     4.29429
      C   10   -0.33700      0.99962     2.33275    0.00464     3.33700
      N   11   -0.31974      0.99964     2.81138    0.00872     3.81974
      C   12    0.35289      0.99971     1.62673    0.02066     2.64711
      O   13   -0.30639      0.99987     3.30029    0.00622     4.30639
      C   14   -0.33724      0.99962     2.33317    0.00446     3.33724
      H   15    0.11685      0.00000     0.38187    0.00128     0.38315
      H   16    0.11152      0.00000     0.38619    0.00229     0.38848
      H   17    0.11810      0.00000     0.37849    0.00341     0.38190
      H   18    0.21076      0.00000     0.26861    0.02063     0.28924
      H   19    0.11332      0.00000     0.38499    0.00169     0.38668
      H   20    0.11706      0.00000     0.38094    0.00200     0.38294
      H   21    0.11703      0.00000     0.38170    0.00127     0.38297
      H   22    0.21096      0.00000     0.28606    0.00298     0.28904
      H   23    0.12095      0.00000     0.37773    0.00132     0.37905
      H   24    0.12021      0.00000     0.37842    0.00137     0.37979
      H   25    0.10789      0.00000     0.39123    0.00088     0.39211
 =======================================================================
   * Total *   -0.00000     13.99537    37.79618    0.20844    52.00000

 Normal termination of Gaussian 16 at Thu Dec 10 09:36:36 2020.
