 Gaussian 16, Revision A.03,

 -----------------------------------------------------------
 # opt freq B3LYP/6-31G(d) empiricaldispersion=gd3bj scf=xqc
 -----------------------------------------------------------

 -------------------------------
 CID_116246455_JID_3547_neutraal
 -------------------------------
 Symbolic Z-matrix:
 Charge =  0 Multiplicity = 1

 SCF Done:  E(RB3LYP) =  -607.541578147     A.U. after   14 cycles
 SCF Done:  E(RB3LYP) =  -607.547408831     A.U. after   13 cycles
 SCF Done:  E(RB3LYP) =  -607.549386803     A.U. after   12 cycles
 SCF Done:  E(RB3LYP) =  -607.550744783     A.U. after   12 cycles
 SCF Done:  E(RB3LYP) =  -607.551070871     A.U. after   12 cycles
 SCF Done:  E(RB3LYP) =  -607.551145034     A.U. after   11 cycles
 SCF Done:  E(RB3LYP) =  -607.551194711     A.U. after   10 cycles
 SCF Done:  E(RB3LYP) =  -607.551207802     A.U. after    9 cycles
 SCF Done:  E(RB3LYP) =  -607.551218181     A.U. after   10 cycles
 SCF Done:  E(RB3LYP) =  -607.551237815     A.U. after   11 cycles
 SCF Done:  E(RB3LYP) =  -607.551275074     A.U. after    8 cycles
 SCF Done:  E(RB3LYP) =  -607.551275986     A.U. after   10 cycles
 SCF Done:  E(RB3LYP) =  -607.551276887     A.U. after   10 cycles
 SCF Done:  E(RB3LYP) =  -607.551277070     A.U. after    7 cycles
 SCF Done:  E(RB3LYP) =  -607.551277125     A.U. after    8 cycles
 Optimization completed.
    -- Stationary point found.
 Normal termination of Gaussian 16 at Wed Dec  9 23:37:58 2020.

 --------------------------------------------------------------------
 #N Geom=AllCheck Guess=TCheck SCRF=Check GenChk RB3LYP/6-31G(d) Freq
 --------------------------------------------------------------------

 Structure from the checkpoint file:  "JID_3547.chk"
 -------------------------------
 CID_116246455_JID_3547_neutraal
 -------------------------------
 Charge =  0 Multiplicity = 1

 SCF Done:  E(RB3LYP) =  -607.551277125     A.U. after    1 cycles

  Exact polarizability: 166.861  -8.544 109.772   3.273 -11.022  74.721
 Approx polarizability: 229.146 -17.470 178.798   2.570 -26.011 113.801

                      1                      2                      3
                      A                      A                      A
 Frequencies --     20.1893                33.5267                69.5358
 Red. masses --      4.6439                 3.7245                 4.2569
 Frc consts  --      0.0011                 0.0025                 0.0121
 IR Inten    --      0.5336                 0.0507                 2.0415

                      4                      5                      6
                      A                      A                      A
 Frequencies --    113.5802               152.9429               184.8008
 Red. masses --      2.7764                 3.0312                 2.4895
 Frc consts  --      0.0211                 0.0418                 0.0501
 IR Inten    --      0.0639                 4.5713                 0.9481

                      7                      8                      9
                      A                      A                      A
 Frequencies --    201.1563               236.5908               252.9240
 Red. masses --      3.1613                 1.8977                 2.8604
 Frc consts  --      0.0754                 0.0626                 0.1078
 IR Inten    --      3.9169                 2.7312                11.5356

                     10                     11                     12
                      A                      A                      A
 Frequencies --    288.3898               333.5364               389.2902
 Red. masses --      2.3263                 2.4388                 1.1719
 Frc consts  --      0.1140                 0.1599                 0.1046
 IR Inten    --      3.2856                 8.2064                45.8655

                     13                     14                     15
                      A                      A                      A
 Frequencies --    411.7668               446.2278               454.9020
 Red. masses --      2.2421                 1.4319                 3.4371
 Frc consts  --      0.2240                 0.1680                 0.4191
 IR Inten    --      0.0256                52.4141                19.3304

                     16                     17                     18
                      A                      A                      A
 Frequencies --    477.8135               494.0173               519.6495
 Red. masses --      3.6811                 2.6050                 1.9422
 Frc consts  --      0.4952                 0.3746                 0.3090
 IR Inten    --     60.1206                26.2456               179.1040

                     19                     20                     21
                      A                      A                      A
 Frequencies --    546.5322               587.2971               664.7979
 Red. masses --      2.5032                 4.4374                 4.2454
 Frc consts  --      0.4405                 0.9018                 1.1055
 IR Inten    --    173.6128                21.3302                 3.3307

                     22                     23                     24
                      A                      A                      A
 Frequencies --    672.0295               706.0850               764.0519
 Red. masses --      2.0232                 2.3269                 2.2865
 Frc consts  --      0.5384                 0.6835                 0.7865
 IR Inten    --     76.1955                80.5059                 0.4984

                     25                     26                     27
                      A                      A                      A
 Frequencies --    776.7797               815.8055               826.3094
 Red. masses --      2.0984                 2.5491                 1.8377
 Frc consts  --      0.7460                 0.9996                 0.7393
 IR Inten    --     18.1088                 3.5261                34.1090

                     28                     29                     30
                      A                      A                      A
 Frequencies --    848.5083               870.5636               922.5245
 Red. masses --      1.6074                 1.4651                 1.9035
 Frc consts  --      0.6818                 0.6542                 0.9544
 IR Inten    --      5.8455                 0.8069                12.4033

                     31                     32                     33
                      A                      A                      A
 Frequencies --    987.7967              1005.1408              1015.8400
 Red. masses --      2.0603                 2.3371                 5.2963
 Frc consts  --      1.1845                 1.3912                 3.2201
 IR Inten    --     19.8573                 7.1135                10.2209

                     34                     35                     36
                      A                      A                      A
 Frequencies --   1056.6854              1072.5137              1094.2659
 Red. masses --      2.3033                 2.0064                 2.1478
 Frc consts  --      1.5153                 1.3598                 1.5153
 IR Inten    --      2.6832                29.8543                49.0781

                     37                     38                     39
                      A                      A                      A
 Frequencies --   1136.0394              1153.5623              1187.3449
 Red. masses --      1.8019                 1.8289                 2.7638
 Frc consts  --      1.3701                 1.4339                 2.2956
 IR Inten    --     24.0560                69.1407                34.3142

                     40                     41                     42
                      A                      A                      A
 Frequencies --   1219.0109              1264.6182              1280.6699
 Red. masses --      1.7665                 1.3571                 2.8456
 Frc consts  --      1.5466                 1.2788                 2.7498
 IR Inten    --     14.1887               102.1486                41.2533

                     43                     44                     45
                      A                      A                      A
 Frequencies --   1291.4487              1308.7984              1339.8791
 Red. masses --      1.5162                 1.4296                 1.4689
 Frc consts  --      1.4899                 1.4428                 1.5537
 IR Inten    --     26.2196                 1.6892               134.6072

                     46                     47                     48
                      A                      A                      A
 Frequencies --   1364.6681              1383.2480              1412.8089
 Red. masses --      1.3480                 1.7460                 1.7163
 Frc consts  --      1.4790                 1.9683                 2.0184
 IR Inten    --      5.1078                27.2699                22.3026

                     49                     50                     51
                      A                      A                      A
 Frequencies --   1422.3505              1444.1420              1445.1014
 Red. masses --      1.6379                 1.2524                 1.3056
 Frc consts  --      1.9523                 1.5389                 1.6064
 IR Inten    --      6.1469                17.9989                93.0978

                     52                     53                     54
                      A                      A                      A
 Frequencies --   1462.9438              1497.5679              1521.7998
 Red. masses --      1.8251                 2.8356                 1.1027
 Frc consts  --      2.3014                 3.7469                 1.5047
 IR Inten    --     20.6106               255.4389                 4.0705

                     55                     56                     57
                      A                      A                      A
 Frequencies --   1526.6986              1535.6833              1541.3954
 Red. masses --      1.0651                 1.0625                 1.1059
 Frc consts  --      1.4627                 1.4763                 1.5480
 IR Inten    --     11.8411                27.8513                 6.6292

                     58                     59                     60
                      A                      A                      A
 Frequencies --   1573.9831              1613.4757              1632.4917
 Red. masses --      2.0760                 6.4241                 3.8511
 Frc consts  --      3.0303                 9.8534                 6.0469
 IR Inten    --     89.7876               318.5195                51.1654

                     61                     62                     63
                      A                      A                      A
 Frequencies --   1674.6017              3017.4856              3032.4269
 Red. masses --      1.3867                 1.0717                 1.0703
 Frc consts  --      2.2912                 5.7495                 5.7987
 IR Inten    --    182.7043                46.3988                15.1708

                     64                     65                     66
                      A                      A                      A
 Frequencies --   3046.8981              3060.8658              3086.7287
 Red. masses --      1.0381                 1.0826                 1.0954
 Frc consts  --      5.6781                 5.9762                 6.1491
 IR Inten    --     21.4416                63.4100                 9.8343

                     67                     68                     69
                      A                      A                      A
 Frequencies --   3112.1137              3120.2511              3133.4635
 Red. masses --      1.1019                 1.1009                 1.0913
 Frc consts  --      6.2877                 6.3150                 6.3133
 IR Inten    --     62.0197                43.1116                11.5189

                     70                     71                     72
                      A                      A                      A
 Frequencies --   3173.0577              3211.6864              3562.1047
 Red. masses --      1.0904                 1.0904                 1.0741
 Frc consts  --      6.4686                 6.6266                 8.0300
 IR Inten    --     29.3469                19.2250                12.6505

                     73                     74                     75
                      A                      A                      A
 Frequencies --   3572.1317              3678.5505              3684.0234
 Red. masses --      1.0467                 1.0652                 1.1006
 Frc consts  --      7.8693                 8.4922                 8.8006
 IR Inten    --     34.1928                48.0270                22.2979

 - Thermochemistry -
 -------------------
 Temperature   298.150 Kelvin.  Pressure   1.00000 Atm.
 Atom     1 has atomic number  6 and mass  12.00000

 Molecular mass:   182.11676 amu.
 Principal axes and moments of inertia in atomic units:
                           1         2         3
     Eigenvalues --  1092.734945038.868625511.36613
           X            0.99994   0.00519   0.00986
           Y           -0.00521   0.99998   0.00207
           Z           -0.00985  -0.00212   0.99995
 This molecule is an asymmetric top.
 Rotational symmetry number  1.
 Warning -- assumption of classical behavior for rotation
           may cause significant error
 Rotational temperatures (Kelvin)      0.07926     0.01719     0.01572
 Rotational constants (GHZ):           1.65158     0.35816     0.32746
 Zero-point vibrational energy     604356.3 (Joules/Mol)
                                  144.44463 (Kcal/Mol)
 Warning -- explicit consideration of  20 degrees of freedom as
           vibrations may cause significant error
 Vibrational temperatures:     29.05    48.24   100.05   163.42   220.05
          (Kelvin)            265.89   289.42   340.40   363.90   414.93
                              479.88   560.10   592.44   642.02   654.50
                              687.47   710.78   747.66   786.34   844.99
                              956.50   966.90  1015.90  1099.30  1117.61
                             1173.76  1188.87  1220.81  1252.55  1327.31
                             1421.22  1446.17  1461.57  1520.33  1543.11
                             1574.40  1634.51  1659.72  1708.32  1753.88
                             1819.50  1842.60  1858.11  1883.07  1927.79
                             1963.45  1990.19  2032.72  2046.45  2077.80
                             2079.18  2104.85  2154.67  2189.53  2196.58
                             2209.51  2217.72  2264.61  2321.43  2348.79
                             2409.38  4341.49  4362.99  4383.81  4403.90
                             4441.11  4477.64  4489.35  4508.36  4565.32
                             4620.90  5125.07  5139.50  5292.61  5300.49

 Zero-point correction=                           0.230187 (Hartree/Particle)
 Thermal correction to Energy=                    0.243324
 Thermal correction to Enthalpy=                  0.244269
 Thermal correction to Gibbs Free Energy=         0.189141
 Sum of electronic and zero-point Energies=           -607.321090
 Sum of electronic and thermal Energies=              -607.307953
 Sum of electronic and thermal Enthalpies=            -607.307008
 Sum of electronic and thermal Free Energies=         -607.362136

                     E (Thermal)             CV                S
                      KCal/Mol        Cal/Mol-Kelvin    Cal/Mol-Kelvin
 Total                  152.688             49.646            116.026
 Electronic               0.000              0.000              0.000
 Translational            0.889              2.981             41.505
 Rotational               0.889              2.981             31.784
 Vibrational            150.911             43.684             42.737
 Vibration     1          0.593              1.986              6.615
 Vibration     2          0.594              1.983              5.609
 Vibration     3          0.598              1.969              4.166
 Vibration     4          0.607              1.938              3.207
 Vibration     5          0.619              1.899              2.635
 Vibration     6          0.631              1.861              2.279
 Vibration     7          0.638              1.838              2.122
 Vibration     8          0.655              1.785              1.828
 Vibration     9          0.664              1.758              1.710
 Vibration    10          0.685              1.695              1.483
 Vibration    11          0.715              1.609              1.243
 Vibration    12          0.757              1.493              1.003
 Vibration    13          0.776              1.445              0.920
 Vibration    14          0.805              1.369              0.807
 Vibration    15          0.813              1.350              0.781
 Vibration    16          0.834              1.299              0.716
 Vibration    17          0.850              1.263              0.673
 Vibration    18          0.875              1.206              0.611
 Vibration    19          0.902              1.147              0.551
 Vibration    20          0.944              1.059              0.472

 Optimization completed.
    -- Stationary point found.
 Normal termination of Gaussian 16 at Wed Dec  9 23:43:46 2020.

 ----------------------------------------------------------------------
 # B3LYP/6-311++G(d,p) empiricaldispersion=gd3bj scf=xqc pop=npa geom=c
 heck
 ----------------------------------------------------------------------

 ---------------------------------------
 CID_116246455_JID_3547_Energie_neutraal
 ---------------------------------------
 Structure from the checkpoint file:  "JID_3547.chk"
 Charge =  0 Multiplicity = 1

 SCF Done:  E(RB3LYP) =  -607.739490796     A.U. after   14 cycles
 Normal termination of Gaussian 16 at Wed Dec  9 23:45:56 2020.

 ----------------------------------------------------------------------
 # B3LYP/6-311++G(d,p) empiricaldispersion=gd3bj scf=xqc pop=npa geom=c
 heck
 ----------------------------------------------------------------------

 -------------------------------------
 CID_116246455_JID_3547_Energie_kation
 -------------------------------------
 Structure from the checkpoint file:  "JID_3547.chk"
 Charge =  1 Multiplicity = 2

 SCF Done:  E(UB3LYP) =  -607.452887330     A.U. after   22 cycles
 Normal termination of Gaussian 16 at Wed Dec  9 23:50:18 2020.
 Gaussian 16:  ES64L-G16RevA.03 25-Dec-2016

 ----------------------------------------------------------------------
 # B3LYP/6-311++G(d,p) empiricaldispersion=gd3bj scf=xqc pop=npa geom=c
 heck
 ----------------------------------------------------------------------

 ------------------------------------
 CID_116246455_JID_3547_Energie_anion
 ------------------------------------
 Structure from the checkpoint file:  "JID_3547.chk"
 Charge = -1 Multiplicity = 2

                         Standard orientation:
 ---------------------------------------------------------------------
 Center     Atomic      Atomic             Coordinates (Angstroms)
 Number     Number       Type             X           Y           Z
 ---------------------------------------------------------------------
      1          6           0        3.696989    1.450952    1.128889
      2          6           0        3.429362    0.828496   -0.244383
      3          6           0        2.873179   -0.603375   -0.195121
      4          6           0        1.540779   -0.738695    0.554159
      5          7           0        0.509218    0.019794   -0.144804
      6          6           0       -0.846638   -0.197413    0.039016
      7          7           0       -1.632516    0.846494   -0.271680
      8          6           0       -2.953826    0.671592   -0.173883
      9          6           0       -3.500515   -0.553368    0.264798
     10          7           0       -2.715031   -1.572452    0.593997
     11          6           0       -1.393250   -1.414842    0.486705
     12          7           0       -3.755967    1.726707   -0.555831
     13          8           0        2.735842   -1.135004   -1.506473
     14          1           0        2.771909    1.610642    1.694935
     15          1           0        4.191660    2.422612    1.028559
     16          1           0        4.347834    0.808434    1.734332
     17          1           0        2.745006    1.465408   -0.823075
     18          1           0        4.355851    0.787837   -0.827866
     19          1           0        3.605249   -1.240964    0.316198
     20          1           0        1.265377   -1.794823    0.536926
     21          1           0        1.640344   -0.435197    1.607188
     22          1           0        0.697472    1.012243   -0.238960
     23          1           0       -4.576347   -0.693293    0.347511
     24          1           0       -0.773142   -2.261515    0.760161
     25          1           0       -3.279668    2.617852   -0.606477
     26          1           0       -4.681847    1.767161   -0.152995
     27          1           0        1.887153   -0.790264   -1.837519
 ---------------------------------------------------------------------

 SCF Done:  E(UB3LYP) =  -607.730832598     A.U. after   33 cycles
 SCF Done:  E(UB3LYP) =  -607.730832606     a.u. after    2 cycles

 The electronic state is 2-A.
 Alpha  occ. eigenvalues --  -19.02900 -14.22933 -14.21446 -14.19749 -14.19082
 Alpha  occ. eigenvalues --  -10.13645 -10.13340 -10.13317 -10.11340 -10.08011
 Alpha  occ. eigenvalues --  -10.07928 -10.07816 -10.07013  -0.93612  -0.88263
 Alpha  occ. eigenvalues --   -0.83392  -0.80919  -0.76261  -0.69650  -0.64448
 Alpha  occ. eigenvalues --   -0.61835  -0.56457  -0.54478  -0.52548  -0.49095
 Alpha  occ. eigenvalues --   -0.45344  -0.42370  -0.40817  -0.39070  -0.38883
 Alpha  occ. eigenvalues --   -0.37629  -0.36854  -0.35292  -0.34915  -0.32332
 Alpha  occ. eigenvalues --   -0.31982  -0.30450  -0.28976  -0.28858  -0.26155
 Alpha  occ. eigenvalues --   -0.25816  -0.24676  -0.23358  -0.22577  -0.19071
 Alpha  occ. eigenvalues --   -0.18581  -0.15024  -0.13984  -0.10328   0.04265
 Alpha virt. eigenvalues --    0.05723   0.06352   0.07616   0.08466   0.08877
 Alpha virt. eigenvalues --    0.09070   0.10285   0.10541   0.11219   0.11394
 Alpha virt. eigenvalues --    0.11715   0.12286   0.13006   0.14309   0.14781

  Beta  occ. eigenvalues --  -19.02898 -14.22921 -14.21387 -14.19509 -14.18936
  Beta  occ. eigenvalues --  -10.13623 -10.13335 -10.13257 -10.11335 -10.08004
  Beta  occ. eigenvalues --  -10.07907 -10.07804 -10.06968  -0.93606  -0.88093
  Beta  occ. eigenvalues --   -0.83317  -0.80659  -0.76060  -0.69614  -0.64352
  Beta  occ. eigenvalues --   -0.61751  -0.56397  -0.54212  -0.52453  -0.49034
  Beta  occ. eigenvalues --   -0.45270  -0.42271  -0.40773  -0.39004  -0.38823
  Beta  occ. eigenvalues --   -0.37572  -0.36779  -0.35248  -0.34830  -0.31982
  Beta  occ. eigenvalues --   -0.31867  -0.30380  -0.28930  -0.28796  -0.26117
  Beta  occ. eigenvalues --   -0.25778  -0.24553  -0.22961  -0.22086  -0.18782
  Beta  occ. eigenvalues --   -0.18557  -0.14626  -0.13748  -0.10044
  Beta virt. eigenvalues --    0.06514   0.07347   0.07752   0.07990   0.08603
  Beta virt. eigenvalues --    0.09207   0.09580   0.10566   0.10836   0.11381
  Beta virt. eigenvalues --    0.11562   0.12173   0.12568   0.13269   0.14439

 Mulliken charges and spin densities:
               1          2
     1  C    1.341701  -1.967309
     2  C   -1.139517   1.138459
     3  C    0.287516  -0.675684
     4  C   -0.002202  -0.370569
     5  N   -0.041427  -0.025159
     6  C   -0.001885  -0.362723
     7  N   -0.216452   0.012240
     8  C    0.235674  -0.186655
     9  C    0.005853  -0.137958
    10  N   -0.073431   0.107637
    11  C   -0.287805   0.186714
    12  N   -0.383859   0.108888
    13  O   -0.205333   0.006040
    14  H   -0.341298   0.495395
    15  H   -0.470161   0.618165
    16  H   -0.228937   0.367314
    17  H    0.008513   0.121540
    18  H   -0.125960   0.307885
    19  H    0.019573   0.181181
    20  H    0.204041  -0.031307
    21  H    0.152520   0.017596
    22  H    0.430157  -0.177988
    23  H   -0.092783   0.247854
    24  H    0.100343   0.070297
    25  H   -0.119043   0.370608
    26  H   -0.331725   0.581520
    27  H    0.275929  -0.003982
 Sum of Mulliken charges =  -1.00000   1.00000

 Dipole moment (field-independent basis, Debye):
    X=              1.9156    Y=             -3.4177    Z=             -0.6782  Tot=              3.9762
 Quadrupole moment (field-independent basis, Debye-Ang):
   XX=           -174.9731   YY=           -119.9196   ZZ=           -103.2694
   XY=             -1.5332   XZ=             -4.6009   YZ=             -4.4409

 Summary of Natural Population Analysis:

                                       Natural Population
                Natural  -----------------------------------------------
    Atom  No    Charge         Core      Valence    Rydberg      Total
 -----------------------------------------------------------------------
      C    1   -0.29017      0.99967     2.28483    0.00568     3.29017
      C    2   -0.20445      0.99962     2.19470    0.01014     3.20445
      C    3    0.06094      0.99956     1.92370    0.01580     2.93906
      C    4   -0.09711      0.99960     2.08826    0.00926     3.09711
      N    5   -0.33007      0.99967     2.81920    0.01120     3.83007
      C    6    0.19478      0.99954     1.79055    0.01513     2.80522
      N    7   -0.25505      0.99964     2.74455    0.01086     3.75505
      C    8    0.19466      0.99956     1.79058    0.01521     2.80534
      C    9   -0.03870      0.99956     2.02381    0.01533     3.03870
      N   10   -0.17596      0.99971     2.66486    0.01138     3.67596
      C   11   -0.04443      0.99955     2.03226    0.01261     3.04443
      N   12   -0.39332      0.99971     2.88317    0.01044     3.89332
      O   13   -0.37484      0.99990     3.36844    0.00651     4.37484
      H   14    0.09774      0.00000     0.40088    0.00138     0.40226
      H   15    0.10386      0.00000     0.39458    0.00156     0.39614
      H   16    0.09734      0.00000     0.40113    0.00153     0.40266
      H   17    0.09275      0.00000     0.40584    0.00141     0.40725
      H   18    0.10238      0.00000     0.39644    0.00118     0.39762
      H   19    0.08639      0.00000     0.41250    0.00110     0.41361
      H   20    0.10087      0.00000     0.39765    0.00148     0.39913
      H   21    0.09168      0.00000     0.40710    0.00121     0.40832
      H   22    0.19105      0.00000     0.30517    0.00378     0.30895
      H   23    0.08755      0.00000     0.41085    0.00160     0.41245
      H   24    0.08809      0.00000     0.41030    0.00161     0.41191
      H   25    0.19192      0.00000     0.30419    0.00389     0.30808
      H   26    0.18974      0.00000     0.30510    0.00516     0.31026
      H   27    0.23237      0.00000     0.26472    0.00291     0.26763
 =======================================================================
   * Total *    0.00000     12.99528    35.82537    0.17935    49.00000

 Normal termination of Gaussian 16 at Thu Dec 10 00:02:37 2020.
