 Gaussian 16, Revision A.03,

 -----------------------------------------------------------
 # opt freq B3LYP/6-31G(d) empiricaldispersion=gd3bj scf=xqc
 -----------------------------------------------------------

 ------------------------------
 CID_64128869_JID_6531_neutraal
 ------------------------------
 Symbolic Z-matrix:
 Charge =  0 Multiplicity = 1

 SCF Done:  E(RB3LYP) =  -652.718773437     A.U. after   14 cycles
 SCF Done:  E(RB3LYP) =  -652.722854358     A.U. after   12 cycles
 SCF Done:  E(RB3LYP) =  -652.723844210     A.U. after   12 cycles
 SCF Done:  E(RB3LYP) =  -652.724261439     A.U. after   12 cycles
 SCF Done:  E(RB3LYP) =  -652.724331363     A.U. after   11 cycles
 SCF Done:  E(RB3LYP) =  -652.724400611     A.U. after   12 cycles
 SCF Done:  E(RB3LYP) =  -652.724407722     A.U. after   10 cycles
 SCF Done:  E(RB3LYP) =  -652.724410200     A.U. after    9 cycles
 SCF Done:  E(RB3LYP) =  -652.724410773     A.U. after    8 cycles
 SCF Done:  E(RB3LYP) =  -652.724411326     A.U. after    8 cycles
 SCF Done:  E(RB3LYP) =  -652.724413125     A.U. after    7 cycles
 SCF Done:  E(RB3LYP) =  -652.724413225     A.U. after    7 cycles
 SCF Done:  E(RB3LYP) =  -652.724413300     A.U. after    7 cycles
 SCF Done:  E(RB3LYP) =  -652.724413341     A.U. after    6 cycles
 SCF Done:  E(RB3LYP) =  -652.724413365     A.U. after    7 cycles
 Optimization completed.
    -- Stationary point found.
 Normal termination of Gaussian 16 at Thu Dec 10 23:35:37 2020.

 --------------------------------------------------------------------
 #N Geom=AllCheck Guess=TCheck SCRF=Check GenChk RB3LYP/6-31G(d) Freq
 --------------------------------------------------------------------

 Structure from the checkpoint file:  "JID_6531.chk"
 ------------------------------
 CID_64128869_JID_6531_neutraal
 ------------------------------
 Charge =  0 Multiplicity = 1

 SCF Done:  E(RB3LYP) =  -652.724413364     A.U. after    1 cycles

  Exact polarizability: 217.300   4.733 132.040   4.731  -2.749 118.470
 Approx polarizability: 308.446   7.590 217.139   6.671  -4.383 197.218

                      1                      2                      3
                      A                      A                      A
 Frequencies --     26.7205                31.3632                56.8733
 Red. masses --      1.2019                 2.4518                 3.9174
 Frc consts  --      0.0005                 0.0014                 0.0075
 IR Inten    --      0.3723                 0.0256                 0.0514

                      4                      5                      6
                      A                      A                      A
 Frequencies --     72.3666                94.7964               133.8960
 Red. masses --      3.9076                 1.0550                 1.0547
 Frc consts  --      0.0121                 0.0056                 0.0111
 IR Inten    --      0.2890                 0.1505                 0.2907

                      7                      8                      9
                      A                      A                      A
 Frequencies --    143.3191               165.8161               209.6053
 Red. masses --      3.4997                 3.5846                 2.7514
 Frc consts  --      0.0424                 0.0581                 0.0712
 IR Inten    --      0.8973                 0.3141                 1.9179

                     10                     11                     12
                      A                      A                      A
 Frequencies --    223.3719               225.0044               290.5181
 Red. masses --      4.1015                 3.9998                 2.6098
 Frc consts  --      0.1206                 0.1193                 0.1298
 IR Inten    --      0.3106                 1.3584                 0.9275

                     13                     14                     15
                      A                      A                      A
 Frequencies --    339.9341               347.6872               367.5328
 Red. masses --      3.0640                 3.3676                 3.4078
 Frc consts  --      0.2086                 0.2399                 0.2712
 IR Inten    --      8.6309                 5.8766                11.4407

                     16                     17                     18
                      A                      A                      A
 Frequencies --    423.9610               450.8018               457.2491
 Red. masses --      1.3341                 2.5017                 2.5056
 Frc consts  --      0.1413                 0.2995                 0.3086
 IR Inten    --     63.0056                27.4147                35.0459

                     19                     20                     21
                      A                      A                      A
 Frequencies --    482.8185               506.2796               528.7566
 Red. masses --      1.4039                 2.5950                 5.4976
 Frc consts  --      0.1928                 0.3919                 0.9056
 IR Inten    --    152.1475                 9.8865                 3.1604

                     22                     23                     24
                      A                      A                      A
 Frequencies --    538.8152               568.0691               591.3908
 Red. masses --      4.8936                 4.9111                 3.2499
 Frc consts  --      0.8371                 0.9337                 0.6697
 IR Inten    --      0.8366                 7.8780                 2.6036

                     25                     26                     27
                      A                      A                      A
 Frequencies --    599.2537               609.1199               654.8813
 Red. masses --      3.9525                 4.9621                 4.4304
 Frc consts  --      0.8363                 1.0847                 1.1195
 IR Inten    --      0.8609                21.5162                 0.8476

                     28                     29                     30
                      A                      A                      A
 Frequencies --    743.2301               751.0745               794.2364
 Red. masses --      5.5687                 3.8674                 7.6030
 Frc consts  --      1.8124                 1.2854                 2.8257
 IR Inten    --      1.5208                 0.6675                13.6236

                     31                     32                     33
                      A                      A                      A
 Frequencies --    814.5450               819.3759               841.4197
 Red. masses --      4.5920                 1.2789                 1.3709
 Frc consts  --      1.7951                 0.5059                 0.5718
 IR Inten    --      5.2713                 9.2668                16.2775

                     34                     35                     36
                      A                      A                      A
 Frequencies --    898.2047               946.6530               961.9050
 Red. masses --      1.2814                 3.3024                 1.3240
 Frc consts  --      0.6091                 1.7437                 0.7218
 IR Inten    --      1.5834                 0.8183                 0.3787

                     37                     38                     39
                      A                      A                      A
 Frequencies --    967.1888               985.9756              1017.0535
 Red. masses --      1.3584                 2.2520                 1.4968
 Frc consts  --      0.7487                 1.2899                 0.9122
 IR Inten    --      0.3737                 7.3690                 4.5890

                     40                     41                     42
                      A                      A                      A
 Frequencies --   1022.0853              1047.3673              1050.8087
 Red. masses --      4.9677                 1.5601                 1.8865
 Frc consts  --      3.0576                 1.0083                 1.2273
 IR Inten    --     10.9835                 9.3529                 3.6895

                     43                     44                     45
                      A                      A                      A
 Frequencies --   1072.6382              1075.3754              1076.8838
 Red. masses --      1.5308                 1.5221                 1.5094
 Frc consts  --      1.0377                 1.0371                 1.0313
 IR Inten    --      3.3380                12.1288                 2.1636

                     46                     47                     48
                      A                      A                      A
 Frequencies --   1106.3233              1161.7974              1171.4629
 Red. masses --      1.9394                 1.6413                 1.4746
 Frc consts  --      1.3986                 1.3052                 1.1923
 IR Inten    --      1.5222                 1.3929                 0.8212

                     49                     50                     51
                      A                      A                      A
 Frequencies --   1193.7915              1267.1259              1296.0137
 Red. masses --      1.6352                 2.3947                 2.5138
 Frc consts  --      1.3730                 2.2653                 2.4877
 IR Inten    --      1.0784                 0.8867                 9.5421

                     52                     53                     54
                      A                      A                      A
 Frequencies --   1303.4085              1319.9216              1336.3547
 Red. masses --      3.1185                 1.6441                 5.9478
 Frc consts  --      3.1214                 1.6876                 6.2582
 IR Inten    --      6.1089                 1.6850                 2.6269

                     55                     56                     57
                      A                      A                      A
 Frequencies --   1339.0853              1369.3813              1441.3941
 Red. masses --      4.6258                 2.3411                 1.2498
 Frc consts  --      4.8872                 2.5866                 1.5299
 IR Inten    --      1.6312                 2.2487                 3.3136

                     58                     59                     60
                      A                      A                      A
 Frequencies --   1442.7768              1447.4388              1452.3057
 Red. masses --      1.2556                 1.2446                 2.7017
 Frc consts  --      1.5400                 1.5363                 3.3574
 IR Inten    --      0.7988                 1.7833                 4.1668

                     61                     62                     63
                      A                      A                      A
 Frequencies --   1476.9182              1510.1114              1513.0786
 Red. masses --      3.1345                 1.0520                 1.2931
 Frc consts  --      4.0283                 1.4135                 1.7442
 IR Inten    --    111.9272                10.0805                31.9178

                     64                     65                     66
                      A                      A                      A
 Frequencies --   1514.0535              1518.2247              1518.3520
 Red. masses --      1.1947                 1.1043                 1.0510
 Frc consts  --      1.6136                 1.4997                 1.4276
 IR Inten    --      4.9338                15.5916                 4.5678

                     67                     68                     69
                      A                      A                      A
 Frequencies --   1522.9184              1526.8736              1555.0381
 Red. masses --      1.2482                 1.6175                 2.6155
 Frc consts  --      1.7057                 2.2218                 3.7263
 IR Inten    --     11.0677                11.1063                12.5712

                     70                     71                     72
                      A                      A                      A
 Frequencies --   1621.4018              1628.5308              1638.0908
 Red. masses --      5.6306                 3.5969                 5.3632
 Frc consts  --      8.7214                 5.6204                 8.4791
 IR Inten    --      0.3703                30.4836                62.5574

                     73                     74                     75
                      A                      A                      A
 Frequencies --   1662.4935              1673.7850              3041.8325
 Red. masses --      1.5449                 5.8795                 1.0407
 Frc consts  --      2.5157                 9.7049                 5.6732
 IR Inten    --    241.5686                 5.2942                37.6824

                     76                     77                     78
                      A                      A                      A
 Frequencies --   3048.9261              3053.5975              3099.2452
 Red. masses --      1.0369                 1.0366                 1.0954
 Frc consts  --      5.6790                 5.6951                 6.1990
 IR Inten    --     21.0687                17.6054                20.2727

                     79                     80                     81
                      A                      A                      A
 Frequencies --   3101.5512              3107.8636              3126.2703
 Red. masses --      1.1000                 1.1000                 1.1028
 Frc consts  --      6.2346                 6.2598                 6.3504
 IR Inten    --     12.7530                11.0015                15.5695

                     82                     83                     84
                      A                      A                      A
 Frequencies --   3129.7152              3135.4098              3164.1170
 Red. masses --      1.1021                 1.1025                 1.0888
 Frc consts  --      6.3606                 6.3858                 6.4225
 IR Inten    --     23.1997                27.1976                36.6252

                     85                     86                     87
                      A                      A                      A
 Frequencies --   3168.7004              3178.5836              3198.6824
 Red. masses --      1.0897                 1.0874                 1.0943
 Frc consts  --      6.4464                 6.4733                 6.5967
 IR Inten    --     25.5952                14.1861                15.4441

                     88                     89                     90
                      A                      A                      A
 Frequencies --   3204.4409              3580.4156              3697.4120
 Red. masses --      1.0935                 1.0457                 1.1018
 Frc consts  --      6.6159                 7.8984                 8.8744
 IR Inten    --     27.7016                28.0015                31.8426

 - Thermochemistry -
 -------------------
 Temperature   298.150 Kelvin.  Pressure   1.00000 Atm.
 Atom     1 has atomic number  6 and mass  12.00000

 Molecular mass:   212.13135 amu.
 Principal axes and moments of inertia in atomic units:
                           1         2         3
     Eigenvalues --  1657.678135242.254155615.30212
           X            0.99995   0.00939   0.00324
           Y           -0.00929   0.99951  -0.02999
           Z           -0.00352   0.02995   0.99955
 This molecule is an asymmetric top.
 Rotational symmetry number  1.
 Warning -- assumption of classical behavior for rotation
           may cause significant error
 Rotational temperatures (Kelvin)      0.05225     0.01652     0.01542
 Rotational constants (GHZ):           1.08872     0.34427     0.32140
 Zero-point vibrational energy     709334.3 (Joules/Mol)
                                  169.53497 (Kcal/Mol)
 Warning -- explicit consideration of  26 degrees of freedom as
           vibrations may cause significant error
 Vibrational temperatures:     38.44    45.12    81.83   104.12   136.39
          (Kelvin)            192.65   206.20   238.57   301.58   321.38
                              323.73   417.99   489.09   500.24   528.80
                              609.99   648.60   657.88   694.67   728.42
                              760.76   775.23   817.32   850.88   862.19
                              876.39   942.23  1069.34  1080.63  1142.73
                             1171.95  1178.90  1210.62  1292.32  1362.02
                             1383.97  1391.57  1418.60  1463.31  1470.55
                             1506.93  1511.88  1543.29  1547.23  1549.40
                             1591.75  1671.57  1685.47  1717.60  1823.11
                             1864.67  1875.31  1899.07  1922.72  1926.65
                             1970.23  2073.84  2075.83  2082.54  2089.54
                             2124.96  2172.71  2176.98  2178.39  2184.39
                             2184.57  2191.14  2196.83  2237.35  2332.84
                             2343.09  2356.85  2391.96  2408.20  4376.52
                             4386.72  4393.45  4459.12  4462.44  4471.52
                             4498.01  4502.96  4511.16  4552.46  4559.05
                             4573.27  4602.19  4610.48  5151.42  5319.75

 Zero-point correction=                           0.270171 (Hartree/Particle)
 Thermal correction to Energy=                    0.285772
 Thermal correction to Enthalpy=                  0.286716
 Thermal correction to Gibbs Free Energy=         0.226216
 Sum of electronic and zero-point Energies=           -652.454242
 Sum of electronic and thermal Energies=              -652.438642
 Sum of electronic and thermal Enthalpies=            -652.437697
 Sum of electronic and thermal Free Energies=         -652.498197

                     E (Thermal)             CV                S
                      KCal/Mol        Cal/Mol-Kelvin    Cal/Mol-Kelvin
 Total                  179.324             59.048            127.332
 Electronic               0.000              0.000              0.000
 Translational            0.889              2.981             41.960
 Rotational               0.889              2.981             32.256
 Vibrational            177.547             53.086             53.116
 Vibration     1          0.593              1.984              6.059
 Vibration     2          0.594              1.983              5.741
 Vibration     3          0.596              1.975              4.563
 Vibration     4          0.598              1.967              4.088
 Vibration     5          0.603              1.953              3.559
 Vibration     6          0.613              1.919              2.889
 Vibration     7          0.616              1.910              2.759
 Vibration     8          0.624              1.884              2.482
 Vibration     9          0.642              1.826              2.047
 Vibration    10          0.649              1.805              1.932
 Vibration    11          0.650              1.803              1.918
 Vibration    12          0.686              1.691              1.471
 Vibration    13          0.720              1.596              1.212
 Vibration    14          0.725              1.580              1.177
 Vibration    15          0.740              1.539              1.090
 Vibration    16          0.786              1.418              0.879
 Vibration    17          0.810              1.359              0.793
 Vibration    18          0.815              1.345              0.774
 Vibration    19          0.839              1.288              0.703
 Vibration    20          0.862              1.236              0.643
 Vibration    21          0.884              1.186              0.590
 Vibration    22          0.894              1.164              0.568
 Vibration    23          0.924              1.100              0.508
 Vibration    24          0.949              1.050              0.465
 Vibration    25          0.957              1.033              0.451
 Vibration    26          0.968              1.013              0.434

 Optimization completed.
    -- Stationary point found.
 Normal termination of Gaussian 16 at Thu Dec 10 23:46:31 2020.

 ----------------------------------------------------------------------
 # B3LYP/6-311++G(d,p) empiricaldispersion=gd3bj scf=xqc pop=npa geom=c
 heck
 ----------------------------------------------------------------------

 --------------------------------------
 CID_64128869_JID_6531_Energie_neutraal
 --------------------------------------
 Structure from the checkpoint file:  "JID_6531.chk"
 Charge =  0 Multiplicity = 1

 SCF Done:  E(RB3LYP) =  -652.898000623     A.U. after   15 cycles
 Normal termination of Gaussian 16 at Thu Dec 10 23:50:46 2020.

 ----------------------------------------------------------------------
 # B3LYP/6-311++G(d,p) empiricaldispersion=gd3bj scf=xqc pop=npa geom=c
 heck
 ----------------------------------------------------------------------

 ------------------------------------
 CID_64128869_JID_6531_Energie_kation
 ------------------------------------
 Structure from the checkpoint file:  "JID_6531.chk"
 Charge =  1 Multiplicity = 2

 SCF Done:  E(UB3LYP) =  -652.616480228     A.U. after   25 cycles
 Normal termination of Gaussian 16 at Fri Dec 11 00:00:12 2020.
 Gaussian 16:  ES64L-G16RevA.03 25-Dec-2016

 ----------------------------------------------------------------------
 # B3LYP/6-311++G(d,p) empiricaldispersion=gd3bj scf=xqc pop=npa geom=c
 heck
 ----------------------------------------------------------------------

 -----------------------------------
 CID_64128869_JID_6531_Energie_anion
 -----------------------------------
 Structure from the checkpoint file:  "JID_6531.chk"
 Charge = -1 Multiplicity = 2

                         Standard orientation:
 ---------------------------------------------------------------------
 Center     Atomic      Atomic             Coordinates (Angstroms)
 Number     Number       Type             X           Y           Z
 ---------------------------------------------------------------------
      1          6           0       -4.753773    0.023186   -0.235988
      2          6           0       -3.244820    0.054632   -0.220683
      3          6           0       -2.533270   -0.244169    0.946415
      4          6           0       -1.135846   -0.250307    0.987707
      5          6           0       -0.418246    0.056775   -0.187019
      6          6           0       -1.125455    0.353488   -1.357581
      7          6           0       -2.518304    0.357573   -1.376562
      8          6           0        1.072419    0.061126   -0.185852
      9          6           0        1.808184    1.232055    0.021181
     10          6           0        3.207389    1.146846    0.028980
     11          6           0        3.802308   -0.095435   -0.155145
     12          7           0        3.123355   -1.230293   -0.349707
     13          6           0        1.784511   -1.148875   -0.372983
     14          7           0        1.111195   -2.326362   -0.632224
     15          6           0        1.108176    2.549736    0.238851
     16          6           0       -0.405744   -0.570929    2.270048
     17          1           0       -5.127244   -0.967100   -0.528628
     18          1           0       -5.169040    0.248486    0.751745
     19          1           0       -5.161348    0.746978   -0.949520
     20          1           0       -3.084862   -0.474909    1.855793
     21          1           0       -0.567813    0.583581   -2.261315
     22          1           0       -3.045412    0.596411   -2.297090
     23          1           0        3.815055    2.032430    0.186738
     24          1           0        4.887009   -0.192277   -0.141076
     25          1           0        0.139391   -2.376703   -0.361982
     26          1           0        1.658659   -3.163228   -0.486651
     27          1           0        0.526606    2.839986   -0.643470
     28          1           0        0.398331    2.488316    1.071725
     29          1           0        1.825858    3.346323    0.454211
     30          1           0       -1.109005   -0.768944    3.084335
     31          1           0        0.238437   -1.450831    2.155173
     32          1           0        0.248358    0.253862    2.575324
 ---------------------------------------------------------------------

 SCF Done:  E(UB3LYP) =  -652.883875621     A.U. after   33 cycles
 SCF Done:  E(UB3LYP) =  -652.883875621     a.u. after    1 cycles

 The electronic state is 2-A.
 Alpha  occ. eigenvalues --  -14.22565 -14.20688 -10.14968 -10.11144 -10.10221
 Alpha  occ. eigenvalues --  -10.08999 -10.08759 -10.08580 -10.08550 -10.07969
 Alpha  occ. eigenvalues --  -10.07551 -10.07468 -10.07455 -10.07284 -10.07014
 Alpha  occ. eigenvalues --  -10.06980  -0.87121  -0.79681  -0.77243  -0.72995
 Alpha  occ. eigenvalues --   -0.69026  -0.67030  -0.64594  -0.61985  -0.59574
 Alpha  occ. eigenvalues --   -0.58663  -0.53444  -0.51048  -0.50391  -0.47362
 Alpha  occ. eigenvalues --   -0.44078  -0.41821  -0.40904  -0.38503  -0.37228
 Alpha  occ. eigenvalues --   -0.36797  -0.35139  -0.33398  -0.33099  -0.32583
 Alpha  occ. eigenvalues --   -0.31907  -0.31623  -0.30695  -0.30417  -0.29934
 Alpha  occ. eigenvalues --   -0.29152  -0.28351  -0.27600  -0.25248  -0.24613
 Alpha  occ. eigenvalues --   -0.24465  -0.22534  -0.17752  -0.17479  -0.15483
 Alpha  occ. eigenvalues --   -0.14348  -0.12505   0.04281
 Alpha virt. eigenvalues --    0.06142   0.06602   0.06699   0.07322   0.07711
 Alpha virt. eigenvalues --    0.07876   0.08137   0.08646   0.08991   0.09465
 Alpha virt. eigenvalues --    0.09706   0.10423   0.10823   0.11425   0.11804

  Beta  occ. eigenvalues --  -14.22539 -14.20677 -10.14966 -10.11137 -10.10212
  Beta  occ. eigenvalues --  -10.08999 -10.08759 -10.08578 -10.08548 -10.07962
  Beta  occ. eigenvalues --  -10.07523 -10.07461 -10.07441 -10.07262 -10.06985
  Beta  occ. eigenvalues --  -10.06940  -0.87101  -0.79649  -0.77231  -0.72974
  Beta  occ. eigenvalues --   -0.69003  -0.67006  -0.64566  -0.61946  -0.59522
  Beta  occ. eigenvalues --   -0.58622  -0.53417  -0.51006  -0.50353  -0.47325
  Beta  occ. eigenvalues --   -0.44054  -0.41785  -0.40866  -0.38485  -0.37203
  Beta  occ. eigenvalues --   -0.36762  -0.35098  -0.33361  -0.33065  -0.32552
  Beta  occ. eigenvalues --   -0.31872  -0.31591  -0.30662  -0.30387  -0.29891
  Beta  occ. eigenvalues --   -0.29121  -0.28312  -0.27574  -0.25226  -0.24587
  Beta  occ. eigenvalues --   -0.24435  -0.22504  -0.17722  -0.17443  -0.15465
  Beta  occ. eigenvalues --   -0.14334  -0.12480
  Beta virt. eigenvalues --    0.06277   0.06713   0.06881   0.07287   0.07827
  Beta virt. eigenvalues --    0.08002   0.08120   0.08294   0.08965   0.09162
  Beta virt. eigenvalues --    0.09965   0.10074   0.10813   0.11120   0.11812

 Mulliken charges and spin densities:
               1          2
     1  C    2.781672  -3.270064
     2  C    0.962079  -0.438495
     3  C    0.218795  -0.440251
     4  C   -1.809254   1.869977
     5  C    0.257637   0.229656
     6  C   -0.267416  -0.242897
     7  C   -0.969039   0.281161
     8  C    0.154336   0.147116
     9  C   -1.483199   1.623360
    10  C    0.139699  -0.395636
    11  C    0.423597  -0.638469
    12  N   -0.148580   0.051702
    13  C   -0.628172   0.261683
    14  N   -0.348526   0.003503
    15  C    1.482724  -2.102324
    16  C    0.769793  -1.260842
    17  H   -0.146184   0.318000
    18  H   -0.309749   0.457815
    19  H   -0.242949   0.386833
    20  H   -0.514880   0.676957
    21  H   -0.078862   0.243317
    22  H   -0.495641   0.656387
    23  H   -0.268178   0.414379
    24  H    0.082597   0.083117
    25  H    0.205280   0.048869
    26  H    0.037303   0.244947
    27  H   -0.071564   0.258423
    28  H   -0.020138   0.176895
    29  H   -0.151126   0.295772
    30  H   -0.458219   0.614169
    31  H   -0.170042   0.352169
    32  H    0.066207   0.092770
 Sum of Mulliken charges =  -1.00000   1.00000

 Dipole moment (field-independent basis, Debye):
    X=              4.6612    Y=             -0.2219    Z=             -1.1655  Tot=              4.8098
 Quadrupole moment (field-independent basis, Debye-Ang):
   XX=           -177.8508   YY=           -138.8474   ZZ=           -136.7094
   XY=              1.2381   XZ=              3.1165   YZ=              1.5067

 Summary of Natural Population Analysis:

                                       Natural Population
                Natural  -----------------------------------------------
    Atom  No    Charge         Core      Valence    Rydberg      Total
 -----------------------------------------------------------------------
      C    1   -0.29111      0.99964     2.28612    0.00535     3.29111
      C    2   -0.01025      0.99952     2.00015    0.01059     3.01025
      C    3   -0.09781      0.99946     2.08807    0.01028     3.09781
      C    4   -0.00852      0.99947     1.99729    0.01176     3.00852
      C    5   -0.04001      0.99946     2.02697    0.01357     3.04001
      C    6   -0.08523      0.99951     2.07579    0.00994     3.08523
      C    7   -0.10190      0.99950     2.09271    0.00969     3.10190
      C    8   -0.06415      0.99941     2.05268    0.01207     3.06415
      C    9    0.02003      0.99948     1.97101    0.00948     2.97997
      C   10   -0.14656      0.99950     2.13778    0.00927     3.14656
      C   11    0.03605      0.99959     1.95064    0.01372     2.96395
      N   12   -0.26305      0.99967     2.75253    0.01085     3.76305
      C   13    0.20596      0.99949     1.77831    0.01624     2.79404
      N   14   -0.39363      0.99970     2.88517    0.00875     3.89363
      C   15   -0.29802      0.99963     2.29283    0.00555     3.29802
      C   16   -0.29483      0.99963     2.28922    0.00598     3.29483
      H   17    0.10544      0.00000     0.39314    0.00141     0.39456
      H   18    0.10436      0.00000     0.39407    0.00157     0.39564
      H   19    0.10347      0.00000     0.39498    0.00155     0.39653
      H   20    0.10089      0.00000     0.39753    0.00158     0.39911
      H   21    0.10151      0.00000     0.39716    0.00133     0.39849
      H   22    0.10052      0.00000     0.39838    0.00110     0.39948
      H   23    0.10232      0.00000     0.39671    0.00097     0.39768
      H   24    0.08698      0.00000     0.41196    0.00107     0.41302
      H   25    0.19574      0.00000     0.30245    0.00181     0.30426
      H   26    0.19208      0.00000     0.30563    0.00229     0.30792
      H   27    0.11107      0.00000     0.38776    0.00117     0.38893
      H   28    0.11020      0.00000     0.38868    0.00112     0.38980
      H   29    0.10214      0.00000     0.39687    0.00100     0.39786
      H   30    0.10431      0.00000     0.39450    0.00119     0.39569
      H   31    0.10575      0.00000     0.39252    0.00173     0.39425
      H   32    0.10624      0.00000     0.39254    0.00122     0.39376
 =======================================================================
   * Total *    0.00000     15.99266    40.82215    0.18519    57.00000

 Normal termination of Gaussian 16 at Fri Dec 11 00:13:01 2020.
