 Gaussian 16, Revision A.03,

 -----------------------------------------------------------
 # opt freq B3LYP/6-31G(d) empiricaldispersion=gd3bj scf=xqc
 -----------------------------------------------------------

 ------------------------------
 CID_63029962_JID_2578_neutraal
 ------------------------------
 Symbolic Z-matrix:
 Charge =  0 Multiplicity = 1

 SCF Done:  E(RB3LYP) =  -574.410344228     A.U. after   14 cycles
 SCF Done:  E(RB3LYP) =  -574.387717525     A.U. after   13 cycles
 SCF Done:  E(RB3LYP) =  -574.412394579     A.U. after   13 cycles
 SCF Done:  E(RB3LYP) =  -574.413302252     A.U. after   13 cycles
 SCF Done:  E(RB3LYP) =  -574.413629179     A.U. after   12 cycles
 SCF Done:  E(RB3LYP) =  -574.413790496     A.U. after   11 cycles
 SCF Done:  E(RB3LYP) =  -574.413914542     A.U. after   10 cycles
 SCF Done:  E(RB3LYP) =  -574.413927772     A.U. after   10 cycles
 SCF Done:  E(RB3LYP) =  -574.413933153     A.U. after    9 cycles
 SCF Done:  E(RB3LYP) =  -574.413935566     A.U. after    8 cycles
 SCF Done:  E(RB3LYP) =  -574.413937083     A.U. after    8 cycles
 SCF Done:  E(RB3LYP) =  -574.413937819     A.U. after    8 cycles
 SCF Done:  E(RB3LYP) =  -574.413937990     A.U. after    7 cycles
 SCF Done:  E(RB3LYP) =  -574.413938116     A.U. after    7 cycles
 Optimization completed.
    -- Stationary point found.
 Normal termination of Gaussian 16 at Wed Dec  9 17:41:23 2020.

 --------------------------------------------------------------------
 #N Geom=AllCheck Guess=TCheck SCRF=Check GenChk RB3LYP/6-31G(d) Freq
 --------------------------------------------------------------------

 Structure from the checkpoint file:  "JID_2578.chk"
 ------------------------------
 CID_63029962_JID_2578_neutraal
 ------------------------------
 Charge =  0 Multiplicity = 1

 SCF Done:  E(RB3LYP) =  -574.413938116     A.U. after    1 cycles

  Exact polarizability: 101.668  -2.017 105.419   1.987   8.537  94.069
 Approx polarizability: 128.439  -2.853 147.815   1.319  17.997 140.062

                      1                      2                      3
                      A                      A                      A
 Frequencies --     37.1532                70.5450                76.9676
 Red. masses --      4.5920                 2.7958                 3.6817
 Frc consts  --      0.0037                 0.0082                 0.0129
 IR Inten    --      1.9091                 2.3182                 1.5571

                      4                      5                      6
                      A                      A                      A
 Frequencies --     88.8449               107.9336               123.9108
 Red. masses --      3.6409                 2.8817                 3.5786
 Frc consts  --      0.0169                 0.0198                 0.0324
 IR Inten    --      0.7228                 1.2718                 5.0020

                      7                      8                      9
                      A                      A                      A
 Frequencies --    161.5508               171.5152               199.6462
 Red. masses --      2.4963                 4.0814                 1.5977
 Frc consts  --      0.0384                 0.0707                 0.0375
 IR Inten    --      2.2561                 2.5319                 0.2129

                     10                     11                     12
                      A                      A                      A
 Frequencies --    229.5263               235.8980               258.0061
 Red. masses --      3.1466                 1.5180                 2.0625
 Frc consts  --      0.0977                 0.0498                 0.0809
 IR Inten    --      9.2531                 1.9925                 1.7555

                     13                     14                     15
                      A                      A                      A
 Frequencies --    300.2024               314.8829               370.8510
 Red. masses --      2.0453                 2.1279                 3.6224
 Frc consts  --      0.1086                 0.1243                 0.2935
 IR Inten    --      5.4557                 1.2824                 3.0866

                     16                     17                     18
                      A                      A                      A
 Frequencies --    393.3639               417.8909               476.0319
 Red. masses --      3.0117                 2.4126                 4.4755
 Frc consts  --      0.2746                 0.2482                 0.5975
 IR Inten    --      4.1023                 7.3617                 0.9538

                     19                     20                     21
                      A                      A                      A
 Frequencies --    544.2881               560.5539               636.5250
 Red. masses --      2.1787                 7.0637                 2.8207
 Frc consts  --      0.3803                 1.3077                 0.6734
 IR Inten    --      8.4209                 1.6534                 2.4195

                     22                     23                     24
                      A                      A                      A
 Frequencies --    728.7317               815.2809               858.7388
 Red. masses --      2.5274                 2.2901                 1.9841
 Frc consts  --      0.7908                 0.8969                 0.8620
 IR Inten    --      8.5338                48.9387                48.0182

                     25                     26                     27
                      A                      A                      A
 Frequencies --    886.7378               923.0218               948.9445
 Red. masses --      2.3777                 2.7118                 2.2648
 Frc consts  --      1.1015                 1.3612                 1.2016
 IR Inten    --     12.1711                16.1345                16.4057

                     28                     29                     30
                      A                      A                      A
 Frequencies --    984.7385              1027.9425              1055.6075
 Red. masses --      1.7121                 2.4468                 2.3132
 Frc consts  --      0.9782                 1.5233                 1.5187
 IR Inten    --     13.0509                 9.8653                27.9855

                     31                     32                     33
                      A                      A                      A
 Frequencies --   1065.8865              1110.6279              1120.2558
 Red. masses --      2.0566                 2.2905                 2.2583
 Frc consts  --      1.3767                 1.6646                 1.6698
 IR Inten    --     20.7561                 9.2090                 4.6369

                     34                     35                     36
                      A                      A                      A
 Frequencies --   1153.6558              1158.7105              1172.8528
 Red. masses --      4.7588                 2.6751                 2.1006
 Frc consts  --      3.7316                 2.1161                 1.7024
 IR Inten    --    108.6670                85.4287                37.7801

                     37                     38                     39
                      A                      A                      A
 Frequencies --   1176.4763              1193.9290              1218.8233
 Red. masses --      2.4140                 1.2873                 1.9850
 Frc consts  --      1.9686                 1.0811                 1.7373
 IR Inten    --    101.6527                 0.8502                 7.6054

                     40                     41                     42
                      A                      A                      A
 Frequencies --   1240.4071              1268.7677              1278.3332
 Red. masses --      1.6389                 1.1967                 1.1227
 Frc consts  --      1.4857                 1.1350                 1.0809
 IR Inten    --     11.4785                 6.0332                 2.4765

                     43                     44                     45
                      A                      A                      A
 Frequencies --   1310.9706              1348.8551              1364.2989
 Red. masses --      1.3482                 1.1462                 1.1569
 Frc consts  --      1.3652                 1.2287                 1.2687
 IR Inten    --     12.3991                22.2266                 0.4301

                     46                     47                     48
                      A                      A                      A
 Frequencies --   1380.5035              1404.8600              1414.3393
 Red. masses --      1.3777                 1.2885                 1.2934
 Frc consts  --      1.5470                 1.4983                 1.5243
 IR Inten    --     10.3226                 3.6840                12.3725

                     49                     50                     51
                      A                      A                      A
 Frequencies --   1440.3177              1456.4435              1479.3785
 Red. masses --      1.3467                 1.3073                 1.1554
 Frc consts  --      1.6460                 1.6338                 1.4898
 IR Inten    --     12.4610                 5.3546                 0.8483

                     52                     53                     54
                      A                      A                      A
 Frequencies --   1496.8951              1500.8021              1514.0826
 Red. masses --      1.0864                 1.1492                 1.0476
 Frc consts  --      1.4342                 1.5251                 1.4149
 IR Inten    --      5.3097                 5.9014                 5.3949

                     55                     56                     57
                      A                      A                      A
 Frequencies --   1521.6223              1522.6936              1527.2930
 Red. masses --      1.0743                 1.0755                 1.0733
 Frc consts  --      1.4654                 1.4692                 1.4750
 IR Inten    --     11.4575                 4.2183                 9.8935

                     58                     59                     60
                      A                      A                      A
 Frequencies --   1533.6696              1541.2799              1548.3440
 Red. masses --      1.0866                 1.0704                 1.0846
 Frc consts  --      1.5058                 1.4982                 1.5320
 IR Inten    --      2.9416                 0.3342                 0.8281

                     61                     62                     63
                      A                      A                      A
 Frequencies --   1575.6108              2366.9245              2973.3030
 Red. masses --      1.1332                12.6674                 1.0579
 Frc consts  --      1.6576                41.8124                 5.5105
 IR Inten    --     11.8207                 4.3861                64.6072

                     64                     65                     66
                      A                      A                      A
 Frequencies --   2991.3675              3006.9639              3023.7879
 Red. masses --      1.0549                 1.0383                 1.0817
 Frc consts  --      5.5616                 5.5314                 5.8272
 IR Inten    --     33.3686                88.0199                12.2832

                     67                     68                     69
                      A                      A                      A
 Frequencies --   3032.8196              3050.8964              3055.8171
 Red. masses --      1.1031                 1.0642                 1.1059
 Frc consts  --      5.9783                 5.8364                 6.0844
 IR Inten    --     36.8351                14.5724                46.9836

                     70                     71                     72
                      A                      A                      A
 Frequencies --   3064.9243              3071.3167              3074.7284
 Red. masses --      1.0622                 1.0775                 1.0614
 Frc consts  --      5.8788                 5.9884                 5.9124
 IR Inten    --     83.3293                47.7942                14.3501

                     73                     74                     75
                      A                      A                      A
 Frequencies --   3099.4438              3115.5354              3119.0455
 Red. masses --      1.1021                 1.1044                 1.1018
 Frc consts  --      6.2376                 6.3162                 6.3151
 IR Inten    --     12.6267                13.3759                35.8984

                     76                     77                     78
                      A                      A                      A
 Frequencies --   3122.1824              3144.4610              3494.4755
 Red. masses --      1.1011                 1.0984                 1.0751
 Frc consts  --      6.3240                 6.3991                 7.7351
 IR Inten    --     22.5694                23.5043               104.1360

 - Thermochemistry -
 -------------------
 Temperature   298.150 Kelvin.  Pressure   1.00000 Atm.
 Atom     1 has atomic number  6 and mass  12.00000

 Molecular mass:   172.12118 amu.
 Principal axes and moments of inertia in atomic units:
                           1         2         3
     Eigenvalues --  1764.705562525.392263079.02630
           X            0.99891   0.02421   0.03985
           Y           -0.02485   0.99957   0.01571
           Z           -0.03945  -0.01669   0.99908
 This molecule is an asymmetric top.
 Rotational symmetry number  1.
 Warning -- assumption of classical behavior for rotation
           may cause significant error
 Rotational temperatures (Kelvin)      0.04908     0.03430     0.02813
 Rotational constants (GHZ):           1.02269     0.71464     0.58614
 Zero-point vibrational energy     645115.0 (Joules/Mol)
                                  154.18619 (Kcal/Mol)
 Warning -- explicit consideration of  20 degrees of freedom as
           vibrations may cause significant error
 Vibrational temperatures:     53.46   101.50   110.74   127.83   155.29
          (Kelvin)            178.28   232.44   246.77   287.25   330.24
                              339.40   371.21   431.92   453.05   533.57
                              565.96   601.25   684.90   783.11   806.51
                              915.82  1048.48  1173.01  1235.53  1275.82
                             1328.02  1365.32  1416.82  1478.98  1518.78
                             1533.57  1597.95  1611.80  1659.85  1667.13
                             1687.47  1692.69  1717.80  1753.61  1784.67
                             1825.47  1839.24  1886.19  1940.70  1962.92
                             1986.24  2021.28  2034.92  2072.30  2095.50
                             2128.50  2153.70  2159.32  2178.43  2189.28
                             2190.82  2197.43  2206.61  2217.56  2227.72
                             2266.95  3405.48  4277.92  4303.91  4326.35
                             4350.56  4363.55  4389.56  4396.64  4409.74
                             4418.94  4423.85  4459.41  4482.56  4487.61
                             4492.12  4524.18  5027.77

 Zero-point correction=                           0.245711 (Hartree/Particle)
 Thermal correction to Energy=                    0.259790
 Thermal correction to Enthalpy=                  0.260734
 Thermal correction to Gibbs Free Energy=         0.204496
 Sum of electronic and zero-point Energies=           -574.168227
 Sum of electronic and thermal Energies=              -574.154148
 Sum of electronic and thermal Enthalpies=            -574.153204
 Sum of electronic and thermal Free Energies=         -574.209442

                     E (Thermal)             CV                S
                      KCal/Mol        Cal/Mol-Kelvin    Cal/Mol-Kelvin
 Total                  163.021             49.699            118.364
 Electronic               0.000              0.000              0.000
 Translational            0.889              2.981             41.337
 Rotational               0.889              2.981             30.996
 Vibrational            161.243             43.737             46.031
 Vibration     1          0.594              1.982              5.405
 Vibration     2          0.598              1.968              4.138
 Vibration     3          0.599              1.965              3.967
 Vibration     4          0.602              1.957              3.685
 Vibration     5          0.606              1.943              3.306
 Vibration     6          0.610              1.929              3.038
 Vibration     7          0.622              1.890              2.532
 Vibration     8          0.626              1.878              2.419
 Vibration     9          0.638              1.840              2.136
 Vibration    10          0.652              1.796              1.883
 Vibration    11          0.655              1.786              1.834
 Vibration    12          0.667              1.749              1.675
 Vibration    13          0.693              1.673              1.416
 Vibration    14          0.702              1.645              1.337
 Vibration    15          0.743              1.532              1.076
 Vibration    16          0.761              1.484              0.987
 Vibration    17          0.781              1.431              0.899
 Vibration    18          0.833              1.303              0.721
 Vibration    19          0.899              1.152              0.556
 Vibration    20          0.916              1.117              0.523

 Optimization completed.
    -- Stationary point found.
 Normal termination of Gaussian 16 at Wed Dec  9 17:48:55 2020.

 ----------------------------------------------------------------------
 # B3LYP/6-311++G(d,p) empiricaldispersion=gd3bj scf=xqc pop=npa geom=c
 heck
 ----------------------------------------------------------------------

 --------------------------------------
 CID_63029962_JID_2578_Energie_neutraal
 --------------------------------------
 Structure from the checkpoint file:  "JID_2578.chk"
 Charge =  0 Multiplicity = 1

 SCF Done:  E(RB3LYP) =  -574.586232816     A.U. after   13 cycles
 Normal termination of Gaussian 16 at Wed Dec  9 17:52:19 2020.

 ----------------------------------------------------------------------
 # B3LYP/6-311++G(d,p) empiricaldispersion=gd3bj scf=xqc pop=npa geom=c
 heck
 ----------------------------------------------------------------------

 ------------------------------------
 CID_63029962_JID_2578_Energie_kation
 ------------------------------------
 Structure from the checkpoint file:  "JID_2578.chk"
 Charge =  1 Multiplicity = 2

 SCF Done:  E(UB3LYP) =  -574.267707284     A.U. after   29 cycles
 Normal termination of Gaussian 16 at Wed Dec  9 18:02:12 2020.
 Gaussian 16:  ES64L-G16RevA.03 25-Dec-2016

 ----------------------------------------------------------------------
 # B3LYP/6-311++G(d,p) empiricaldispersion=gd3bj scf=xqc pop=npa geom=c
 heck
 ----------------------------------------------------------------------

 -----------------------------------
 CID_63029962_JID_2578_Energie_anion
 -----------------------------------
 Structure from the checkpoint file:  "JID_2578.chk"
 Charge = -1 Multiplicity = 2

                         Standard orientation:
 ---------------------------------------------------------------------
 Center     Atomic      Atomic             Coordinates (Angstroms)
 Number     Number       Type             X           Y           Z
 ---------------------------------------------------------------------
      1          6           0        0.899640    2.666701    0.253354
      2          7           0        0.973736    1.468667   -0.571751
      3          6           0        1.908800    0.465551   -0.071113
      4          6           0        1.619938   -0.141570    1.333911
      5          6           0        0.176367   -0.554001    1.637112
      6          8           0       -0.234301   -1.779406    1.039556
      7          6           0       -0.903585   -1.736615   -0.211022
      8          6           0       -2.206840   -0.951051   -0.233169
      9          8           0       -1.931071    0.438851   -0.379957
     10          6           0       -3.099344    1.231440   -0.462029
     11          6           0        2.075288   -0.584753   -1.094469
     12          7           0        2.215722   -1.414708   -1.893291
     13          1           0        1.888697    3.138304    0.301647
     14          1           0        0.553380    2.505171    1.289131
     15          1           0        0.216237    3.376862   -0.222276
     16          1           0        0.043579    1.067431   -0.685795
     17          1           0        2.889733    0.957927   -0.001085
     18          1           0        2.283783   -0.997074    1.501232
     19          1           0        1.894467    0.621245    2.073560
     20          1           0        0.107495   -0.728013    2.716986
     21          1           0       -0.516410    0.255977    1.390325
     22          1           0       -0.255771   -1.371929   -1.016603
     23          1           0       -1.130925   -2.784186   -0.432428
     24          1           0       -2.817707   -1.292818   -1.084752
     25          1           0       -2.777937   -1.132505    0.690727
     26          1           0       -3.718222    0.941611   -1.324558
     27          1           0       -3.707449    1.146125    0.451006
     28          1           0       -2.777763    2.268392   -0.584062
 ---------------------------------------------------------------------

 SCF Done:  E(UB3LYP) =  -574.576474986     A.U. after   27 cycles

 The electronic state is 2-A.
 Alpha  occ. eigenvalues --  -19.04239 -19.02880 -14.21772 -14.20609 -10.14658
 Alpha  occ. eigenvalues --  -10.12812 -10.12447 -10.11768 -10.11672 -10.11573
 Alpha  occ. eigenvalues --  -10.08856 -10.08253  -0.95566  -0.93580  -0.83146
 Alpha  occ. eigenvalues --   -0.80539  -0.69525  -0.66945  -0.62713  -0.58495
 Alpha  occ. eigenvalues --   -0.55560  -0.53295  -0.49015  -0.44559  -0.41903
 Alpha  occ. eigenvalues --   -0.41382  -0.39173  -0.38474  -0.37100  -0.36002
 Alpha  occ. eigenvalues --   -0.34868  -0.32863  -0.31912  -0.30936  -0.30335
 Alpha  occ. eigenvalues --   -0.29566  -0.29072  -0.28418  -0.27046  -0.26637
 Alpha  occ. eigenvalues --   -0.24767  -0.23778  -0.22872  -0.21364  -0.18044
 Alpha  occ. eigenvalues --   -0.16396  -0.13707   0.04148
 Alpha virt. eigenvalues --    0.06180   0.07476   0.07956   0.08890   0.09332
 Alpha virt. eigenvalues --    0.09708   0.10703   0.11079   0.11368   0.11646
 Alpha virt. eigenvalues --    0.12204   0.12844   0.13112   0.13225   0.13913

  Beta  occ. eigenvalues --  -19.04231 -19.02880 -14.21765 -14.20606 -10.14648
  Beta  occ. eigenvalues --  -10.12789 -10.12442 -10.11751 -10.11614 -10.11571
  Beta  occ. eigenvalues --  -10.08809 -10.08229  -0.95552  -0.93573  -0.83130
  Beta  occ. eigenvalues --   -0.80527  -0.69489  -0.66911  -0.62667  -0.58419
  Beta  occ. eigenvalues --   -0.55478  -0.53230  -0.48963  -0.44531  -0.41880
  Beta  occ. eigenvalues --   -0.41333  -0.39138  -0.38427  -0.37067  -0.35956
  Beta  occ. eigenvalues --   -0.34836  -0.32817  -0.31866  -0.30895  -0.30295
  Beta  occ. eigenvalues --   -0.29529  -0.29036  -0.28381  -0.27015  -0.26614
  Beta  occ. eigenvalues --   -0.24721  -0.23757  -0.22837  -0.21347  -0.18021
  Beta  occ. eigenvalues --   -0.16381  -0.13689
  Beta virt. eigenvalues --    0.06629   0.07255   0.08037   0.08723   0.09359
  Beta virt. eigenvalues --    0.10025   0.10331   0.10885   0.11338   0.11722
  Beta virt. eigenvalues --    0.12001   0.12456   0.13220   0.13479   0.13670

 Mulliken charges and spin densities:
               1          2
     1  C    0.916067  -1.278087
     2  N   -0.267040   0.058278
     3  C    0.025149   0.613178
     4  C    0.927360  -1.315195
     5  C   -0.437295  -0.066836
     6  O   -0.060643  -0.001362
     7  C   -0.390058   0.006282
     8  C    0.130840  -0.323303
     9  O   -0.274611   0.079064
    10  C    1.095216  -1.355333
    11  C   -0.342501  -0.263950
    12  N   -0.277002   0.011001
    13  H   -0.338853   0.485405
    14  H   -0.323477   0.462988
    15  H   -0.215531   0.362034
    16  H    0.350149  -0.008201
    17  H   -0.123044   0.330929
    18  H    0.121762   0.070893
    19  H   -0.340046   0.535778
    20  H   -0.426524   0.603863
    21  H    0.316426  -0.115735
    22  H    0.165993  -0.034078
    23  H    0.019897   0.160168
    24  H   -0.079828   0.201698
    25  H    0.004193   0.177949
    26  H   -0.429438   0.562686
    27  H   -0.482326   0.627956
    28  H   -0.264835   0.411931
 Sum of Mulliken charges =  -1.00000   1.00000

 Dipole moment (field-independent basis, Debye):
    X=              1.3548    Y=             -3.5281    Z=             -1.0283  Tot=              3.9167
 Quadrupole moment (field-independent basis, Debye-Ang):
   XX=           -133.9475   YY=           -121.2517   ZZ=           -119.3199
   XY=              5.7358   XZ=              1.6766   YZ=             -5.7295

 Summary of Natural Population Analysis:

                                       Natural Population
                Natural  -----------------------------------------------
    Atom  No    Charge         Core      Valence    Rydberg      Total
 -----------------------------------------------------------------------
      C    1   -0.18005      0.99965     2.17152    0.00888     3.18005
      N    2   -0.34453      0.99974     2.83328    0.01151     3.84453
      C    3   -0.06420      0.99950     2.05114    0.01356     3.06420
      C    4   -0.20612      0.99961     2.19655    0.00996     3.20612
      C    5   -0.02019      0.99955     2.00608    0.01457     3.02019
      O    6   -0.30255      0.99989     3.29380    0.00887     4.30255
      C    7   -0.02050      0.99955     2.00850    0.01245     3.02050
      C    8   -0.02387      0.99958     2.01298    0.01130     3.02387
      O    9   -0.30988      0.99988     3.29957    0.01043     4.30988
      C   10   -0.09568      0.99962     2.08694    0.00912     3.09568
      C   11    0.16618      0.99963     1.81534    0.01884     2.83382
      N   12   -0.18682      0.99979     2.67684    0.01018     3.68682
      H   13    0.09225      0.00000     0.40622    0.00153     0.40775
      H   14    0.08345      0.00000     0.41442    0.00213     0.41655
      H   15    0.09908      0.00000     0.39971    0.00121     0.40092
      H   16    0.19023      0.00000     0.30439    0.00538     0.30977
      H   17    0.11606      0.00000     0.38204    0.00190     0.38394
      H   18    0.10464      0.00000     0.39397    0.00139     0.39536
      H   19    0.10813      0.00000     0.38988    0.00199     0.39187
      H   20    0.09187      0.00000     0.40673    0.00140     0.40813
      H   21    0.09375      0.00000     0.40340    0.00284     0.40625
      H   22    0.08778      0.00000     0.40953    0.00270     0.41222
      H   23    0.09242      0.00000     0.40655    0.00103     0.40758
      H   24    0.08494      0.00000     0.41367    0.00139     0.41506
      H   25    0.08622      0.00000     0.41229    0.00148     0.41378
      H   26    0.08026      0.00000     0.41761    0.00213     0.41974
      H   27    0.08310      0.00000     0.41439    0.00251     0.41690
      H   28    0.09403      0.00000     0.40430    0.00167     0.40597
 =======================================================================
   * Total *   -0.00000     11.99598    34.83166    0.17235    47.00000

 Normal termination of Gaussian 16 at Wed Dec  9 18:11:14 2020.
