 Gaussian 16, Revision A.03,

 ----------------------------------------------------------------------
 # opt=(cartesian,calcfc) freq B3LYP/6-31G(d) empiricaldispersion=gd3bj
  scf=xqc
 ----------------------------------------------------------------------

 ---------------------------
 CID_96255_JID_5153_neutraal
 ---------------------------
 Symbolic Z-matrix:
 Charge =  0 Multiplicity = 1

 SCF Done:  E(RB3LYP) =  -751.784028363     A.U. after   15 cycles
 SCF Done:  E(RB3LYP) =  -751.784100928     A.U. after   10 cycles
 SCF Done:  E(RB3LYP) =  -751.784105580     A.U. after   10 cycles
 SCF Done:  E(RB3LYP) =  -751.784124327     A.U. after   10 cycles
 SCF Done:  E(RB3LYP) =  -751.784132968     A.U. after   10 cycles
 SCF Done:  E(RB3LYP) =  -751.784141241     A.U. after   10 cycles
 SCF Done:  E(RB3LYP) =  -751.783759888     A.U. after   11 cycles
 SCF Done:  E(RB3LYP) =  -751.784132877     A.U. after   10 cycles
 SCF Done:  E(RB3LYP) =  -751.784144811     A.U. after    7 cycles
 SCF Done:  E(RB3LYP) =  -751.784150073     A.U. after    9 cycles
 SCF Done:  E(RB3LYP) =  -751.784177080     A.U. after    6 cycles
 SCF Done:  E(RB3LYP) =  -751.784176350     A.U. after    9 cycles
 SCF Done:  E(RB3LYP) =  -751.784177088     A.U. after    7 cycles
 SCF Done:  E(RB3LYP) =  -751.784175927     A.U. after    9 cycles
 SCF Done:  E(RB3LYP) =  -751.784177089     A.U. after    7 cycles
 Optimization completed.
    -- Stationary point found.
 Normal termination of Gaussian 16 at Mon Jan  4 09:41:16 2021.

 --------------------------------------------------------------------
 #N Geom=AllCheck Guess=TCheck SCRF=Check GenChk RB3LYP/6-31G(d) Freq
 --------------------------------------------------------------------

 Structure from the checkpoint file:  "JID_5153.chk"
 ---------------------------
 CID_96255_JID_5153_neutraal
 ---------------------------
 Charge =  0 Multiplicity = 1

 SCF Done:  E(RB3LYP) =  -751.784177089     A.U. after    1 cycles

  Exact polarizability: 167.732   3.319 129.986  -0.977  -0.479  58.617
 Approx polarizability: 229.899   5.435 226.236  -2.690  -0.722  89.674

                      1                      2                      3
                      A                      A                      A
 Frequencies --     62.8143                75.9042               103.3613
 Red. masses --      3.6144                 1.1746                 3.8911
 Frc consts  --      0.0084                 0.0040                 0.0245
 IR Inten    --      0.0203                 0.2928                 0.2140

                      4                      5                      6
                      A                      A                      A
 Frequencies --    109.2408               123.7930               135.8819
 Red. masses --      1.6036                 2.5590                 2.0371
 Frc consts  --      0.0113                 0.0231                 0.0222
 IR Inten    --      1.5669                 0.9265                 1.8539

                      7                      8                      9
                      A                      A                      A
 Frequencies --    149.2157               180.7778               200.9808
 Red. masses --      4.5451                 4.2662                 2.0065
 Frc consts  --      0.0596                 0.0821                 0.0478
 IR Inten    --      0.6560                16.6421                 4.7560

                     10                     11                     12
                      A                      A                      A
 Frequencies --    259.5216               279.8389               301.1871
 Red. masses --      3.3248                 3.7710                 2.8090
 Frc consts  --      0.1319                 0.1740                 0.1501
 IR Inten    --     14.7483                26.5767                 7.6939

                     13                     14                     15
                      A                      A                      A
 Frequencies --    315.0100               332.9461               359.6497
 Red. masses --      3.8750                 6.2607                 3.7351
 Frc consts  --      0.2266                 0.4089                 0.2846
 IR Inten    --     23.1514                24.8740                10.1410

                     16                     17                     18
                      A                      A                      A
 Frequencies --    402.5388               416.4013               425.9326
 Red. masses --      8.4267                 1.6455                 2.8996
 Frc consts  --      0.8045                 0.1681                 0.3099
 IR Inten    --     11.9556                37.0769                42.0141

                     19                     20                     21
                      A                      A                      A
 Frequencies --    494.8042               507.9351               537.4044
 Red. masses --      4.6023                 5.7694                 2.7482
 Frc consts  --      0.6639                 0.8770                 0.4676
 IR Inten    --     81.7659                26.0452               137.8099

                     22                     23                     24
                      A                      A                      A
 Frequencies --    621.2956               667.2349               684.5041
 Red. masses --      2.9456                 9.4742                 4.9443
 Frc consts  --      0.6699                 2.4851                 1.3649
 IR Inten    --    115.7804                 0.5062                23.3422

                     25                     26                     27
                      A                      A                      A
 Frequencies --    717.4141               732.7386               745.9812
 Red. masses --     11.3058                 8.3723                10.3626
 Frc consts  --      3.4284                 2.6485                 3.3976
 IR Inten    --     24.3673                 2.4424                13.7441

                     28                     29                     30
                      A                      A                      A
 Frequencies --    800.7273               837.0228               974.1856
 Red. masses --      4.8456                 3.6724                 3.8945
 Frc consts  --      1.8305                 1.5159                 2.1776
 IR Inten    --      7.8427                17.1346                 2.4068

                     31                     32                     33
                      A                      A                      A
 Frequencies --    980.2368              1009.8595              1065.2902
 Red. masses --      2.7139                 2.7822                 4.5459
 Frc consts  --      1.5364                 1.6717                 3.0395
 IR Inten    --     61.4104                39.0949                 9.2599

                     34                     35                     36
                      A                      A                      A
 Frequencies --   1078.4608              1140.5159              1167.9729
 Red. masses --      2.9205                 3.2957                 1.2806
 Frc consts  --      2.0013                 2.5258                 1.0293
 IR Inten    --     44.1418                14.7714                 0.3860

                     37                     38                     39
                      A                      A                      A
 Frequencies --   1170.4281              1205.8643              1246.5402
 Red. masses --      1.2884                 1.7043                 3.0445
 Frc consts  --      1.0399                 1.4601                 2.7873
 IR Inten    --      0.2248                89.8990                75.6879

                     40                     41                     42
                      A                      A                      A
 Frequencies --   1269.5749              1284.9583              1313.0724
 Red. masses --      2.3430                 2.8533                 8.1723
 Frc consts  --      2.2251                 2.7758                 8.3018
 IR Inten    --     36.6366                 3.8156                39.7565

                     43                     44                     45
                      A                      A                      A
 Frequencies --   1362.8881              1379.5841              1419.4553
 Red. masses --      2.6006                 1.4425                 2.6132
 Frc consts  --      2.8461                 1.6175                 3.1021
 IR Inten    --     60.5469                18.2795                44.7801

                     46                     47                     48
                      A                      A                      A
 Frequencies --   1440.5640              1461.7391              1482.2854
 Red. masses --      3.2878                 1.2533                 1.3802
 Frc consts  --      4.0199                 1.5777                 1.7867
 IR Inten    --      6.6726                14.5967                10.8296

                     49                     50                     51
                      A                      A                      A
 Frequencies --   1511.0289              1514.1232              1523.8505
 Red. masses --      2.0522                 1.0434                 1.0444
 Frc consts  --      2.7606                 1.4093                 1.4289
 IR Inten    --    256.5793                 6.8370                 7.9595

                     52                     53                     54
                      A                      A                      A
 Frequencies --   1531.7061              1534.1908              1576.8159
 Red. masses --      1.0737                 1.2182                 3.4656
 Frc consts  --      1.4842                 1.6894                 5.0768
 IR Inten    --     13.7644                 4.0307               554.4433

                     55                     56                     57
                      A                      A                      A
 Frequencies --   1628.6081              1664.8888              1744.7291
 Red. masses --      5.8747                 9.5975                 1.0614
 Frc consts  --      9.1806                15.6739                 1.9036
 IR Inten    --     80.5878               129.1327                32.2084

                     58                     59                     60
                      A                      A                      A
 Frequencies --   1762.1271              1797.7797              3083.7738
 Red. masses --     12.2502                11.1027                 1.0331
 Frc consts  --     22.4113                21.1423                 5.7883
 IR Inten    --    752.4612               381.0413                32.2852

                     61                     62                     63
                      A                      A                      A
 Frequencies --   3086.2359              3147.9137              3149.2741
 Red. masses --      1.0338                 1.1062                 1.1059
 Frc consts  --      5.8017                 6.4583                 6.4622
 IR Inten    --     32.1208                10.9461                17.8918

                     64                     65                     66
                      A                      A                      A
 Frequencies --   3195.5704              3205.8686              3434.4841
 Red. masses --      1.1043                 1.1029                 1.0507
 Frc consts  --      6.6441                 6.6787                 7.3021
 IR Inten    --      1.6799                 0.6973                 6.8321

                     67                     68                     69
                      A                      A                      A
 Frequencies --   3524.8939              3575.9081              3658.4208
 Red. masses --      1.0915                 1.0767                 1.0805
 Frc consts  --      7.9907                 8.1117                 8.5205
 IR Inten    --      2.3373                32.9204                83.8714

 - Thermochemistry -
 -------------------
 Temperature   298.150 Kelvin.  Pressure   1.00000 Atm.
 Atom     1 has atomic number  6 and mass  12.00000

 Molecular mass:   210.08652 amu.
 Principal axes and moments of inertia in atomic units:
                           1         2         3
     Eigenvalues --  1582.588244185.751465733.66423
           X            0.99995   0.00972   0.00049
           Y           -0.00972   0.99995  -0.00098
           Z           -0.00050   0.00098   1.00000
 This molecule is an asymmetric top.
 Rotational symmetry number  1.
 Warning -- assumption of classical behavior for rotation
           may cause significant error
 Rotational temperatures (Kelvin)      0.05473     0.02069     0.01511
 Rotational constants (GHZ):           1.14037     0.43116     0.31476
 Zero-point vibrational energy     513722.7 (Joules/Mol)
                                  122.78267 (Kcal/Mol)
 Warning -- explicit consideration of  21 degrees of freedom as
           vibrations may cause significant error
 Vibrational temperatures:     90.38   109.21   148.71   157.17   178.11
          (Kelvin)            195.50   214.69   260.10   289.17   373.39
                              402.63   433.34   453.23   479.04   517.46
                              579.16   599.11   612.82   711.91   730.81
                              773.21   893.91   960.00   984.85  1032.20
                             1054.25  1073.30  1152.07  1204.29  1401.64
                             1410.34  1452.96  1532.72  1551.66  1640.95
                             1680.45  1683.98  1734.97  1793.49  1826.64
                             1848.77  1889.22  1960.89  1984.91  2042.28
                             2072.65  2103.12  2132.68  2174.03  2178.49
                             2192.48  2203.78  2207.36  2268.69  2343.20
                             2395.40  2510.28  2535.31  2586.60  4436.86
                             4440.41  4529.15  4531.10  4597.71  4612.53
                             4941.46  5071.54  5144.93  5263.65

 Zero-point correction=                           0.195667 (Hartree/Particle)
 Thermal correction to Energy=                    0.209904
 Thermal correction to Enthalpy=                  0.210849
 Thermal correction to Gibbs Free Energy=         0.154718
 Sum of electronic and zero-point Energies=           -751.588510
 Sum of electronic and thermal Energies=              -751.574273
 Sum of electronic and thermal Enthalpies=            -751.573329
 Sum of electronic and thermal Free Energies=         -751.629459

                     E (Thermal)             CV                S
                      KCal/Mol        Cal/Mol-Kelvin    Cal/Mol-Kelvin
 Total                  131.717             51.931            118.136
 Electronic               0.000              0.000              0.000
 Translational            0.889              2.981             41.931
 Rotational               0.889              2.981             32.007
 Vibrational            129.940             45.970             44.198
 Vibration     1          0.597              1.972              4.367
 Vibration     2          0.599              1.965              3.994
 Vibration     3          0.605              1.947              3.390
 Vibration     4          0.606              1.942              3.282
 Vibration     5          0.610              1.929              3.040
 Vibration     6          0.614              1.918              2.861
 Vibration     7          0.618              1.904              2.682
 Vibration     8          0.630              1.866              2.320
 Vibration     9          0.638              1.838              2.124
 Vibration    10          0.668              1.747              1.665
 Vibration    11          0.680              1.711              1.535
 Vibration    12          0.693              1.671              1.410
 Vibration    13          0.702              1.645              1.336
 Vibration    14          0.715              1.610              1.246
 Vibration    15          0.734              1.555              1.124
 Vibration    16          0.768              1.465              0.953
 Vibration    17          0.780              1.435              0.904
 Vibration    18          0.788              1.414              0.872
 Vibration    19          0.850              1.262              0.671
 Vibration    20          0.863              1.232              0.639
 Vibration    21          0.892              1.167              0.571

 Optimization completed.
    -- Stationary point found.
 Normal termination of Gaussian 16 at Mon Jan  4 09:47:50 2021.

 ----------------------------------------------------------------------
 # B3LYP/6-311++G(d,p) empiricaldispersion=gd3bj scf=xqc pop=npa geom=c
 heck
 ----------------------------------------------------------------------

 -----------------------------------
 CID_96255_JID_5153_Energie_neutraal
 -----------------------------------
 Structure from the checkpoint file:  "JID_5153.chk"
 Charge =  0 Multiplicity = 1

 SCF Done:  E(RB3LYP) =  -752.006659645     A.U. after   16 cycles
 Normal termination of Gaussian 16 at Mon Jan  4 09:50:14 2021.

 ----------------------------------------------------------------------
 # B3LYP/6-311++G(d,p) empiricaldispersion=gd3bj scf=xqc pop=npa geom=c
 heck
 ----------------------------------------------------------------------

 ---------------------------------
 CID_96255_JID_5153_Energie_kation
 ---------------------------------
 Structure from the checkpoint file:  "JID_5153.chk"
 Charge =  1 Multiplicity = 2

 SCF Done:  E(UB3LYP) =  -751.721832918     A.U. after   23 cycles
 Normal termination of Gaussian 16 at Mon Jan  4 09:54:51 2021.
 Gaussian 16:  ES64L-G16RevA.03 25-Dec-2016

 ----------------------------------------------------------------------
 # B3LYP/6-311++G(d,p) empiricaldispersion=gd3bj scf=xqc pop=npa geom=c
 heck
 ----------------------------------------------------------------------

 --------------------------------
 CID_96255_JID_5153_Energie_anion
 --------------------------------
 Structure from the checkpoint file:  "JID_5153.chk"
 Charge = -1 Multiplicity = 2

                         Standard orientation:
 ---------------------------------------------------------------------
 Center     Atomic      Atomic             Coordinates (Angstroms)
 Number     Number       Type             X           Y           Z
 ---------------------------------------------------------------------
      1          6           0       -0.442538    2.811406   -0.013261
      2          7           0       -0.661428    1.368126   -0.010291
      3          6           0        0.374591    0.469189   -0.021640
      4          6           0        0.140564   -0.886687   -0.014815
      5          6           0       -1.152446   -1.481420    0.002367
      6          8           0       -1.404107   -2.683490    0.010017
      7          7           0       -2.166924   -0.483072    0.006950
      8          6           0       -1.978155    0.905437    0.004417
      9          8           0       -2.920676    1.684896    0.014266
     10          6           0       -3.562449   -0.923992    0.020323
     11          7           0        1.412562   -1.466820   -0.015319
     12          6           0        2.301858   -0.434212   -0.035197
     13          7           0        1.710583    0.762617   -0.029588
     14          7           0        3.664632   -0.615261   -0.088825
     15          7           0        4.496109    0.514064    0.118232
     16          1           0       -0.879744    3.258778    0.882798
     17          1           0        0.632894    2.982883   -0.035646
     18          1           0       -0.916897    3.259424   -0.889649
     19          1           0       -3.554363   -2.012158    0.017384
     20          1           0       -4.065883   -0.544899    0.912815
     21          1           0       -4.083970   -0.539556   -0.859310
     22          1           0        1.597524   -2.455542   -0.099121
     23          1           0        4.019401   -1.429826    0.397393
     24          1           0        4.568758    0.991481   -0.779155
     25          1           0        4.003249    1.162276    0.736950
 ---------------------------------------------------------------------

 SCF Done:  E(UB3LYP) =  -752.000117221     A.U. after   33 cycles
 SCF Done:  E(UB3LYP) =  -752.000117221     a.u. after    1 cycles

 The electronic state is 2-A.
 Alpha  occ. eigenvalues --  -19.00614 -18.99858 -14.28265 -14.27569 -14.27147
 Alpha  occ. eigenvalues --  -14.26195 -14.23689 -14.21207 -10.22085 -10.18990
 Alpha  occ. eigenvalues --  -10.18734 -10.15540 -10.11640 -10.11278 -10.10893
 Alpha  occ. eigenvalues --   -0.98356  -0.95243  -0.94306  -0.89367  -0.87311
 Alpha  occ. eigenvalues --   -0.84513  -0.79009  -0.71915  -0.67701  -0.63170
 Alpha  occ. eigenvalues --   -0.62192  -0.55956  -0.55120  -0.52168  -0.50550
 Alpha  occ. eigenvalues --   -0.45024  -0.43458  -0.41634  -0.41210  -0.40658
 Alpha  occ. eigenvalues --   -0.37595  -0.37114  -0.36575  -0.36301  -0.35331
 Alpha  occ. eigenvalues --   -0.35116  -0.33121  -0.31296  -0.30654  -0.30520
 Alpha  occ. eigenvalues --   -0.29630  -0.24775  -0.21767  -0.21060  -0.20310
 Alpha  occ. eigenvalues --   -0.18593  -0.18277  -0.17042  -0.16695  -0.10969
 Alpha  occ. eigenvalues --    0.04269
 Alpha virt. eigenvalues --    0.06424   0.06957   0.07234   0.08100   0.09334
 Alpha virt. eigenvalues --    0.10237   0.10655   0.10680   0.10845   0.11666
 Alpha virt. eigenvalues --    0.12127   0.12935   0.13805   0.14266   0.14592

  Beta  occ. eigenvalues --  -19.00610 -18.99844 -14.28262 -14.27566 -14.27087
  Beta  occ. eigenvalues --  -14.26115 -14.23656 -14.21184 -10.22085 -10.18981
  Beta  occ. eigenvalues --  -10.18724 -10.15528 -10.11613 -10.11271 -10.10894
  Beta  occ. eigenvalues --   -0.98345  -0.95204  -0.94273  -0.89315  -0.87274
  Beta  occ. eigenvalues --   -0.84499  -0.78938  -0.71830  -0.67632  -0.63127
  Beta  occ. eigenvalues --   -0.62158  -0.55914  -0.55076  -0.52074  -0.50490
  Beta  occ. eigenvalues --   -0.44971  -0.43394  -0.41580  -0.41155  -0.40623
  Beta  occ. eigenvalues --   -0.37486  -0.37063  -0.36550  -0.36280  -0.35287
  Beta  occ. eigenvalues --   -0.35091  -0.33099  -0.31271  -0.30644  -0.30496
  Beta  occ. eigenvalues --   -0.29588  -0.24721  -0.21732  -0.20993  -0.20299
  Beta  occ. eigenvalues --   -0.18558  -0.18246  -0.17022  -0.16653  -0.10905
  Beta virt. eigenvalues --    0.06488   0.07037   0.07414   0.08182   0.08964
  Beta virt. eigenvalues --    0.09467   0.10655   0.10786   0.10927   0.11185
  Beta virt. eigenvalues --    0.11800   0.12427   0.13212   0.13927   0.14438

 Mulliken charges and spin densities:
               1          2
     1  C    0.684309  -0.947486
     2  N   -0.198067   0.004655
     3  C    2.017389  -2.328172
     4  C    0.184717   0.366027
     5  C    1.076413  -1.201934
     6  O   -0.363666   0.015866
     7  N   -0.187561  -0.022306
     8  C    0.376643  -0.279944
     9  O   -0.373912   0.019905
    10  C   -0.148775  -0.055786
    11  N   -0.062569  -0.272548
    12  C   -2.120675   2.280703
    13  N   -0.132591  -0.099887
    14  N   -0.151616  -0.057013
    15  N   -0.546043   0.258037
    16  H   -0.106359   0.291363
    17  H    0.014171   0.158170
    18  H   -0.078575   0.260396
    19  H    0.165213   0.028387
    20  H    0.118577   0.058913
    21  H    0.119316   0.058731
    22  H   -0.447778   0.806569
    23  H   -0.821389   1.135583
    24  H   -0.085573   0.354206
    25  H    0.068400   0.167563
 Sum of Mulliken charges =  -1.00000   1.00000

 Dipole moment (field-independent basis, Debye):
    X=             -7.1236    Y=              3.6370    Z=             -1.0432  Tot=              8.0660
 Quadrupole moment (field-independent basis, Debye-Ang):
   XX=           -165.1113   YY=           -141.0740   ZZ=           -105.8669
   XY=             18.1243   XZ=             -4.4647   YZ=              2.5866

 Summary of Natural Population Analysis:

                                       Natural Population
                Natural  -----------------------------------------------
    Atom  No    Charge         Core      Valence    Rydberg      Total
 -----------------------------------------------------------------------
      C    1   -0.17481      0.99964     2.16785    0.00732     3.17481
      N    2   -0.23282      0.99960     2.72455    0.00868     3.73282
      C    3    0.19709      0.99944     1.78856    0.01490     2.80291
      C    4   -0.02147      0.99939     2.00927    0.01282     3.02147
      C    5    0.32000      0.99957     1.65835    0.02208     2.68000
      O    6   -0.32319      0.99988     3.31771    0.00560     4.32319
      N    7   -0.25582      0.99964     2.74870    0.00748     3.75582
      C    8    0.41448      0.99967     1.56450    0.02135     2.58552
      O    9   -0.33160      0.99988     3.32600    0.00572     4.33160
      C   10   -0.17975      0.99965     2.17311    0.00699     3.17975
      N   11   -0.27130      0.99964     2.76130    0.01037     3.77130
      C   12    0.30378      0.99961     1.67947    0.01714     2.69622
      N   13   -0.29854      0.99966     2.78848    0.01039     3.79854
      N   14   -0.22755      0.99966     2.71377    0.01412     3.72755
      N   15   -0.31234      0.99978     2.80148    0.01108     3.81234
      H   16    0.10101      0.00000     0.39747    0.00152     0.39899
      H   17    0.11150      0.00000     0.38660    0.00190     0.38850
      H   18    0.10063      0.00000     0.39792    0.00145     0.39937
      H   19    0.11344      0.00000     0.38549    0.00107     0.38656
      H   20    0.09898      0.00000     0.39983    0.00119     0.40102
      H   21    0.09906      0.00000     0.39973    0.00122     0.40094
      H   22    0.22029      0.00000     0.26820    0.01151     0.27971
      H   23    0.19986      0.00000     0.26822    0.03192     0.30014
      H   24    0.17433      0.00000     0.32278    0.00289     0.32567
      H   25    0.17474      0.00000     0.32213    0.00313     0.32526
 =======================================================================
   * Total *   -0.00000     14.99469    39.77147    0.23383    55.00000

 Normal termination of Gaussian 16 at Mon Jan  4 10:01:35 2021.
