 Gaussian 16, Revision A.03,

 -----------------------------------------------------------
 # opt freq B3LYP/6-31G(d) empiricaldispersion=gd3bj scf=xqc
 -----------------------------------------------------------

 -------------------------------
 CID_144988228_JID_6029_neutraal
 -------------------------------
 Symbolic Z-matrix:
 Charge =  0 Multiplicity = 1

 SCF Done:  E(RB3LYP) =  -652.442290388     A.U. after   27 cycles
 SCF Done:  E(RB3LYP) =  -652.579188446     A.U. after   25 cycles
 SCF Done:  E(RB3LYP) =  -652.833422450     A.U. after   30 cycles
 SCF Done:  E(RB3LYP) =  -653.135746687     A.U. after   22 cycles
 SCF Done:  E(RB3LYP) =  -653.339022370     A.U. after   17 cycles
 SCF Done:  E(RB3LYP) =  -653.559436278     A.U. after   15 cycles
 SCF Done:  E(RB3LYP) =  -653.675466232     A.U. after   14 cycles
 SCF Done:  E(RB3LYP) =  -653.737151214     A.U. after   13 cycles
 SCF Done:  E(RB3LYP) =  -653.762870969     A.U. after   13 cycles
 SCF Done:  E(RB3LYP) =  -653.771875704     A.U. after   13 cycles
 SCF Done:  E(RB3LYP) =  -653.781598587     A.U. after   11 cycles
 SCF Done:  E(RB3LYP) =  -653.781628199     A.U. after   11 cycles
 SCF Done:  E(RB3LYP) =  -653.781642650     A.U. after   10 cycles
 SCF Done:  E(RB3LYP) =  -653.781643399     A.U. after    9 cycles
 SCF Done:  E(RB3LYP) =  -653.781647991     A.U. after    8 cycles
 SCF Done:  E(RB3LYP) =  -653.781648535     A.U. after    8 cycles
 Optimization completed.
    -- Stationary point found.
 Normal termination of Gaussian 16 at Thu Dec 10 21:28:08 2020.

 --------------------------------------------------------------------
 #N Geom=AllCheck Guess=TCheck SCRF=Check GenChk RB3LYP/6-31G(d) Freq
 --------------------------------------------------------------------

 Structure from the checkpoint file:  "JID_6029.chk"
 -------------------------------
 CID_144988228_JID_6029_neutraal
 -------------------------------
 Charge =  0 Multiplicity = 1

 SCF Done:  E(RB3LYP) =  -653.781648535     A.U. after    1 cycles

  Exact polarizability: 195.552  -6.794 129.335  -1.944   0.141 127.625
 Approx polarizability: 262.475 -17.761 213.820  -2.739   0.539 211.936

                      1                      2                      3
                      A                      A                      A
 Frequencies --     46.8838                62.1468               147.5703
 Red. masses --      3.6596                 2.7543                 3.7013
 Frc consts  --      0.0047                 0.0063                 0.0475
 IR Inten    --      0.5111                 0.1844                 0.0308

                      4                      5                      6
                      A                      A                      A
 Frequencies --    156.0794               188.3136               196.1277
 Red. masses --      4.4585                 1.3669                 2.3892
 Frc consts  --      0.0640                 0.0286                 0.0541
 IR Inten    --      0.7372                 0.0304                 0.1502

                      7                      8                      9
                      A                      A                      A
 Frequencies --    202.0535               229.9970               239.2556
 Red. masses --      2.5401                 1.1199                 2.3907
 Frc consts  --      0.0611                 0.0349                 0.0806
 IR Inten    --      1.4061                 0.0806                 0.3879

                     10                     11                     12
                      A                      A                      A
 Frequencies --    254.4512               264.5028               311.2190
 Red. masses --      1.8226                 1.3745                 3.5233
 Frc consts  --      0.0695                 0.0567                 0.2011
 IR Inten    --      0.0263                 0.6488                 0.3009

                     13                     14                     15
                      A                      A                      A
 Frequencies --    335.8347               364.2585               376.8509
 Red. masses --      3.4761                 2.7327                 3.2096
 Frc consts  --      0.2310                 0.2136                 0.2686
 IR Inten    --      1.6119                 2.1164                 1.0457

                     16                     17                     18
                      A                      A                      A
 Frequencies --    395.9353               436.3836               443.1892
 Red. masses --      2.8187                 2.7832                 2.8234
 Frc consts  --      0.2603                 0.3123                 0.3267
 IR Inten    --      1.6351                 2.7710                 1.1186

                     19                     20                     21
                      A                      A                      A
 Frequencies --    473.1505               536.1847               556.1643
 Red. masses --      3.8211                 4.6293                 3.0761
 Frc consts  --      0.5040                 0.7841                 0.5606
 IR Inten    --      2.3252                 3.1329                 0.8429

                     22                     23                     24
                      A                      A                      A
 Frequencies --    606.3024               626.6751               697.1898
 Red. masses --      3.1545                 3.8846                 2.8199
 Frc consts  --      0.6832                 0.8988                 0.8076
 IR Inten    --      5.3921                10.7394                 5.7674

                     25                     26                     27
                      A                      A                      A
 Frequencies --    699.1650               722.1837               740.8706
 Red. masses --      4.0530                 2.1658                 4.5085
 Frc consts  --      1.1673                 0.6655                 1.4580
 IR Inten    --      1.5553                26.3741                 4.4084

                     28                     29                     30
                      A                      A                      A
 Frequencies --    766.8537               791.7626               828.5800
 Red. masses --      2.1224                 2.8182                 3.0466
 Frc consts  --      0.7353                 1.0409                 1.2324
 IR Inten    --      0.8218                 1.7625                 5.0290

                     31                     32                     33
                      A                      A                      A
 Frequencies --    849.2841               855.1136               896.7949
 Red. masses --      1.8022                 3.8943                 2.5284
 Frc consts  --      0.7659                 1.6778                 1.1981
 IR Inten    --     10.5887                 2.0535                 4.4555

                     34                     35                     36
                      A                      A                      A
 Frequencies --    905.2400               929.2754               933.9001
 Red. masses --      2.4023                 2.4387                 2.7355
 Frc consts  --      1.1599                 1.2408                 1.4057
 IR Inten    --      5.0552                 9.5263                 0.9650

                     37                     38                     39
                      A                      A                      A
 Frequencies --    934.6958               942.5808               951.5909
 Red. masses --      2.5929                 1.1763                 2.0551
 Frc consts  --      1.3347                 0.6157                 1.0964
 IR Inten    --     10.3516                 2.9067                 6.2129

                     40                     41                     42
                      A                      A                      A
 Frequencies --    973.7971               976.7519               984.4451
 Red. masses --      1.6508                 1.5521                 1.3274
 Frc consts  --      0.9223                 0.8725                 0.7580
 IR Inten    --      0.7336                 0.0248                 0.0552

                     43                     44                     45
                      A                      A                      A
 Frequencies --    999.0855              1020.0129              1076.0730
 Red. masses --      2.8663                 2.4282                 1.8245
 Frc consts  --      1.6857                 1.4885                 1.2447
 IR Inten    --      1.6650                 5.5323                38.4450

                     46                     47                     48
                      A                      A                      A
 Frequencies --   1087.4446              1124.7920              1132.0518
 Red. masses --      2.3185                 2.2834                 2.2487
 Frc consts  --      1.6153                 1.7021                 1.6979
 IR Inten    --     12.1121                32.5542                 1.3290

                     49                     50                     51
                      A                      A                      A
 Frequencies --   1135.2332              1189.9346              1198.0160
 Red. masses --      2.1154                 1.8617                 1.9228
 Frc consts  --      1.6063                 1.5531                 1.6260
 IR Inten    --     11.6000                 1.2891                 5.0653

                     52                     53                     54
                      A                      A                      A
 Frequencies --   1221.2185              1227.3905              1235.2002
 Red. masses --      2.0918                 2.4071                 1.5713
 Frc consts  --      1.8381                 2.1365                 1.4125
 IR Inten    --      3.1422                10.1931                 0.8614

                     55                     56                     57
                      A                      A                      A
 Frequencies --   1258.3389              1267.7001              1300.7591
 Red. masses --      1.2271                 1.4944                 1.3395
 Frc consts  --      1.1448                 1.4149                 1.3353
 IR Inten    --      0.2021                 2.2657                19.0660

                     58                     59                     60
                      A                      A                      A
 Frequencies --   1338.1333              1355.5035              1358.2826
 Red. masses --      1.6226                 1.4909                 1.3333
 Frc consts  --      1.7119                 1.6140                 1.4492
 IR Inten    --      5.0202                 0.7935                 2.5098

                     61                     62                     63
                      A                      A                      A
 Frequencies --   1398.2144              1400.9546              1415.3171
 Red. masses --      1.4670                 1.3491                 1.4033
 Frc consts  --      1.6897                 1.5601                 1.6562
 IR Inten    --     16.4878                 2.8062                 2.8018

                     64                     65                     66
                      A                      A                      A
 Frequencies --   1416.2094              1436.0231              1438.2319
 Red. masses --      1.2408                 1.2771                 1.2328
 Frc consts  --      1.4662                 1.5517                 1.5025
 IR Inten    --      4.7217                11.5707                10.6466

                     67                     68                     69
                      A                      A                      A
 Frequencies --   1459.1075              1467.8231              1513.8514
 Red. masses --      1.3097                 1.5014                 1.0426
 Frc consts  --      1.6429                 1.9058                 1.4078
 IR Inten    --      3.2039                 8.0883                 0.5872

                     70                     71                     72
                      A                      A                      A
 Frequencies --   1514.9168              1524.1141              1526.5955
 Red. masses --      1.0519                 1.0460                 1.0497
 Frc consts  --      1.4223                 1.4316                 1.4413
 IR Inten    --      5.7284                 3.8684                 0.2694

                     73                     74                     75
                      A                      A                      A
 Frequencies --   1528.7216              1546.0579              1647.1505
 Red. masses --      1.0448                 1.0582                 7.9670
 Frc consts  --      1.4386                 1.4902                12.7354
 IR Inten    --      9.0758                 5.8387                18.4150

                     76                     77                     78
                      A                      A                      A
 Frequencies --   1699.3438              1710.9595              1724.0736
 Red. masses --      5.0718                 7.6845                10.6198
 Frc consts  --      8.6294                13.2540                18.5985
 IR Inten    --      1.0158                 2.2162                94.8189

                     79                     80                     81
                      A                      A                      A
 Frequencies --   3042.5443              3046.3528              3051.3002
 Red. masses --      1.0793                 1.0357                 1.0393
 Frc consts  --      5.8867                 5.6632                 5.7011
 IR Inten    --     20.4891                33.4686                33.4015

                     82                     83                     84
                      A                      A                      A
 Frequencies --   3052.5265              3084.5124              3098.8876
 Red. masses --      1.0433                 1.0863                 1.0867
 Frc consts  --      5.7275                 6.0892                 6.1485
 IR Inten    --      9.5533                50.4274                28.3972

                     85                     86                     87
                      A                      A                      A
 Frequencies --   3110.2276              3111.0716              3115.4020
 Red. masses --      1.1015                 1.1029                 1.1024
 Frc consts  --      6.2779                 6.2894                 6.3040
 IR Inten    --     11.8673                28.7246                51.7107

                     88                     89                     90
                      A                      A                      A
 Frequencies --   3121.2653              3129.7095              3134.1551
 Red. masses --      1.0876                 1.1020                 1.1012
 Frc consts  --      6.2429                 6.3597                 6.3732
 IR Inten    --     15.5984                 5.3528                40.3027

                     91                     92                     93
                      A                      A                      A
 Frequencies --   3155.4500              3166.9693              3174.6492
 Red. masses --      1.0841                 1.0867                 1.0900
 Frc consts  --      6.3598                 6.4215                 6.4723
 IR Inten    --      4.2046                 4.7872                25.2533

                     94                     95                     96
                      A                      A                      A
 Frequencies --   3179.3548              3191.6325              3193.4442
 Red. masses --      1.0937                 1.0957                 1.0948
 Frc consts  --      6.5139                 6.5764                 6.5780
 IR Inten    --     50.9726                39.5866                 8.9212

 - Thermochemistry -
 -------------------
 Temperature   298.150 Kelvin.  Pressure   1.00000 Atm.
 Atom     1 has atomic number  6 and mass  12.00000

 Molecular mass:   214.14700 amu.
 Principal axes and moments of inertia in atomic units:
                           1         2         3
     Eigenvalues --  1392.353795311.815925438.79454
           X            0.99997   0.00747   0.00076
           Y           -0.00746   0.99996  -0.00568
           Z           -0.00080   0.00568   0.99998
 This molecule is an asymmetric top.
 Rotational symmetry number  1.
 Warning -- assumption of classical behavior for rotation
           may cause significant error
 Rotational temperatures (Kelvin)      0.06221     0.01631     0.01593
 Rotational constants (GHZ):           1.29618     0.33976     0.33183
 Zero-point vibrational energy     770884.9 (Joules/Mol)
                                  184.24592 (Kcal/Mol)
 Warning -- explicit consideration of  22 degrees of freedom as
           vibrations may cause significant error
 Vibrational temperatures:     67.46    89.42   212.32   224.56   270.94
          (Kelvin)            282.18   290.71   330.91   344.24   366.10
                              380.56   447.77   483.19   524.09   542.20
                              569.66   627.86   637.65   680.76   771.45
                              800.20   872.33   901.65  1003.10  1005.94
                             1039.06  1065.95  1103.33  1139.17  1192.14
                             1221.93  1230.32  1290.29  1302.44  1337.02
                             1343.67  1344.82  1356.16  1369.13  1401.08
                             1405.33  1416.40  1437.46  1467.57  1548.23
                             1564.59  1618.32  1628.77  1633.35  1712.05
                             1723.68  1757.06  1765.94  1777.18  1810.47
                             1823.94  1871.50  1925.28  1950.27  1954.27
                             2011.72  2015.66  2036.33  2037.61  2066.12
                             2069.29  2099.33  2111.87  2178.09  2179.63
                             2192.86  2196.43  2199.49  2224.43  2369.88
                             2444.98  2461.69  2480.56  4377.54  4383.02
                             4390.14  4391.90  4437.93  4458.61  4474.92
                             4476.14  4482.37  4490.80  4502.95  4509.35
                             4539.99  4556.56  4567.61  4574.38  4592.05
                             4594.65

 Zero-point correction=                           0.293615 (Hartree/Particle)
 Thermal correction to Energy=                    0.307979
 Thermal correction to Enthalpy=                  0.308924
 Thermal correction to Gibbs Free Energy=         0.253502
 Sum of electronic and zero-point Energies=           -653.488034
 Sum of electronic and thermal Energies=              -653.473669
 Sum of electronic and thermal Enthalpies=            -653.472725
 Sum of electronic and thermal Free Energies=         -653.528147

                     E (Thermal)             CV                S
                      KCal/Mol        Cal/Mol-Kelvin    Cal/Mol-Kelvin
 Total                  193.260             58.518            116.645
 Electronic               0.000              0.000              0.000
 Translational            0.889              2.981             41.988
 Rotational               0.889              2.981             32.064
 Vibrational            191.483             52.556             42.593
 Vibration     1          0.595              1.979              4.945
 Vibration     2          0.597              1.972              4.388
 Vibration     3          0.617              1.905              2.703
 Vibration     4          0.620              1.896              2.597
 Vibration     5          0.633              1.856              2.244
 Vibration     6          0.636              1.845              2.169
 Vibration     7          0.639              1.837              2.114
 Vibration     8          0.652              1.795              1.879
 Vibration     9          0.657              1.780              1.808
 Vibration    10          0.665              1.755              1.700
 Vibration    11          0.671              1.738              1.632
 Vibration    12          0.700              1.652              1.356
 Vibration    13          0.717              1.604              1.232
 Vibration    14          0.738              1.546              1.104
 Vibration    15          0.747              1.519              1.052
 Vibration    16          0.763              1.479              0.978
 Vibration    17          0.797              1.391              0.838
 Vibration    18          0.803              1.376              0.817
 Vibration    19          0.830              1.310              0.729
 Vibration    20          0.891              1.170              0.574
 Vibration    21          0.912              1.126              0.532
 Vibration    22          0.965              1.018              0.439

                           ! Non-Optimized Parameters !
 Normal termination of Gaussian 16 at Thu Dec 10 21:40:28 2020.

 ----------------------------------------------------------------------
 # B3LYP/6-311++G(d,p) empiricaldispersion=gd3bj scf=xqc pop=npa geom=c
 heck
 ----------------------------------------------------------------------

 ---------------------------------------
 CID_144988228_JID_6029_Energie_neutraal
 ---------------------------------------
 Structure from the checkpoint file:  "JID_6029.chk"
 Charge =  0 Multiplicity = 1

 SCF Done:  E(RB3LYP) =  -653.950566394     A.U. after   15 cycles
 Normal termination of Gaussian 16 at Thu Dec 10 21:46:06 2020.

 ----------------------------------------------------------------------
 # B3LYP/6-311++G(d,p) empiricaldispersion=gd3bj scf=xqc pop=npa geom=c
 heck
 ----------------------------------------------------------------------

 -------------------------------------
 CID_144988228_JID_6029_Energie_kation
 -------------------------------------
 Structure from the checkpoint file:  "JID_6029.chk"
 Charge =  1 Multiplicity = 2

 SCF Done:  E(UB3LYP) =  -653.672943215     A.U. after   26 cycles
 Normal termination of Gaussian 16 at Thu Dec 10 22:00:19 2020.
 Gaussian 16:  ES64L-G16RevA.03 25-Dec-2016

 ----------------------------------------------------------------------
 # B3LYP/6-311++G(d,p) empiricaldispersion=gd3bj scf=xqc pop=npa geom=c
 heck
 ----------------------------------------------------------------------

 ------------------------------------
 CID_144988228_JID_6029_Energie_anion
 ------------------------------------
 Structure from the checkpoint file:  "JID_6029.chk"
 Charge = -1 Multiplicity = 2

                         Standard orientation:
 ---------------------------------------------------------------------
 Center     Atomic      Atomic             Coordinates (Angstroms)
 Number     Number       Type             X           Y           Z
 ---------------------------------------------------------------------
      1          6           0        2.010541    2.083857    0.020449
      2          6           0        0.978987    0.974597    0.068762
      3          6           0       -0.416484    1.600908    0.093459
      4          7           0       -1.574919    1.071468    0.062610
      5          6           0       -1.833751   -0.319919   -0.003212
      6          6           0       -0.909482   -1.293729   -0.022569
      7          6           0        0.573790   -1.082076   -0.007711
      8          6           0       -3.318286   -0.627390   -0.040724
      9          6           0       -4.011509   -0.120196    1.234036
     10          6           0       -3.963508   -0.019436   -1.296435
     11          6           0        3.496918   -0.803450    0.622857
     12          6           0        2.515376   -0.524457    1.504060
     13          6           0        1.104591   -0.167104    1.137127
     14          7           0        1.010504   -0.069034   -1.046838
     15          6           0        2.321016   -0.353912   -1.551979
     16          6           0        3.401497   -0.722462   -0.835266
     17          1           0        3.030865    1.707804    0.061626
     18          1           0        1.885956    2.667464   -0.899597
     19          1           0        1.856620    2.758303    0.871156
     20          1           0       -0.406377    2.694347    0.160163
     21          1           0       -1.251722   -2.325461   -0.055806
     22          1           0        1.101771   -2.031711   -0.106090
     23          1           0       -3.429679   -1.718412   -0.086621
     24          1           0       -3.877713    0.961871    1.330203
     25          1           0       -5.085851   -0.335565    1.202752
     26          1           0       -3.591818   -0.596647    2.127392
     27          1           0       -3.507177   -0.422053   -2.207397
     28          1           0       -5.037771   -0.236113   -1.323203
     29          1           0       -3.828767    1.066824   -1.300396
     30          1           0        4.471428   -1.082450    1.017386
     31          1           0        2.741195   -0.587187    2.565812
     32          1           0        0.467404   -0.070834    2.020276
     33          1           0        2.403846   -0.274308   -2.634529
     34          1           0        4.310520   -0.944297   -1.390649
 ---------------------------------------------------------------------

 SCF Done:  E(UB3LYP) =  -653.955448035     A.U. after   27 cycles

 The electronic state is 2-A.
 Alpha  occ. eigenvalues --  -14.15634 -14.14175 -10.06744 -10.05758 -10.04920
 Alpha  occ. eigenvalues --  -10.04297 -10.04273 -10.04270 -10.03885 -10.03721
 Alpha  occ. eigenvalues --  -10.03562 -10.02863 -10.02791 -10.02476 -10.02369
 Alpha  occ. eigenvalues --  -10.00878  -0.81152  -0.76161  -0.67687  -0.65626
 Alpha  occ. eigenvalues --   -0.64467  -0.63041  -0.58561  -0.56381  -0.53506
 Alpha  occ. eigenvalues --   -0.51679  -0.49749  -0.47790  -0.45010  -0.39149
 Alpha  occ. eigenvalues --   -0.37269  -0.36943  -0.35728  -0.34306  -0.32716
 Alpha  occ. eigenvalues --   -0.32038  -0.30835  -0.29869  -0.29229  -0.28407
 Alpha  occ. eigenvalues --   -0.27572  -0.27034  -0.26707  -0.25113  -0.24292
 Alpha  occ. eigenvalues --   -0.23559  -0.22821  -0.22237  -0.21563  -0.20803
 Alpha  occ. eigenvalues --   -0.19169  -0.18615  -0.17890  -0.15738  -0.11131
 Alpha  occ. eigenvalues --   -0.09947  -0.07410  -0.06640   0.05043
 Alpha virt. eigenvalues --    0.07876   0.08161   0.08719   0.09906   0.10092
 Alpha virt. eigenvalues --    0.10513   0.10555   0.11420   0.11891   0.12689
 Alpha virt. eigenvalues --    0.12770   0.13289   0.13377   0.14320   0.14691

  Beta  occ. eigenvalues --  -14.15571 -14.14092 -10.06658 -10.05708 -10.04926
  Beta  occ. eigenvalues --  -10.04208 -10.04061 -10.03907 -10.03879 -10.03716
  Beta  occ. eigenvalues --  -10.03521 -10.02845 -10.02786 -10.02420 -10.02112
  Beta  occ. eigenvalues --  -10.00694  -0.80850  -0.75795  -0.67554  -0.65309
  Beta  occ. eigenvalues --   -0.64116  -0.62807  -0.58373  -0.56364  -0.53229
  Beta  occ. eigenvalues --   -0.51354  -0.49501  -0.47192  -0.44918  -0.38919
  Beta  occ. eigenvalues --   -0.37123  -0.36707  -0.35427  -0.34072  -0.32579
  Beta  occ. eigenvalues --   -0.31997  -0.30596  -0.29749  -0.29108  -0.28267
  Beta  occ. eigenvalues --   -0.27411  -0.26829  -0.26669  -0.24986  -0.24041
  Beta  occ. eigenvalues --   -0.23280  -0.22661  -0.22074  -0.21465  -0.20724
  Beta  occ. eigenvalues --   -0.18702  -0.17856  -0.17560  -0.15233  -0.09933
  Beta  occ. eigenvalues --   -0.09623  -0.07253  -0.05719
  Beta virt. eigenvalues --    0.08115   0.08667   0.09652   0.09811   0.10048
  Beta virt. eigenvalues --    0.10276   0.10487   0.10601   0.11358   0.11845
  Beta virt. eigenvalues --    0.12690   0.12741   0.13245   0.13376   0.14267

 Mulliken charges and spin densities:
               1          2
     1  C   -0.181757  -0.027530
     2  C   -0.448829   0.130213
     3  C    0.120062   0.250883
     4  N    0.015259   0.016333
     5  C    0.190541   0.013480
     6  C   -0.705305   0.325694
     7  C   -0.437507  -0.086166
     8  C    0.078643  -0.011422
     9  C   -0.671477   0.004696
    10  C   -0.681267   0.002134
    11  C   -0.178226   0.040173
    12  C   -0.383597   0.132351
    13  C    0.053635   0.033144
    14  N    0.303137  -0.032361
    15  C   -0.335709   0.156775
    16  C   -0.148343   0.025221
    17  H    0.172894  -0.007700
    18  H    0.145245  -0.001289
    19  H    0.101516   0.030214
    20  H    0.119143  -0.022398
    21  H    0.098075  -0.013522
    22  H    0.211456   0.003744
    23  H    0.136943  -0.001180
    24  H    0.161715   0.000293
    25  H    0.111461   0.004877
    26  H    0.112725   0.000192
    27  H    0.122233   0.001192
    28  H    0.109273   0.005330
    29  H    0.159153   0.000680
    30  H    0.129704   0.000155
    31  H    0.087370  -0.008447
    32  H    0.197438   0.047549
    33  H    0.112527  -0.009511
    34  H    0.121871  -0.003799
 Sum of Mulliken charges =  -1.00000   1.00000

 Dipole moment (field-independent basis, Debye):
    X=             -0.7668    Y=             -0.4658    Z=              0.9352  Tot=              1.2960
 Quadrupole moment (field-independent basis, Debye-Ang):
   XX=           -136.2810   YY=           -112.2686   ZZ=           -112.6947
   XY=              4.7561   XZ=             -0.0075   YZ=             -0.9890

 Summary of Natural Population Analysis:

                                       Natural Population
                Natural  -----------------------------------------------
    Atom  No    Charge         Core      Valence    Rydberg      Total
 -----------------------------------------------------------------------
      C    1   -0.29312      0.99962     2.28803    0.00547     3.29312
      C    2    0.05452      0.99955     1.93026    0.01567     2.94548
      C    3    0.15757      0.99957     1.82477    0.01809     2.84243
      N    4   -0.26077      0.99965     2.74896    0.01216     3.76077
      C    5    0.08902      0.99942     1.89542    0.01614     2.91098
      C    6   -0.07661      0.99945     2.06735    0.00981     3.07661
      C    7   -0.00372      0.99958     1.98866    0.01548     3.00372
      C    8   -0.11814      0.99958     2.10960    0.00896     3.11814
      C    9   -0.28174      0.99965     2.27743    0.00465     3.28174
      C   10   -0.28210      0.99965     2.27772    0.00473     3.28210
      C   11   -0.13259      0.99954     2.12315    0.00990     3.13259
      C   12   -0.03439      0.99955     2.02478    0.01006     3.03439
      C   13   -0.12554      0.99952     2.11263    0.01338     3.12554
      N   14   -0.28648      0.99972     2.77203    0.01473     3.78648
      C   15    0.05208      0.99951     1.93448    0.01394     2.94792
      C   16   -0.13730      0.99953     2.12888    0.00888     3.13730
      H   17    0.11104      0.00000     0.38797    0.00099     0.38896
      H   18    0.09860      0.00000     0.40036    0.00103     0.40140
      H   19    0.09895      0.00000     0.40020    0.00085     0.40105
      H   20    0.06664      0.00000     0.43197    0.00139     0.43336
      H   21    0.08918      0.00000     0.40987    0.00095     0.41082
      H   22    0.09716      0.00000     0.40137    0.00147     0.40284
      H   23    0.08787      0.00000     0.41042    0.00171     0.41213
      H   24    0.10547      0.00000     0.39359    0.00095     0.39453
      H   25    0.08670      0.00000     0.41237    0.00093     0.41330
      H   26    0.09641      0.00000     0.40289    0.00070     0.40359
      H   27    0.09863      0.00000     0.40069    0.00068     0.40137
      H   28    0.08623      0.00000     0.41284    0.00093     0.41377
      H   29    0.10549      0.00000     0.39357    0.00094     0.39451
      H   30    0.08987      0.00000     0.40843    0.00171     0.41013
      H   31    0.08845      0.00000     0.41058    0.00096     0.41155
      H   32    0.09985      0.00000     0.39882    0.00134     0.40015
      H   33    0.08214      0.00000     0.41653    0.00133     0.41786
      H   34    0.09063      0.00000     0.40733    0.00204     0.40937
 =======================================================================
   * Total *   -0.00000     15.99310    41.80393    0.20297    58.00000

 Normal termination of Gaussian 16 at Thu Dec 10 22:15:05 2020.
