 Gaussian 16, Revision A.03,

 -----------------------------------------------------------
 # opt freq B3LYP/6-31G(d) empiricaldispersion=gd3bj scf=xqc
 -----------------------------------------------------------

 ------------------------------
 CID_68522826_JID_4015_neutraal
 ------------------------------
 Symbolic Z-matrix:
 Charge =  0 Multiplicity = 1

 SCF Done:  E(RB3LYP) =  -603.611213785     A.U. after   17 cycles
 SCF Done:  E(RB3LYP) =  -603.641437631     A.U. after   14 cycles
 SCF Done:  E(RB3LYP) =  -603.642368231     A.U. after   13 cycles
 SCF Done:  E(RB3LYP) =  -603.642434518     A.U. after   11 cycles
 SCF Done:  E(RB3LYP) =  -603.642439795     A.U. after   10 cycles
 SCF Done:  E(RB3LYP) =  -603.642440797     A.U. after    9 cycles
 SCF Done:  E(RB3LYP) =  -603.642441233     A.U. after    9 cycles
 SCF Done:  E(RB3LYP) =  -603.642443686     A.U. after   12 cycles
 SCF Done:  E(RB3LYP) =  -603.472287287     A.U. after   16 cycles
 SCF Done:  E(RB3LYP) =  -603.642531389     A.U. after   15 cycles
 SCF Done:  E(RB3LYP) =  -603.642671754     A.U. after   14 cycles
 SCF Done:  E(RB3LYP) =  -603.642682013     A.U. after   12 cycles
 SCF Done:  E(RB3LYP) =  -603.642687659     A.U. after   10 cycles
 SCF Done:  E(RB3LYP) =  -603.642689723     A.U. after   10 cycles
 SCF Done:  E(RB3LYP) =  -603.642689755     A.U. after    8 cycles
 SCF Done:  E(RB3LYP) =  -603.642689762     A.U. after    8 cycles
 Optimization completed.
    -- Stationary point found.

 1\1\GINC-NODE373\FOpt\RB3LYP\6-31G(d)\C10H6N4\VSC10255\10-Dec-2020\0\\
 # opt freq B3LYP/6-31G(d) empiricaldispersion=gd3bj scf=xqc\\CID_68522
 826_JID_4015_neutraal\\0,1\C,-1.4151532075,-0.1309620154,-0.1021905106
 \C,-0.8292898597,1.0892589205,-0.2075716847\C,0.6060102222,1.212611835
 4,-0.1938244137\C,1.2630096105,2.4206946033,-0.2317222931\C,2.73464566
 43,2.4844594975,-0.1474203958\N,3.4205029437,3.5465580953,0.0633736643
 \C,3.4361113596,1.1624673681,-0.3028668369\N,4.6752235093,1.1456461353
 ,-0.633707946\N,2.7309352458,-0.0334122809,-0.1272678495\C,1.426690411

 Normal termination of Gaussian 16 at Thu Dec 10 09:16:57 2020.

 --------------------------------------------------------------------
 #N Geom=AllCheck Guess=TCheck SCRF=Check GenChk RB3LYP/6-31G(d) Freq
 --------------------------------------------------------------------

 Structure from the checkpoint file:  "JID_4015.chk"
 ------------------------------
 CID_68522826_JID_4015_neutraal
 ------------------------------
 Charge =  0 Multiplicity = 1

 SCF Done:  E(RB3LYP) =  -603.642689762     A.U. after    1 cycles

  Exact polarizability: 196.182  -5.226 172.608   0.242  -1.535  45.363
 Approx polarizability: 365.047 -21.877 352.994   1.309  -5.803  74.515

                      1                      2                      3
                      A                      A                      A
 Frequencies --     50.5970                87.3473               126.8665
 Red. masses --      6.2670                 5.6801                 6.5260
 Frc consts  --      0.0095                 0.0255                 0.0619
 IR Inten    --      0.3884                 1.1689                 2.0231

                      4                      5                      6
                      A                      A                      A
 Frequencies --    130.4911               217.9647               269.9480
 Red. masses --      9.3224                 6.9068                 5.6688
 Frc consts  --      0.0935                 0.1933                 0.2434
 IR Inten    --      4.5826                 4.6822                 0.8694

                      7                      8                      9
                      A                      A                      A
 Frequencies --    288.7428               364.2826               411.4480
 Red. masses --      5.4120                 5.5837                 7.2018
 Frc consts  --      0.2658                 0.4366                 0.7183
 IR Inten    --      1.6673                 3.6112                 5.5837

                     10                     11                     12
                      A                      A                      A
 Frequencies --    422.0371               453.3601               465.1072
 Red. masses --      7.2572                 5.3872                 3.7862
 Frc consts  --      0.7616                 0.6524                 0.4826
 IR Inten    --      0.7147                 2.9237                 0.1398

                     13                     14                     15
                      A                      A                      A
 Frequencies --    489.8281               493.0191               502.7530
 Red. masses --      7.4738                 3.4004                 7.6265
 Frc consts  --      1.0565                 0.4870                 1.1358
 IR Inten    --      2.9211                 1.0526                 2.3759

                     16                     17                     18
                      A                      A                      A
 Frequencies --    605.4003               648.3783               654.6001
 Red. masses --      4.3597                 6.0910                 5.4929
 Frc consts  --      0.9414                 1.5087                 1.3868
 IR Inten    --     11.1796                 7.7810                16.8370

                     19                     20                     21
                      A                      A                      A
 Frequencies --    701.2278               753.0304               780.6917
 Red. masses --      7.4951                 3.9642                 1.5031
 Frc consts  --      2.1714                 1.3244                 0.5398
 IR Inten    --      0.0717                 3.1851                57.8426

                     22                     23                     24
                      A                      A                      A
 Frequencies --    821.9496               868.3386               877.6958
 Red. masses --      4.8127                 5.6502                 1.7366
 Frc consts  --      1.9157                 2.5101                 0.7882
 IR Inten    --      0.6989                 6.6125                 1.2676

                     25                     26                     27
                      A                      A                      A
 Frequencies --    913.7949               917.1104               938.7574
 Red. masses --      1.3364                 3.5621                 1.2948
 Frc consts  --      0.6575                 1.7652                 0.6723
 IR Inten    --     24.3618                24.5496               100.2656

                     28                     29                     30
                      A                      A                      A
 Frequencies --    990.5723              1010.1436              1014.7299
 Red. masses --      1.2943                 2.8274                 1.3108
 Frc consts  --      0.7483                 1.6998                 0.7952
 IR Inten    --      0.2972                 5.4439                 0.0234

                     31                     32                     33
                      A                      A                      A
 Frequencies --   1016.9306              1120.6801              1157.9861
 Red. masses --      4.6752                 2.9907                 2.2267
 Frc consts  --      2.8486                 2.2130                 1.7592
 IR Inten    --      2.3209                24.0882                19.8133

                     34                     35                     36
                      A                      A                      A
 Frequencies --   1188.4824              1225.1049              1272.4594
 Red. masses --      1.1833                 1.3603                 2.0613
 Frc consts  --      0.9847                 1.2029                 1.9664
 IR Inten    --     12.0658                17.3997                30.1247

                     37                     38                     39
                      A                      A                      A
 Frequencies --   1341.8430              1357.0740              1395.9156
 Red. masses --      1.9314                 2.8812                 2.8507
 Frc consts  --      2.0489                 3.1263                 3.2728
 IR Inten    --     53.1595                32.2269               209.8819

                     40                     41                     42
                      A                      A                      A
 Frequencies --   1427.1542              1481.4109              1546.1743
 Red. masses --      1.8798                 2.3591                 6.4797
 Frc consts  --      2.2558                 3.0503                 9.1269
 IR Inten    --     17.6221                37.7047                 9.4017

                     43                     44                     45
                      A                      A                      A
 Frequencies --   1594.9224              1617.8567              1663.5516
 Red. masses --      7.8869                 9.4303                 8.3099
 Frc consts  --     11.8205                14.5431                13.5494
 IR Inten    --      3.3538                20.5362                 0.9106

                     46                     47                     48
                      A                      A                      A
 Frequencies --   1669.5919              1703.7478              2331.4204
 Red. masses --      8.4188                 6.3181                12.6838
 Frc consts  --     13.8269                10.8055                40.6201
 IR Inten    --      4.3222                 0.9906                14.7744

                     49                     50                     51
                      A                      A                      A
 Frequencies --   3201.5885              3210.5597              3222.1937
 Red. masses --      1.0869                 1.0891                 1.0963
 Frc consts  --      6.5638                 6.6142                 6.7061
 IR Inten    --      6.3148                 4.1315                 8.8775

                     52                     53                     54
                      A                      A                      A
 Frequencies --   3234.0389              3405.5052              3417.5648
 Red. masses --      1.0963                 1.0745                 1.0730
 Frc consts  --      6.7560                 7.3423                 7.3840
 IR Inten    --      7.0397                 1.7556                 2.4957

 - Thermochemistry -
 -------------------
 Temperature   298.150 Kelvin.  Pressure   1.00000 Atm.
 Atom     1 has atomic number  6 and mass  12.00000

 Molecular mass:   182.05925 amu.
 Principal axes and moments of inertia in atomic units:
                           1         2         3
     Eigenvalues --  1782.829602552.729754300.25043
           X            0.99994   0.01080   0.00022
           Y           -0.01080   0.99994  -0.00112
           Z           -0.00023   0.00112   1.00000
 This molecule is an asymmetric top.
 Rotational symmetry number  1.
 Warning -- assumption of classical behavior for rotation
           may cause significant error
 Rotational temperatures (Kelvin)      0.04858     0.03393     0.02014
 Rotational constants (GHZ):           1.01229     0.70698     0.41968
 Zero-point vibrational energy     377266.1 (Joules/Mol)
                                   90.16877 (Kcal/Mol)
 Warning -- explicit consideration of  16 degrees of freedom as
           vibrations may cause significant error
 Vibrational temperatures:     72.80   125.67   182.53   187.75   313.60
          (Kelvin)            388.39   415.44   524.12   591.98   607.22
                              652.28   669.19   704.75   709.34   723.35
                              871.04   932.87   941.82  1008.91  1083.44
                             1123.24  1182.60  1249.35  1262.81  1314.75
                             1319.52  1350.66  1425.21  1453.37  1459.97
                             1463.14  1612.41  1666.08  1709.96  1762.65
                             1830.79  1930.61  1952.53  2008.41  2053.36
                             2131.42  2224.60  2294.74  2327.73  2393.48
                             2402.17  2451.31  3354.39  4606.37  4619.28
                             4636.02  4653.06  4899.76  4917.11

 Zero-point correction=                           0.143693 (Hartree/Particle)
 Thermal correction to Energy=                    0.154376
 Thermal correction to Enthalpy=                  0.155320
 Thermal correction to Gibbs Free Energy=         0.106685
 Sum of electronic and zero-point Energies=           -603.498997
 Sum of electronic and thermal Energies=              -603.488314
 Sum of electronic and thermal Enthalpies=            -603.487370
 Sum of electronic and thermal Free Energies=         -603.536005

                     E (Thermal)             CV                S
                      KCal/Mol        Cal/Mol-Kelvin    Cal/Mol-Kelvin
 Total                   96.872             41.428            102.362
 Electronic               0.000              0.000              0.000
 Translational            0.889              2.981             41.504
 Rotational               0.889              2.981             31.349
 Vibrational             95.095             35.467             29.509
 Vibration     1          0.595              1.977              4.794
 Vibration     2          0.601              1.958              3.719
 Vibration     3          0.611              1.926              2.993
 Vibration     4          0.612              1.923              2.939
 Vibration     5          0.646              1.814              1.976
 Vibration     6          0.674              1.729              1.597
 Vibration     7          0.685              1.695              1.481
 Vibration     8          0.738              1.546              1.104
 Vibration     9          0.775              1.445              0.922
 Vibration    10          0.784              1.422              0.885
 Vibration    11          0.812              1.353              0.786
 Vibration    12          0.823              1.327              0.751
 Vibration    13          0.846              1.273              0.684
 Vibration    14          0.849              1.266              0.676
 Vibration    15          0.858              1.244              0.651
 Vibration    16          0.964              1.020              0.440

 Optimization completed.
    -- Stationary point found.

 1\1\GINC-NODE373\Freq\RB3LYP\6-31G(d)\C10H6N4\VSC10255\10-Dec-2020\0\\
 #N Geom=AllCheck Guess=TCheck SCRF=Check GenChk RB3LYP/6-31G(d) Freq\\
 CID_68522826_JID_4015_neutraal\\0,1\C,-1.4151532075,-0.1309620154,-0.1
 021905106\C,-0.8292898597,1.0892589205,-0.2075716847\C,0.6060102222,1.
 2126118354,-0.1938244137\C,1.2630096105,2.4206946033,-0.2317222931\C,2
 .7346456643,2.4844594975,-0.1474203958\N,3.4205029437,3.5465580953,0.0
 633736643\C,3.4361113596,1.1624673681,-0.3028668369\N,4.6752235093,1.1
 456461353,-0.633707946\N,2.7309352458,-0.0334122809,-0.1272678495\C,1.

 Normal termination of Gaussian 16 at Thu Dec 10 09:21:43 2020.

 ----------------------------------------------------------------------
 # B3LYP/6-311++G(d,p) empiricaldispersion=gd3bj scf=xqc pop=npa geom=c
 heck
 ----------------------------------------------------------------------

 --------------------------------------
 CID_68522826_JID_4015_Energie_neutraal
 --------------------------------------
 Structure from the checkpoint file:  "JID_4015.chk"
 Charge =  0 Multiplicity = 1

 SCF Done:  E(RB3LYP) =  -603.801262296     A.U. after   17 cycles
 Normal termination of Gaussian 16 at Thu Dec 10 09:23:26 2020.

 ----------------------------------------------------------------------
 # B3LYP/6-311++G(d,p) empiricaldispersion=gd3bj scf=xqc pop=npa geom=c
 heck
 ----------------------------------------------------------------------

 ------------------------------------
 CID_68522826_JID_4015_Energie_kation
 ------------------------------------
 Structure from the checkpoint file:  "JID_4015.chk"
 Charge =  1 Multiplicity = 2

 SCF Done:  E(UB3LYP) =  -603.486633828     A.U. after   27 cycles
 Normal termination of Gaussian 16 at Thu Dec 10 09:27:05 2020.
 Gaussian 16:  ES64L-G16RevA.03 25-Dec-2016

 -----------------------------------
 CID_68522826_JID_4015_Energie_anion
 -----------------------------------
 Structure from the checkpoint file:  "JID_4015.chk"
 Charge = -1 Multiplicity = 2

                         Standard orientation:
 ---------------------------------------------------------------------
 Center     Atomic      Atomic             Coordinates (Angstroms)
 Number     Number       Type             X           Y           Z
 ---------------------------------------------------------------------
      1          6           0        2.984130    0.899759    0.048507
      2          6           0        1.709995    1.365231    0.105034
      3          6           0        0.596886    0.452881    0.041020
      4          6           0       -0.716994    0.860433    0.028069
      5          6           0       -1.811738   -0.119563   -0.106200
      6          7           0       -3.034483    0.164645   -0.365063
      7          6           0       -1.398979   -1.557122    0.057916
      8          7           0       -2.287865   -2.435097    0.348052
      9          7           0       -0.053537   -1.921551   -0.065426
     10          6           0        0.870424   -1.000388   -0.055052
     11          6           0        2.256334   -1.420805   -0.128973
     12          6           0        3.261978   -0.513966   -0.077151
     13          6           0       -1.060612    2.242976    0.071235
     14          7           0       -1.368604    3.365417    0.105626
     15          1           0        3.816786    1.594855    0.093897
     16          1           0        1.503130    2.427187    0.190268
     17          1           0       -3.170671    1.182446   -0.408218
     18          1           0       -1.817234   -3.347680    0.394137
     19          1           0        2.434496   -2.487056   -0.213023
     20          1           0        4.296368   -0.840271   -0.125828
 ---------------------------------------------------------------------

 SCF Done:  E(UB3LYP) =  -603.906240330     A.U. after   23 cycles

 The electronic state is 2-A.
 Alpha  occ. eigenvalues --  -14.19211 -14.17128 -14.15968 -14.15224 -10.10248
 Alpha  occ. eigenvalues --  -10.09530 -10.09345 -10.09194 -10.07712 -10.07618
 Alpha  occ. eigenvalues --  -10.06562 -10.06521 -10.06251 -10.05788  -0.83320
 Alpha  occ. eigenvalues --   -0.79315  -0.77360  -0.75444  -0.71664  -0.68210
 Alpha  occ. eigenvalues --   -0.62198  -0.58740  -0.53043  -0.49220  -0.48741
 Alpha  occ. eigenvalues --   -0.42126  -0.41027  -0.38970  -0.35424  -0.33815
 Alpha  occ. eigenvalues --   -0.33081  -0.32143  -0.30700  -0.29863  -0.26327
 Alpha  occ. eigenvalues --   -0.25709  -0.25375  -0.24580  -0.24253  -0.21901
 Alpha  occ. eigenvalues --   -0.20416  -0.17672  -0.16361  -0.15234  -0.14246
 Alpha  occ. eigenvalues --   -0.12594  -0.10164  -0.04543
 Alpha virt. eigenvalues --    0.07763   0.08639   0.09523   0.09982   0.10786
 Alpha virt. eigenvalues --    0.11462   0.11776   0.12404   0.13380   0.14439
 Alpha virt. eigenvalues --    0.14865   0.14993   0.16364   0.16597   0.17547

  Beta  occ. eigenvalues --  -14.19067 -14.16734 -14.15611 -14.14821 -10.10347
  Beta  occ. eigenvalues --  -10.09612 -10.09319 -10.09241 -10.07542 -10.07402
  Beta  occ. eigenvalues --  -10.06501 -10.06409 -10.06219 -10.05700  -0.82800
  Beta  occ. eigenvalues --   -0.79039  -0.76854  -0.74909  -0.71151  -0.67746
  Beta  occ. eigenvalues --   -0.61853  -0.58139  -0.52778  -0.48969  -0.48417
  Beta  occ. eigenvalues --   -0.41967  -0.40836  -0.38741  -0.35227  -0.33606
  Beta  occ. eigenvalues --   -0.32925  -0.32041  -0.29794  -0.29527  -0.26171
  Beta  occ. eigenvalues --   -0.25253  -0.24717  -0.24180  -0.23606  -0.21788
  Beta  occ. eigenvalues --   -0.19280  -0.16399  -0.15375  -0.14629  -0.13650
  Beta  occ. eigenvalues --   -0.12081  -0.08172
  Beta virt. eigenvalues --    0.01068   0.07757   0.09518   0.09963   0.10802
  Beta virt. eigenvalues --    0.10894   0.11791   0.12421   0.12613   0.13388
  Beta virt. eigenvalues --    0.14508   0.14906   0.15057   0.16380   0.16640

 Mulliken charges and spin densities:
               1          2
     1  C   -0.442186   0.103254
     2  C   -0.562328  -0.014185
     3  C    1.282311   0.112646
     4  C    2.291875   0.260350
     5  C   -1.170863  -0.096271
     6  N   -0.196835   0.194640
     7  C    0.038195  -0.070858
     8  N   -0.252201   0.216879
     9  N   -0.039211   0.198880
    10  C   -0.514852   0.000444
    11  C   -0.585641   0.037643
    12  C   -0.237506   0.054922
    13  C   -1.271200  -0.037914
    14  N   -0.268502   0.072897
    15  H    0.129913  -0.006788
    16  H    0.114184  -0.004334
    17  H    0.210198  -0.005094
    18  H    0.201661  -0.007034
    19  H    0.148883  -0.006696
    20  H    0.124104  -0.003381
 Sum of Mulliken charges =  -1.00000   1.00000

 Dipole moment (field-independent basis, Debye):
    X=              6.7115    Y=             -0.0921    Z=             -0.1012  Tot=              6.7129
 Quadrupole moment (field-independent basis, Debye-Ang):
   XX=           -114.8472   YY=           -112.2371   ZZ=            -87.6360
   XY=             -2.3240   XZ=              0.2591   YZ=             -0.1754

 Summary of Natural Population Analysis:

                                       Natural Population
                Natural  -----------------------------------------------
    Atom  No    Charge         Core      Valence    Rydberg      Total
 -----------------------------------------------------------------------
      C    1   -0.07344      0.99957     2.06461    0.00926     3.07344
      C    2   -0.09568      0.99953     2.08817    0.00798     3.09568
      C    3    0.00236      0.99947     1.98857    0.00960     2.99764
      C    4   -0.03913      0.99935     2.02922    0.01056     3.03913
      C    5    0.08089      0.99955     1.90333    0.01623     2.91911
      N    6   -0.22262      0.99972     2.71528    0.00762     3.72262
      C    7    0.15405      0.99960     1.82685    0.01950     2.84595
      N    8   -0.21426      0.99972     2.70684    0.00771     3.71426
      N    9   -0.18626      0.99965     2.67176    0.01485     3.68626
      C   10    0.10540      0.99953     1.88163    0.01344     2.89460
      C   11   -0.07484      0.99953     2.06549    0.00982     3.07484
      C   12   -0.09922      0.99956     2.09043    0.00923     3.09922
      C   13    0.13994      0.99964     1.84022    0.02020     2.86006
      N   14   -0.17170      0.99979     2.66076    0.01115     3.67170
      H   15    0.09200      0.00000     0.40704    0.00096     0.40800
      H   16    0.10222      0.00000     0.39624    0.00154     0.39778
      H   17    0.15409      0.00000     0.34379    0.00211     0.34591
      H   18    0.15416      0.00000     0.34357    0.00226     0.34584
      H   19    0.09973      0.00000     0.39890    0.00137     0.40027
      H   20    0.09231      0.00000     0.40667    0.00102     0.40769
 =======================================================================
   * Total *   -0.00000     13.99421    32.82937    0.17642    47.00000

 Normal termination of Gaussian 16 at Thu Dec 10 09:30:13 2020.
