 Gaussian 16, Revision A.03,

 -----------------------------------------------------------
 # opt freq B3LYP/6-31G(d) empiricaldispersion=gd3bj scf=xqc
 -----------------------------------------------------------

 ------------------------------
 CID_65961417_JID_9727_neutraal
 ------------------------------
 Symbolic Z-matrix:
 Charge =  0 Multiplicity = 1

 SCF Done:  E(RB3LYP) =  -893.005914939     A.U. after   15 cycles
 SCF Done:  E(RB3LYP) =  -893.012230246     A.U. after   13 cycles
 SCF Done:  E(RB3LYP) =  -893.013065553     A.U. after   12 cycles
 SCF Done:  E(RB3LYP) =  -893.013281546     A.U. after   11 cycles
 SCF Done:  E(RB3LYP) =  -893.013408107     A.U. after   11 cycles
 SCF Done:  E(RB3LYP) =  -893.013451631     A.U. after   11 cycles
 SCF Done:  E(RB3LYP) =  -893.013479224     A.U. after   11 cycles
 SCF Done:  E(RB3LYP) =  -893.013492799     A.U. after   10 cycles
 SCF Done:  E(RB3LYP) =  -893.013501663     A.U. after   10 cycles
 SCF Done:  E(RB3LYP) =  -893.013508404     A.U. after   10 cycles
 SCF Done:  E(RB3LYP) =  -893.013605323     A.U. after   10 cycles
 SCF Done:  E(RB3LYP) =  -893.013611153     A.U. after   10 cycles
 SCF Done:  E(RB3LYP) =  -893.013611052     A.U. after    8 cycles
 SCF Done:  E(RB3LYP) =  -893.013611581     A.U. after    9 cycles
 SCF Done:  E(RB3LYP) =  -893.013611579     A.U. after    7 cycles
 Optimization completed.
    -- Stationary point found.
 Normal termination of Gaussian 16 at Sat Dec 12 10:23:02 2020.

 --------------------------------------------------------------------
 #N Geom=AllCheck Guess=TCheck SCRF=Check GenChk RB3LYP/6-31G(d) Freq
 --------------------------------------------------------------------

 Structure from the checkpoint file:  "JID_9727.chk"
 ------------------------------
 CID_65961417_JID_9727_neutraal
 ------------------------------
 Charge =  0 Multiplicity = 1

 SCF Done:  E(RB3LYP) =  -893.013611579     A.U. after    1 cycles

  Exact polarizability: 188.997  -0.641 154.441  -8.290   7.613 125.388
 Approx polarizability: 252.268  -4.163 235.572 -18.902  22.053 200.620

                      1                      2                      3
                      A                      A                      A
 Frequencies --     14.9053                23.8631                34.3596
 Red. masses --      4.6712                 4.5934                 3.2394
 Frc consts  --      0.0006                 0.0015                 0.0023
 IR Inten    --      0.0602                 0.6008                 0.2660

                      4                      5                      6
                      A                      A                      A
 Frequencies --     44.3611                70.9339                81.7476
 Red. masses --      4.8669                 2.7016                 3.4032
 Frc consts  --      0.0056                 0.0080                 0.0134
 IR Inten    --      0.1442                 1.8186                 0.6915

                      7                      8                      9
                      A                      A                      A
 Frequencies --     85.0101               112.2604               117.4259
 Red. masses --      2.0789                 3.8591                 2.2543
 Frc consts  --      0.0089                 0.0287                 0.0183
 IR Inten    --      3.1029                 0.0994                 5.9543

                     10                     11                     12
                      A                      A                      A
 Frequencies --    139.3032               146.7946               195.6047
 Red. masses --      2.0484                 3.9654                 2.7784
 Frc consts  --      0.0234                 0.0503                 0.0626
 IR Inten    --      0.8018                 0.6515                 1.5192

                     13                     14                     15
                      A                      A                      A
 Frequencies --    238.5620               241.7914               262.8505
 Red. masses --      1.3659                 2.8656                 3.5457
 Frc consts  --      0.0458                 0.0987                 0.1443
 IR Inten    --      0.6431                 1.1137                 1.6037

                     16                     17                     18
                      A                      A                      A
 Frequencies --    313.1770               329.4852               350.3289
 Red. masses --      2.5181                 3.1196                 3.9322
 Frc consts  --      0.1455                 0.1995                 0.2843
 IR Inten    --      1.7409                 4.7045                17.5032

                     19                     20                     21
                      A                      A                      A
 Frequencies --    368.5134               385.1064               422.0517
 Red. masses --      2.9334                 3.9735                 3.4358
 Frc consts  --      0.2347                 0.3472                 0.3606
 IR Inten    --      5.9939                16.8559                 3.8562

                     22                     23                     24
                      A                      A                      A
 Frequencies --    440.8668               457.8942               482.6181
 Red. masses --      3.8195                 4.3067                 2.9665
 Frc consts  --      0.4374                 0.5320                 0.4071
 IR Inten    --      5.4666                10.0244                 1.4156

                     25                     26                     27
                      A                      A                      A
 Frequencies --    521.3792               573.6800               590.6804
 Red. masses --      4.8858                 3.7294                 3.4527
 Frc consts  --      0.7825                 0.7232                 0.7098
 IR Inten    --      5.0175                 8.6144                 2.2116

                     28                     29                     30
                      A                      A                      A
 Frequencies --    643.7737               663.5948               694.1905
 Red. masses --      4.8461                 3.8340                 3.5254
 Frc consts  --      1.1833                 0.9947                 1.0009
 IR Inten    --      7.9974                 9.0854                 5.8125

                     31                     32                     33
                      A                      A                      A
 Frequencies --    705.1459               714.3183               779.9952
 Red. masses --      3.6326                 3.5825                 4.6723
 Frc consts  --      1.0642                 1.0770                 1.6748
 IR Inten    --      8.7034                24.6559                 4.5936

                     34                     35                     36
                      A                      A                      A
 Frequencies --    826.2951               838.5627               862.7748
 Red. masses --      1.5120                 1.8217                 2.3699
 Frc consts  --      0.6082                 0.7547                 1.0394
 IR Inten    --      5.8078                91.9290                 0.5575

                     37                     38                     39
                      A                      A                      A
 Frequencies --    865.1698               877.2124               887.6480
 Red. masses --      2.8581                 2.4431                 1.3791
 Frc consts  --      1.2604                 1.1076                 0.6402
 IR Inten    --     36.8389                 2.9710                 6.3441

                     40                     41                     42
                      A                      A                      A
 Frequencies --    915.8018               920.5393               951.9818
 Red. masses --      1.4215                 2.7695                 2.5142
 Frc consts  --      0.7024                 1.3827                 1.3425
 IR Inten    --      4.0037                11.1725                 0.9756

                     43                     44                     45
                      A                      A                      A
 Frequencies --    985.6098               999.3823              1038.2788
 Red. masses --      2.6786                 5.3339                 2.2341
 Frc consts  --      1.5331                 3.1388                 1.4190
 IR Inten    --     18.7559                 1.9148                11.3082

                     46                     47                     48
                      A                      A                      A
 Frequencies --   1050.5186              1054.7428              1079.5081
 Red. masses --      1.9480                 2.0013                 1.9808
 Frc consts  --      1.2666                 1.3118                 1.3600
 IR Inten    --     28.7745                 0.4608                21.1130

                     49                     50                     51
                      A                      A                      A
 Frequencies --   1094.5540              1117.6150              1129.0484
 Red. masses --      3.1019                 2.0805                 1.9642
 Frc consts  --      2.1895                 1.5311                 1.4752
 IR Inten    --     43.9600                61.1629                11.5858

                     52                     53                     54
                      A                      A                      A
 Frequencies --   1145.9885              1165.1220              1174.3842
 Red. masses --      2.6621                 1.3634                 1.9281
 Frc consts  --      2.0599                 1.0905                 1.5668
 IR Inten    --     15.5455                 9.0000                53.7422

                     55                     56                     57
                      A                      A                      A
 Frequencies --   1194.4079              1221.2543              1223.0977
 Red. masses --      1.8734                 1.6835                 1.6166
 Frc consts  --      1.5747                 1.4794                 1.4249
 IR Inten    --     12.6440                 3.7473                 4.1421

                     58                     59                     60
                      A                      A                      A
 Frequencies --   1250.9983              1262.6728              1288.1034
 Red. masses --      1.8102                 1.8233                 1.6684
 Frc consts  --      1.6692                 1.7128                 1.6309
 IR Inten    --     22.9039                28.7736                 2.9318

                     61                     62                     63
                      A                      A                      A
 Frequencies --   1309.8596              1319.1347              1343.3039
 Red. masses --      1.3929                 2.6897                 1.5110
 Frc consts  --      1.4080                 2.7576                 1.6065
 IR Inten    --      5.4189                23.4585                25.3454

                     64                     65                     66
                      A                      A                      A
 Frequencies --   1346.7477              1351.7814              1361.4220
 Red. masses --      2.4451                 1.8435                 1.4495
 Frc consts  --      2.6129                 1.9848                 1.5829
 IR Inten    --    109.2635                 8.0017                31.3908

                     67                     68                     69
                      A                      A                      A
 Frequencies --   1377.3014              1387.9453              1399.9549
 Red. masses --      1.5773                 3.2187                 1.5032
 Frc consts  --      1.7629                 3.6532                 1.7358
 IR Inten    --     19.3781                91.6625                37.4870

                     70                     71                     72
                      A                      A                      A
 Frequencies --   1401.8129              1406.5941              1411.7376
 Red. masses --      1.3343                 1.5319                 1.4011
 Frc consts  --      1.5448                 1.7857                 1.6453
 IR Inten    --      2.8086                 9.3767                18.3088

                     73                     74                     75
                      A                      A                      A
 Frequencies --   1448.1436              1452.0507              1466.9656
 Red. masses --      2.0354                 1.5603                 1.2919
 Frc consts  --      2.5150                 1.9383                 1.6380
 IR Inten    --      7.0749                 8.6566                53.3754

                     76                     77                     78
                      A                      A                      A
 Frequencies --   1500.1182              1501.6288              1517.1550
 Red. masses --      1.3122                 1.1405                 1.8261
 Frc consts  --      1.7398                 1.5152                 2.4765
 IR Inten    --      6.7723                12.9436                17.0845

                     79                     80                     81
                      A                      A                      A
 Frequencies --   1521.2879              1521.4072              1521.9529
 Red. masses --      1.0605                 1.0581                 1.2934
 Frc consts  --      1.4460                 1.4430                 1.7652
 IR Inten    --      0.7381                10.9116                33.1041

                     82                     83                     84
                      A                      A                      A
 Frequencies --   1529.4992              1532.7192              1532.9944
 Red. masses --      1.0551                 1.0677                 1.2163
 Frc consts  --      1.4542                 1.4778                 1.6841
 IR Inten    --      2.2885                16.0737                16.0459

                     85                     86                     87
                      A                      A                      A
 Frequencies --   1534.2749              1534.8134              1573.9253
 Red. masses --      1.0859                 1.0851                 5.9645
 Frc consts  --      1.5061                 1.5060                 8.7054
 IR Inten    --     13.8920                 7.7685                16.6252

                     88                     89                     90
                      A                      A                      A
 Frequencies --   1767.9629              1817.6998              3016.5185
 Red. masses --     12.4405                11.2680                 1.0656
 Frc consts  --     22.9105                21.9352                 5.7129
 IR Inten    --    426.9224               116.4354                28.6108

                     91                     92                     93
                      A                      A                      A
 Frequencies --   3044.1008              3055.2291              3057.6287
 Red. masses --      1.0669                 1.0375                 1.0752
 Frc consts  --      5.8250                 5.7058                 5.9224
 IR Inten    --     27.1305                27.9304                 7.3316

                     94                     95                     96
                      A                      A                      A
 Frequencies --   3065.3425              3073.0684              3081.4818
 Red. masses --      1.0735                 1.0692                 1.0806
 Frc consts  --      5.9433                 5.9493                 6.0454
 IR Inten    --      2.8779                28.3327                 0.1188

                     97                     98                     99
                      A                      A                      A
 Frequencies --   3083.3193              3091.9054              3100.4323
 Red. masses --      1.0719                 1.0355                 1.0970
 Frc consts  --      6.0038                 5.8327                 6.2128
 IR Inten    --     42.4996                19.7611                 4.6869

                    100                    101                    102
                      A                      A                      A
 Frequencies --   3110.5983              3119.8256              3136.3690
 Red. masses --      1.1018                 1.1020                 1.1040
 Frc consts  --      6.2814                 6.3194                 6.3985
 IR Inten    --     22.6181                27.3814                16.5848

                    103                    104                    105
                      A                      A                      A
 Frequencies --   3137.4643              3140.0014              3160.0804
 Red. masses --      1.0963                 1.1021                 1.1037
 Frc consts  --      6.3584                 6.4020                 6.4937
 IR Inten    --      8.6516                34.6799                11.6866

                    106                    107                    108
                      A                      A                      A
 Frequencies --   3215.8427              3276.4523              3482.2071
 Red. masses --      1.1036                 1.0970                 1.0737
 Frc consts  --      6.7244                 6.9384                 7.6708
 IR Inten    --      0.6030                 8.7133                 5.4904

 - Thermochemistry -
 -------------------
 Temperature   298.150 Kelvin.  Pressure   1.00000 Atm.
 Atom     1 has atomic number  6 and mass  12.00000

 Molecular mass:   265.15388 amu.
 Principal axes and moments of inertia in atomic units:
                           1         2         3
     Eigenvalues --  2454.594469438.53451**********
           X            0.99984   0.01719  -0.00520
           Y           -0.01721   0.99984  -0.00433
           Z            0.00512   0.00442   0.99998
 This molecule is an asymmetric top.
 Rotational symmetry number  1.
 Warning -- assumption of classical behavior for rotation
           may cause significant error
 Rotational temperatures (Kelvin)      0.03529     0.00918     0.00857
 Rotational constants (GHZ):           0.73525     0.19121     0.17850
 Zero-point vibrational energy     848199.6 (Joules/Mol)
                                  202.72458 (Kcal/Mol)
 Warning -- explicit consideration of  27 degrees of freedom as
           vibrations may cause significant error
 Vibrational temperatures:     21.45    34.33    49.44    63.83   102.06
          (Kelvin)            117.62   122.31   161.52   168.95   200.43
                              211.20   281.43   343.24   347.88   378.18
                              450.59   474.06   504.05   530.21   554.08
                              607.24   634.31   658.81   694.38   750.15
                              825.40   849.86   926.25   954.76   998.79
                             1014.55  1027.74  1122.24  1188.85  1206.50
                             1241.34  1244.79  1262.11  1277.13  1317.63
                             1324.45  1369.69  1418.07  1437.89  1493.85
                             1511.46  1517.54  1553.17  1574.82  1608.00
                             1624.45  1648.82  1676.35  1689.68  1718.49
                             1757.11  1759.76  1799.91  1816.70  1853.29
                             1884.60  1897.94  1932.71  1937.67  1944.91
                             1958.78  1981.63  1996.94  2014.22  2016.90
                             2023.78  2031.18  2083.56  2089.18  2110.64
                             2158.34  2160.51  2182.85  2188.79  2188.97
                             2189.75  2200.61  2205.24  2205.64  2207.48
                             2208.25  2264.53  2543.70  2615.26  4340.10
                             4379.78  4395.79  4399.25  4410.34  4421.46
                             4433.57  4436.21  4448.56  4460.83  4475.46
                             4488.73  4512.54  4514.11  4517.76  4546.65
                             4626.88  4714.08  5010.12

 Zero-point correction=                           0.323062 (Hartree/Particle)
 Thermal correction to Energy=                    0.341709
 Thermal correction to Enthalpy=                  0.342653
 Thermal correction to Gibbs Free Energy=         0.272845
 Sum of electronic and zero-point Energies=           -892.690549
 Sum of electronic and thermal Energies=              -892.671902
 Sum of electronic and thermal Enthalpies=            -892.670958
 Sum of electronic and thermal Free Energies=         -892.740767

                     E (Thermal)             CV                S
                      KCal/Mol        Cal/Mol-Kelvin    Cal/Mol-Kelvin
 Total                  214.426             68.197            146.924
 Electronic               0.000              0.000              0.000
 Translational            0.889              2.981             42.625
 Rotational               0.889              2.981             33.815
 Vibrational            212.648             62.236             70.485
 Vibration     1          0.593              1.986              7.218
 Vibration     2          0.593              1.985              6.284
 Vibration     3          0.594              1.983              5.560
 Vibration     4          0.595              1.980              5.054
 Vibration     5          0.598              1.968              4.127
 Vibration     6          0.600              1.962              3.848
 Vibration     7          0.601              1.960              3.772
 Vibration     8          0.607              1.939              3.229
 Vibration     9          0.608              1.935              3.142
 Vibration    10          0.615              1.914              2.813
 Vibration    11          0.617              1.906              2.713
 Vibration    12          0.636              1.846              2.174
 Vibration    13          0.657              1.782              1.814
 Vibration    14          0.658              1.776              1.790
 Vibration    15          0.670              1.741              1.643
 Vibration    16          0.701              1.649              1.345
 Vibration    17          0.712              1.617              1.263
 Vibration    18          0.727              1.575              1.165
 Vibration    19          0.741              1.537              1.086
 Vibration    20          0.754              1.502              1.019
 Vibration    21          0.784              1.422              0.885
 Vibration    22          0.801              1.381              0.824
 Vibration    23          0.816              1.343              0.772
 Vibration    24          0.839              1.289              0.703
 Vibration    25          0.876              1.203              0.607
 Vibration    26          0.930              1.088              0.497
 Vibration    27          0.948              1.052              0.466

 Optimization completed.
    -- Stationary point found.
 Normal termination of Gaussian 16 at Sat Dec 12 10:40:57 2020.

 ----------------------------------------------------------------------
 # B3LYP/6-311++G(d,p) empiricaldispersion=gd3bj scf=xqc pop=npa geom=c
 heck
 ----------------------------------------------------------------------

 --------------------------------------
 CID_65961417_JID_9727_Energie_neutraal
 --------------------------------------
 Structure from the checkpoint file:  "JID_9727.chk"
 Charge =  0 Multiplicity = 1

 SCF Done:  E(RB3LYP) =  -893.262892167     A.U. after   16 cycles
 Normal termination of Gaussian 16 at Sat Dec 12 10:49:44 2020.

 ----------------------------------------------------------------------
 # B3LYP/6-311++G(d,p) empiricaldispersion=gd3bj scf=xqc pop=npa geom=c
 heck
 ----------------------------------------------------------------------

 ------------------------------------
 CID_65961417_JID_9727_Energie_kation
 ------------------------------------
 Structure from the checkpoint file:  "JID_9727.chk"
 Charge =  1 Multiplicity = 2

 SCF Done:  E(UB3LYP) =  -892.940354471     A.U. after   31 cycles
 Normal termination of Gaussian 16 at Sat Dec 12 11:14:41 2020.
 Gaussian 16:  ES64L-G16RevA.03 25-Dec-2016

 ----------------------------------------------------------------------
 # B3LYP/6-311++G(d,p) empiricaldispersion=gd3bj scf=xqc pop=npa geom=c
 heck
 ----------------------------------------------------------------------

 -----------------------------------
 CID_65961417_JID_9727_Energie_anion
 -----------------------------------
 Structure from the checkpoint file:  "JID_9727.chk"
 Charge = -1 Multiplicity = 2

                         Standard orientation:
 ---------------------------------------------------------------------
 Center     Atomic      Atomic             Coordinates (Angstroms)
 Number     Number       Type             X           Y           Z
 ---------------------------------------------------------------------
      1          6           0       -4.465027   -1.397239    1.340252
      2          6           0       -3.233646   -1.857804    0.558830
      3          6           0       -3.075075   -1.172521   -0.803279
      4          7           0       -2.895229    0.271837   -0.707793
      5          6           0       -1.757089    0.999483   -0.567074
      6          7           0       -2.057162    2.289429   -0.461120
      7          6           0       -3.415641    2.293698   -0.543210
      8          7           0       -3.974724    1.100375   -0.692571
      9          6           0       -0.377667    0.427281   -0.526807
     10          7           0       -0.160055   -0.307446    0.728810
     11          6           0        1.201435   -0.818424    0.924061
     12          6           0        1.617300   -1.886018   -0.095222
     13          6           0        2.419400   -1.317568   -1.266462
     14          6           0        3.589889   -0.462506   -0.826375
     15          8           0        4.636304   -0.415852   -1.444233
     16          7           0        3.377683    0.336659    0.311237
     17          6           0        2.211304    0.334963    1.073148
     18          8           0        2.001267    1.216170    1.890309
     19          6           0        4.386751    1.345766    0.657462
     20          1           0       -4.425222   -0.324269    1.548809
     21          1           0       -4.535731   -1.929236    2.295122
     22          1           0       -5.386875   -1.585499    0.777805
     23          1           0       -2.317795   -1.679869    1.132210
     24          1           0       -3.290788   -2.938502    0.370521
     25          1           0       -2.205942   -1.576822   -1.330932
     26          1           0       -3.958050   -1.327275   -1.428921
     27          1           0       -4.009200    3.196455   -0.499007
     28          1           0       -0.246970   -0.272698   -1.359562
     29          1           0        0.320847    1.264277   -0.676881
     30          1           0       -0.341689    0.340296    1.496066
     31          1           0        1.187644   -1.277865    1.919079
     32          1           0        2.236000   -2.632931    0.414658
     33          1           0        0.722181   -2.407680   -0.448349
     34          1           0        1.792848   -0.685948   -1.908609
     35          1           0        2.826590   -2.108530   -1.900079
     36          1           0        5.277986    1.136108    0.070805
     37          1           0        4.008050    2.345713    0.430789
     38          1           0        4.600363    1.291085    1.725990
 ---------------------------------------------------------------------

 SCF Done:  E(UB3LYP) =  -893.264948659     A.U. after   33 cycles
 SCF Done:  E(UB3LYP) =  -893.264948660     a.u. after    1 cycles

 The electronic state is 2-A.
 Alpha  occ. eigenvalues --  -18.98179 -18.97989 -14.30688 -14.25206 -14.24847
 Alpha  occ. eigenvalues --  -14.21449 -14.20881 -10.15762 -10.15097 -10.14940
 Alpha  occ. eigenvalues --  -10.12913 -10.12612 -10.11526 -10.10680 -10.09760
 Alpha  occ. eigenvalues --  -10.07769 -10.07637 -10.07390 -10.07051  -0.98930
 Alpha  occ. eigenvalues --   -0.94659  -0.92762  -0.82493  -0.82252  -0.81531
 Alpha  occ. eigenvalues --   -0.75751  -0.70186  -0.69028  -0.63902  -0.61224
 Alpha  occ. eigenvalues --   -0.60997  -0.58262  -0.53662  -0.52853  -0.52238
 Alpha  occ. eigenvalues --   -0.50829  -0.47496  -0.44284  -0.41985  -0.40356
 Alpha  occ. eigenvalues --   -0.39717  -0.38927  -0.37920  -0.36577  -0.36043
 Alpha  occ. eigenvalues --   -0.35262  -0.34474  -0.34041  -0.33430  -0.33287
 Alpha  occ. eigenvalues --   -0.31988  -0.31368  -0.31291  -0.30452  -0.29490
 Alpha  occ. eigenvalues --   -0.28980  -0.27608  -0.27330  -0.26381  -0.26100
 Alpha  occ. eigenvalues --   -0.25445  -0.24216  -0.23801  -0.23595  -0.20019
 Alpha  occ. eigenvalues --   -0.19264  -0.17376  -0.16938  -0.16344  -0.15237
 Alpha  occ. eigenvalues --   -0.13539   0.03892
 Alpha virt. eigenvalues --    0.06120   0.07194   0.07651   0.07938   0.08451
 Alpha virt. eigenvalues --    0.08594   0.09329   0.09609   0.09836   0.10896
 Alpha virt. eigenvalues --    0.11030   0.11593   0.11872   0.12019   0.12520

  Beta  occ. eigenvalues --  -18.97946 -18.97764 -14.30679 -14.25302 -14.24845
  Beta  occ. eigenvalues --  -14.21446 -14.20857 -10.15538 -10.15096 -10.14673
  Beta  occ. eigenvalues --  -10.12913 -10.12590 -10.11500 -10.10694 -10.09754
  Beta  occ. eigenvalues --  -10.07748 -10.07643 -10.07343 -10.07043  -0.98920
  Beta  occ. eigenvalues --   -0.94288  -0.92323  -0.82378  -0.82223  -0.81512
  Beta  occ. eigenvalues --   -0.75734  -0.70114  -0.68991  -0.63799  -0.61156
  Beta  occ. eigenvalues --   -0.60898  -0.58076  -0.53649  -0.52816  -0.51936
  Beta  occ. eigenvalues --   -0.50682  -0.47451  -0.44220  -0.41899  -0.40278
  Beta  occ. eigenvalues --   -0.39493  -0.38805  -0.37858  -0.36419  -0.35881
  Beta  occ. eigenvalues --   -0.35107  -0.34394  -0.33957  -0.33360  -0.33153
  Beta  occ. eigenvalues --   -0.31956  -0.31225  -0.31089  -0.30370  -0.29382
  Beta  occ. eigenvalues --   -0.28604  -0.27325  -0.27281  -0.26319  -0.25525
  Beta  occ. eigenvalues --   -0.25184  -0.24073  -0.23500  -0.23448  -0.19991
  Beta  occ. eigenvalues --   -0.19256  -0.17343  -0.16722  -0.15872  -0.15058
  Beta  occ. eigenvalues --   -0.13416
  Beta virt. eigenvalues --    0.06380   0.07526   0.07658   0.07960   0.08327
  Beta virt. eigenvalues --    0.08714   0.09290   0.09533   0.09856   0.10300
  Beta virt. eigenvalues --    0.11074   0.11127   0.11655   0.11994   0.12209

 Mulliken charges and spin densities:
               1          2
     1  C    0.035819  -0.625711
     2  C   -0.368470   0.138109
     3  C    0.268047  -0.493323
     4  N    0.128860   0.043781
     5  C   -0.264440  -0.169219
     6  N   -0.033822   0.011785
     7  C   -0.027226   0.021037
     8  N   -0.124457   0.009146
     9  C    0.016361  -0.618864
    10  N    0.120440  -0.090419
    11  C    0.053897   0.083392
    12  C    0.629936  -1.104586
    13  C   -0.096534   0.100514
    14  C   -0.044492  -0.039193
    15  O   -0.374106   0.085738
    16  N    0.109444  -0.075439
    17  C   -0.648213   0.355796
    18  O   -0.340225   0.082853
    19  C   -0.198629  -0.000926
    20  H    0.113490   0.051707
    21  H   -0.059555   0.191714
    22  H    0.110380   0.017268
    23  H    0.335015  -0.088438
    24  H   -0.351197   0.493797
    25  H   -0.218461   0.359075
    26  H    0.010130   0.186305
    27  H    0.141815   0.007949
    28  H    0.044811   0.120179
    29  H    0.266176  -0.037952
    30  H    0.244421   0.018162
    31  H   -0.432148   0.684802
    32  H   -0.106207   0.279430
    33  H   -0.387229   0.552907
    34  H   -0.107547   0.282846
    35  H    0.069015   0.154475
    36  H    0.165790   0.002205
    37  H    0.172545  -0.002192
    38  H    0.146568   0.011290
 Sum of Mulliken charges =  -1.00000   1.00000

 Dipole moment (field-independent basis, Debye):
    X=             -2.4346    Y=              2.6454    Z=             -0.1472  Tot=              3.5982
 Quadrupole moment (field-independent basis, Debye-Ang):
   XX=           -184.1444   YY=           -154.1511   ZZ=           -146.5297
   XY=             -0.8903   XZ=              6.4285   YZ=             -2.7500

 Summary of Natural Population Analysis:

                                       Natural Population
                Natural  -----------------------------------------------
    Atom  No    Charge         Core      Valence    Rydberg      Total
 -----------------------------------------------------------------------
      C    1   -0.28835      0.99966     2.28318    0.00551     3.28835
      C    2   -0.20019      0.99963     2.19286    0.00770     3.20019
      C    3   -0.08184      0.99960     2.07051    0.01173     3.08184
      N    4   -0.11296      0.99960     2.59996    0.01340     3.61296
      C    5    0.19832      0.99959     1.78458    0.01750     2.80168
      N    6   -0.26266      0.99971     2.75462    0.00833     3.76266
      C    7    0.08307      0.99971     1.89929    0.01793     2.91693
      N    8   -0.16136      0.99974     2.65156    0.01007     3.66136
      C    9   -0.11532      0.99958     2.10521    0.01054     3.11532
      N   10   -0.33396      0.99974     2.82333    0.01090     3.83396
      C   11   -0.04740      0.99956     2.03278    0.01506     3.04740
      C   12   -0.19719      0.99962     2.18830    0.00927     3.19719
      C   13   -0.23405      0.99959     2.22578    0.00867     3.23405
      C   14    0.38264      0.99966     1.59462    0.02307     2.61736
      O   15   -0.29332      0.99987     3.28814    0.00530     4.29332
      N   16   -0.27580      0.99961     2.76890    0.00729     3.77580
      C   17    0.37772      0.99964     1.59948    0.02316     2.62228
      O   18   -0.29769      0.99988     3.29220    0.00562     4.29769
      C   19   -0.18072      0.99965     2.17395    0.00712     3.18072
      H   20    0.10213      0.00000     0.39684    0.00103     0.39787
      H   21    0.09803      0.00000     0.40128    0.00069     0.40197
      H   22    0.09460      0.00000     0.40459    0.00081     0.40540
      H   23    0.11278      0.00000     0.38541    0.00181     0.38722
      H   24    0.09781      0.00000     0.40080    0.00139     0.40219
      H   25    0.10729      0.00000     0.39122    0.00149     0.39271
      H   26    0.10198      0.00000     0.39671    0.00131     0.39802
      H   27    0.08966      0.00000     0.40948    0.00086     0.41034
      H   28    0.10180      0.00000     0.39655    0.00165     0.39820
      H   29    0.10032      0.00000     0.39779    0.00190     0.39968
      H   30    0.18293      0.00000     0.31459    0.00248     0.31707
      H   31    0.11426      0.00000     0.38400    0.00174     0.38574
      H   32    0.10331      0.00000     0.39527    0.00141     0.39669
      H   33    0.10823      0.00000     0.38952    0.00225     0.39177
      H   34    0.10850      0.00000     0.39001    0.00150     0.39150
      H   35    0.11170      0.00000     0.38728    0.00102     0.38830
      H   36    0.11003      0.00000     0.38894    0.00102     0.38997
      H   37    0.09680      0.00000     0.40227    0.00094     0.40320
      H   38    0.09891      0.00000     0.40013    0.00097     0.40109
 =======================================================================
   * Total *    0.00000     18.99364    51.76193    0.24443    71.00000

 Normal termination of Gaussian 16 at Sat Dec 12 11:39:57 2020.
