 Gaussian 16, Revision A.03,

 -----------------------------------------------------------
 # opt freq B3LYP/6-31G(d) empiricaldispersion=gd3bj scf=xqc
 -----------------------------------------------------------

 -------------------------------
 CID_110781748_JID_6809_neutraal
 -------------------------------
 Symbolic Z-matrix:
 Charge =  0 Multiplicity = 1

 SCF Done:  E(RB3LYP) =  -748.000688286     A.U. after   14 cycles
 SCF Done:  E(RB3LYP) =  -748.005081408     A.U. after   12 cycles
 SCF Done:  E(RB3LYP) =  -748.006478238     A.U. after   11 cycles
 SCF Done:  E(RB3LYP) =  -748.007768699     A.U. after   14 cycles
 SCF Done:  E(RB3LYP) =  -748.008775595     A.U. after   11 cycles
 SCF Done:  E(RB3LYP) =  -748.009056723     A.U. after   12 cycles
 SCF Done:  E(RB3LYP) =  -748.009397690     A.U. after   11 cycles
 SCF Done:  E(RB3LYP) =  -748.009636185     A.U. after   10 cycles
 SCF Done:  E(RB3LYP) =  -748.009895257     A.U. after   12 cycles
 SCF Done:  E(RB3LYP) =  -748.009967264     A.U. after   11 cycles
 SCF Done:  E(RB3LYP) =  -748.010127328     A.U. after   11 cycles
 SCF Done:  E(RB3LYP) =  -748.010141777     A.U. after   11 cycles
 SCF Done:  E(RB3LYP) =  -748.010147813     A.U. after    9 cycles
 SCF Done:  E(RB3LYP) =  -748.010148818     A.U. after    8 cycles
 SCF Done:  E(RB3LYP) =  -748.010148900     A.U. after    8 cycles
 Optimization completed.
    -- Stationary point found.
 Normal termination of Gaussian 16 at Fri Dec 11 00:45:26 2020.

 --------------------------------------------------------------------
 #N Geom=AllCheck Guess=TCheck SCRF=Check GenChk RB3LYP/6-31G(d) Freq
 --------------------------------------------------------------------

 Structure from the checkpoint file:  "JID_6809.chk"
 -------------------------------
 CID_110781748_JID_6809_neutraal
 -------------------------------
 Charge =  0 Multiplicity = 1

 SCF Done:  E(RB3LYP) =  -748.010148900     A.U. after    1 cycles

  Exact polarizability: 184.845  -3.699 146.717   7.852  -3.188  94.539
 Approx polarizability: 241.641  -3.833 225.647  15.186  -5.405 147.299

                      1                      2                      3
                      A                      A                      A
 Frequencies --     12.5999                41.1527                49.5822
 Red. masses --      4.2427                 4.3223                 4.6678
 Frc consts  --      0.0004                 0.0043                 0.0068
 IR Inten    --      0.2860                 0.3224                 0.3099

                      4                      5                      6
                      A                      A                      A
 Frequencies --     72.1229                81.3985               113.0616
 Red. masses --      2.6139                 3.5323                 1.6204
 Frc consts  --      0.0080                 0.0138                 0.0122
 IR Inten    --      0.0309                 2.6904                 2.5296

                      7                      8                      9
                      A                      A                      A
 Frequencies --    124.5022               143.1735               157.5517
 Red. masses --      2.6557                 3.0167                 4.1103
 Frc consts  --      0.0243                 0.0364                 0.0601
 IR Inten    --      1.3098                 2.2341                 0.3225

                     10                     11                     12
                      A                      A                      A
 Frequencies --    164.5917               206.0271               227.7517
 Red. masses --      3.0010                 1.4629                 2.5305
 Frc consts  --      0.0479                 0.0366                 0.0773
 IR Inten    --      4.1579                 0.4079                 0.2033

                     13                     14                     15
                      A                      A                      A
 Frequencies --    254.0663               272.5500               293.9146
 Red. masses --      1.9081                 1.3923                 2.2985
 Frc consts  --      0.0726                 0.0609                 0.1170
 IR Inten    --      1.9986                 0.6098                 5.9887

                     16                     17                     18
                      A                      A                      A
 Frequencies --    331.1734               345.6226               372.8206
 Red. masses --      3.4855                 3.1401                 3.2853
 Frc consts  --      0.2252                 0.2210                 0.2690
 IR Inten    --      3.0445                 2.1244                 4.1369

                     19                     20                     21
                      A                      A                      A
 Frequencies --    395.3366               475.9057               508.0273
 Red. masses --      3.6691                 3.8371                 3.2004
 Frc consts  --      0.3379                 0.5120                 0.4867
 IR Inten    --      1.2596                 3.8134                 5.8045

                     22                     23                     24
                      A                      A                      A
 Frequencies --    524.3738               543.6052               564.9760
 Red. masses --      3.0567                 2.7149                 2.3563
 Frc consts  --      0.4952                 0.4727                 0.4431
 IR Inten    --     13.4002                56.2702                28.0198

                     25                     26                     27
                      A                      A                      A
 Frequencies --    605.0297               652.9828               669.8833
 Red. masses --      3.0218                 3.3164                 3.2059
 Frc consts  --      0.6517                 0.8331                 0.8476
 IR Inten    --     40.8282                11.0435                19.4168

                     28                     29                     30
                      A                      A                      A
 Frequencies --    747.3158               757.5515               764.9796
 Red. masses --      3.6852                 5.1852                 4.8091
 Frc consts  --      1.2126                 1.7532                 1.6581
 IR Inten    --      2.3469                 1.4937                31.5513

                     31                     32                     33
                      A                      A                      A
 Frequencies --    771.3539               808.0296               834.3039
 Red. masses --      4.4815                 1.3114                 1.5793
 Frc consts  --      1.5710                 0.5045                 0.6477
 IR Inten    --     29.4162                 2.9751                19.4773

                     34                     35                     36
                      A                      A                      A
 Frequencies --    864.6482               913.5782               923.5094
 Red. masses --      4.5393                 1.5578                 2.6114
 Frc consts  --      1.9995                 0.7660                 1.3122
 IR Inten    --      8.0016                 7.5606                 3.2839

                     37                     38                     39
                      A                      A                      A
 Frequencies --    949.9576               969.9043              1007.9774
 Red. masses --      1.2984                 2.0059                 2.5244
 Frc consts  --      0.6904                 1.1118                 1.5111
 IR Inten    --      0.5664                10.3233                 0.9081

                     40                     41                     42
                      A                      A                      A
 Frequencies --   1075.1880              1088.7087              1098.0294
 Red. masses --      3.7409                 2.3851                 3.4376
 Frc consts  --      2.5479                 1.6656                 2.4419
 IR Inten    --     15.8211                39.0305                63.5069

                     43                     44                     45
                      A                      A                      A
 Frequencies --   1102.5195              1136.5421              1176.9937
 Red. masses --      1.7193                 4.2672                 1.7809
 Frc consts  --      1.2313                 3.2476                 1.4536
 IR Inten    --      3.6424                81.2213                56.1335

                     46                     47                     48
                      A                      A                      A
 Frequencies --   1187.1038              1190.3308              1197.8446
 Red. masses --      1.2722                 1.2676                 1.5148
 Frc consts  --      1.0563                 1.0582                 1.2806
 IR Inten    --      0.8441                 1.4937                 2.1707

                     49                     50                     51
                      A                      A                      A
 Frequencies --   1219.9658              1221.6511              1259.1672
 Red. masses --      1.4737                 1.3872                 2.2826
 Frc consts  --      1.2922                 1.2197                 2.1323
 IR Inten    --     38.0171                12.8390                 8.1172

                     52                     53                     54
                      A                      A                      A
 Frequencies --   1268.1650              1295.7013              1303.8083
 Red. masses --      1.5268                 1.3885                 4.3571
 Frc consts  --      1.4467                 1.3734                 4.3639
 IR Inten    --     61.4411                 5.4646               269.3201

                     55                     56                     57
                      A                      A                      A
 Frequencies --   1333.7695              1364.7591              1377.0756
 Red. masses --      1.4921                 1.6908                 1.4929
 Frc consts  --      1.5639                 1.8555                 1.6680
 IR Inten    --      6.5023               220.9718                 0.9770

                     58                     59                     60
                      A                      A                      A
 Frequencies --   1379.4216              1419.2031              1431.0323
 Red. masses --      3.6430                 1.7164                 1.2265
 Frc consts  --      4.0842                 2.0369                 1.4799
 IR Inten    --     75.0372                88.5698                 1.8888

                     61                     62                     63
                      A                      A                      A
 Frequencies --   1477.9664              1488.7025              1499.3435
 Red. masses --      2.6979                 1.3604                 1.2188
 Frc consts  --      3.4723                 1.7764                 1.6143
 IR Inten    --      3.7590                 8.7749                35.2419

                     64                     65                     66
                      A                      A                      A
 Frequencies --   1502.3814              1511.9240              1513.9180
 Red. masses --      1.2731                 1.0496                 1.1081
 Frc consts  --      1.6931                 1.4136                 1.4964
 IR Inten    --      8.4293                 5.6311                 1.7320

                     67                     68                     69
                      A                      A                      A
 Frequencies --   1520.0636              1521.2931              1527.1321
 Red. masses --      1.1965                 1.0481                 1.0512
 Frc consts  --      1.6289                 1.4291                 1.4444
 IR Inten    --     52.5432                 5.4984                12.0511

                     70                     71                     72
                      A                      A                      A
 Frequencies --   1531.3863              1535.1737              1540.8732
 Red. masses --      1.0898                 1.0836                 1.0703
 Frc consts  --      1.5058                 1.5046                 1.4972
 IR Inten    --      5.8186                48.9874                 1.8465

                     73                     74                     75
                      A                      A                      A
 Frequencies --   1560.4449              1642.8364              1671.9692
 Red. masses --      2.3286                 6.9405                 5.8149
 Frc consts  --      3.3407                11.0364                 9.5774
 IR Inten    --     77.0545                 2.9314                28.2123

                     76                     77                     78
                      A                      A                      A
 Frequencies --   1830.8796              3026.6284              3052.1038
 Red. masses --      8.9284                 1.0346                 1.0388
 Frc consts  --     17.6337                 5.5838                 5.7016
 IR Inten    --    501.0293                57.6619                38.9094

                     79                     80                     81
                      A                      A                      A
 Frequencies --   3052.9249              3073.8201              3074.6479
 Red. masses --      1.0573                 1.0626                 1.0349
 Frc consts  --      5.8061                 5.9152                 5.7642
 IR Inten    --     30.2360                50.5169                25.6762

                     82                     83                     84
                      A                      A                      A
 Frequencies --   3085.8056              3091.3480              3117.7446
 Red. masses --      1.1066                 1.1028                 1.1026
 Frc consts  --      6.2086                 6.2094                 6.3145
 IR Inten    --     40.4826                 7.8064                46.6045

                     85                     86                     87
                      A                      A                      A
 Frequencies --   3138.4523              3148.2916              3149.2052
 Red. masses --      1.1022                 1.0965                 1.1076
 Frc consts  --      6.3962                 6.4033                 6.4717
 IR Inten    --     26.3920                 4.3779                24.1401

                     88                     89                     90
                      A                      A                      A
 Frequencies --   3158.4934              3162.2616              3175.3181
 Red. masses --      1.0999                 1.0894                 1.1073
 Frc consts  --      6.4652                 6.4186                 6.5778
 IR Inten    --     25.8555                21.0665                18.9133

                     91                     92                     93
                      A                      A                      A
 Frequencies --   3202.8321              3227.6879              3618.9680
 Red. masses --      1.0886                 1.0919                 1.0761
 Frc consts  --      6.5796                 6.7024                 8.3041
 IR Inten    --      4.3601                11.7370                25.1724

 - Thermochemistry -
 -------------------
 Temperature   298.150 Kelvin.  Pressure   1.00000 Atm.
 Atom     1 has atomic number  6 and mass  12.00000

 Molecular mass:   223.12084 amu.
 Principal axes and moments of inertia in atomic units:
                           1         2         3
     Eigenvalues --  1745.049137503.195918571.61092
           X            0.99993  -0.01012   0.00539
           Y            0.01013   0.99995  -0.00073
           Z           -0.00539   0.00079   0.99999
 This molecule is an asymmetric top.
 Rotational symmetry number  1.
 Warning -- assumption of classical behavior for rotation
           may cause significant error
 Rotational temperatures (Kelvin)      0.04963     0.01154     0.01010
 Rotational constants (GHZ):           1.03421     0.24053     0.21055
 Zero-point vibrational energy     736162.1 (Joules/Mol)
                                  175.94697 (Kcal/Mol)
 Warning -- explicit consideration of  25 degrees of freedom as
           vibrations may cause significant error
 Vibrational temperatures:     18.13    59.21    71.34   103.77   117.11
          (Kelvin)            162.67   179.13   205.99   226.68   236.81
                              296.43   327.68   365.54   392.14   422.88
                              476.48   497.27   536.41   568.80   684.72
                              730.94   754.46   782.13   812.87   870.50
                              939.50   963.81  1075.22  1089.95  1100.63
                             1109.81  1162.57  1200.38  1244.04  1314.44
                             1328.72  1366.78  1395.48  1450.25  1546.96
                             1566.41  1579.82  1586.28  1635.23  1693.43
                             1707.98  1712.62  1723.43  1755.26  1757.68
                             1811.66  1824.61  1864.23  1875.89  1919.00
                             1963.58  1981.30  1984.68  2041.92  2058.94
                             2126.46  2141.91  2157.22  2161.59  2175.32
                             2178.19  2187.03  2188.80  2197.20  2203.32
                             2208.77  2216.97  2245.13  2363.68  2405.59
                             2634.23  4354.64  4391.30  4392.48  4422.54
                             4423.73  4439.79  4447.76  4485.74  4515.53
                             4529.69  4531.00  4544.37  4549.79  4568.57
                             4608.16  4643.92  5206.89

 Zero-point correction=                           0.280389 (Hartree/Particle)
 Thermal correction to Energy=                    0.297161
 Thermal correction to Enthalpy=                  0.298105
 Thermal correction to Gibbs Free Energy=         0.233852
 Sum of electronic and zero-point Energies=           -747.729760
 Sum of electronic and thermal Energies=              -747.712988
 Sum of electronic and thermal Enthalpies=            -747.712044
 Sum of electronic and thermal Free Energies=         -747.776297

                     E (Thermal)             CV                S
                      KCal/Mol        Cal/Mol-Kelvin    Cal/Mol-Kelvin
 Total                  186.471             61.008            135.232
 Electronic               0.000              0.000              0.000
 Translational            0.889              2.981             42.110
 Rotational               0.889              2.981             33.084
 Vibrational            184.694             55.046             60.038
 Vibration     1          0.593              1.987              7.552
 Vibration     2          0.594              1.981              5.203
 Vibration     3          0.595              1.978              4.834
 Vibration     4          0.598              1.967              4.095
 Vibration     5          0.600              1.962              3.857
 Vibration     6          0.607              1.939              3.216
 Vibration     7          0.610              1.928              3.029
 Vibration     8          0.616              1.910              2.761
 Vibration     9          0.621              1.894              2.579
 Vibration    10          0.623              1.886              2.496
 Vibration    11          0.641              1.831              2.079
 Vibration    12          0.651              1.799              1.897
 Vibration    13          0.665              1.756              1.702
 Vibration    14          0.676              1.724              1.580
 Vibration    15          0.689              1.685              1.451
 Vibration    16          0.714              1.613              1.254
 Vibration    17          0.724              1.584              1.186
 Vibration    18          0.744              1.528              1.068
 Vibration    19          0.762              1.480              0.980
 Vibration    20          0.833              1.304              0.721
 Vibration    21          0.863              1.232              0.638
 Vibration    22          0.879              1.196              0.600
 Vibration    23          0.899              1.154              0.558
 Vibration    24          0.921              1.107              0.514
 Vibration    25          0.964              1.021              0.441

                           ! Non-Optimized Parameters !
 Normal termination of Gaussian 16 at Fri Dec 11 00:56:11 2020.

 ----------------------------------------------------------------------
 # B3LYP/6-311++G(d,p) empiricaldispersion=gd3bj scf=xqc pop=npa geom=c
 heck
 ----------------------------------------------------------------------

 ---------------------------------------
 CID_110781748_JID_6809_Energie_neutraal
 ---------------------------------------
 Structure from the checkpoint file:  "JID_6809.chk"
 Charge =  0 Multiplicity = 1

 SCF Done:  E(RB3LYP) =  -748.224528954     A.U. after   15 cycles
 Normal termination of Gaussian 16 at Fri Dec 11 01:01:35 2020.

 ----------------------------------------------------------------------
 # B3LYP/6-311++G(d,p) empiricaldispersion=gd3bj scf=xqc pop=npa geom=c
 heck
 ----------------------------------------------------------------------

 -------------------------------------
 CID_110781748_JID_6809_Energie_kation
 -------------------------------------
 Structure from the checkpoint file:  "JID_6809.chk"
 Charge =  1 Multiplicity = 2

 SCF Done:  E(UB3LYP) =  -747.936245584     A.U. after   23 cycles
 Normal termination of Gaussian 16 at Fri Dec 11 01:13:25 2020.
 Gaussian 16:  ES64L-G16RevA.03 25-Dec-2016

 ----------------------------------------------------------------------
 # B3LYP/6-311++G(d,p) empiricaldispersion=gd3bj scf=xqc pop=npa geom=c
 heck
 ----------------------------------------------------------------------

 ------------------------------------
 CID_110781748_JID_6809_Energie_anion
 ------------------------------------
 Structure from the checkpoint file:  "JID_6809.chk"
 Charge = -1 Multiplicity = 2

                         Standard orientation:
 ---------------------------------------------------------------------
 Center     Atomic      Atomic             Coordinates (Angstroms)
 Number     Number       Type             X           Y           Z
 ---------------------------------------------------------------------
      1          6           0        4.331389   -1.582300   -0.619478
      2          6           0        3.355471   -1.466676    0.563262
      3          6           0        2.094709   -0.716748    0.205587
      4          6           0        2.103812    0.687627    0.096736
      5          6           0        0.943757    1.380719   -0.263268
      6          6           0       -0.233889    0.679546   -0.521178
      7          6           0       -0.273691   -0.712206   -0.420452
      8          6           0        0.898930   -1.383630   -0.056129
      9          6           0       -1.561160   -1.473073   -0.657896
     10          7           0       -2.542165   -1.324140    0.419413
     11          6           0       -3.461471   -0.317637    0.517373
     12          8           0       -4.098621   -0.058403    1.521888
     13          8           0       -3.608791    0.344936   -0.665193
     14          6           0       -4.614359    1.364656   -0.644811
     15          8           0        3.302150    1.292119    0.364567
     16          6           0        3.368525    2.705906    0.297397
     17          1           0        3.863029   -2.105126   -1.460792
     18          1           0        5.231323   -2.136902   -0.330249
     19          1           0        4.636345   -0.589470   -0.962767
     20          1           0        3.084349   -2.469603    0.913966
     21          1           0        3.859688   -0.960513    1.394103
     22          1           0        0.948293    2.460864   -0.349421
     23          1           0       -1.131995    1.222693   -0.799846
     24          1           0        0.885096   -2.469268    0.027520
     25          1           0       -2.047698   -1.145037   -1.577650
     26          1           0       -1.347274   -2.542057   -0.764042
     27          1           0       -2.291498   -1.699985    1.324260
     28          1           0       -5.596082    0.935132   -0.428833
     29          1           0       -4.385110    2.119293    0.111890
     30          1           0       -4.601111    1.804780   -1.642772
     31          1           0        4.394977    2.970423    0.556968
     32          1           0        3.143188    3.072071   -0.712839
     33          1           0        2.679595    3.175369    1.011667
 ---------------------------------------------------------------------

 SCF Done:  E(UB3LYP) =  -748.212228529     A.U. after   33 cycles
 SCF Done:  E(UB3LYP) =  -748.212228529     a.u. after    1 cycles

 The electronic state is 2-A.
 Alpha  occ. eigenvalues --  -19.07836 -19.05959 -19.00864 -14.25085 -10.23099
 Alpha  occ. eigenvalues --  -10.13770 -10.13685 -10.12636 -10.12325 -10.08316
 Alpha  occ. eigenvalues --  -10.08225 -10.08009 -10.07785 -10.07780 -10.07682
 Alpha  occ. eigenvalues --  -10.06563  -1.02240  -0.97545  -0.92917  -0.84443
 Alpha  occ. eigenvalues --   -0.76608  -0.70035  -0.67391  -0.64189  -0.63623
 Alpha  occ. eigenvalues --   -0.62198  -0.58094  -0.54239  -0.50944  -0.50287
 Alpha  occ. eigenvalues --   -0.48064  -0.44886  -0.43675  -0.41437  -0.40476
 Alpha  occ. eigenvalues --   -0.39690  -0.37778  -0.37522  -0.36585  -0.35400
 Alpha  occ. eigenvalues --   -0.34636  -0.34391  -0.33493  -0.33047  -0.32078
 Alpha  occ. eigenvalues --   -0.30722  -0.29916  -0.28891  -0.27838  -0.27158
 Alpha  occ. eigenvalues --   -0.26723  -0.26218  -0.24707  -0.23045  -0.22663
 Alpha  occ. eigenvalues --   -0.21958  -0.19722  -0.17618  -0.15858  -0.12739
 Alpha  occ. eigenvalues --    0.04037
 Alpha virt. eigenvalues --    0.05721   0.05931   0.07048   0.07585   0.07982
 Alpha virt. eigenvalues --    0.08221   0.09013   0.09170   0.09535   0.09735
 Alpha virt. eigenvalues --    0.10057   0.10497   0.10737   0.11136   0.12079

  Beta  occ. eigenvalues --  -19.07829 -19.05949 -19.00859 -14.25076 -10.23097
  Beta  occ. eigenvalues --  -10.13758 -10.13657 -10.12588 -10.12314 -10.08299
  Beta  occ. eigenvalues --  -10.08225 -10.07997 -10.07777 -10.07767 -10.07644
  Beta  occ. eigenvalues --  -10.06541  -1.02230  -0.97519  -0.92908  -0.84428
  Beta  occ. eigenvalues --   -0.76573  -0.69996  -0.67356  -0.64145  -0.63579
  Beta  occ. eigenvalues --   -0.62152  -0.58039  -0.54183  -0.50900  -0.50242
  Beta  occ. eigenvalues --   -0.48026  -0.44870  -0.43629  -0.41411  -0.40453
  Beta  occ. eigenvalues --   -0.39663  -0.37733  -0.37486  -0.36549  -0.35357
  Beta  occ. eigenvalues --   -0.34604  -0.34358  -0.33455  -0.33016  -0.32049
  Beta  occ. eigenvalues --   -0.30683  -0.29885  -0.28853  -0.27809  -0.27123
  Beta  occ. eigenvalues --   -0.26676  -0.26176  -0.24685  -0.23000  -0.22613
  Beta  occ. eigenvalues --   -0.21940  -0.19714  -0.17604  -0.15766  -0.12653
  Beta virt. eigenvalues --    0.06003   0.06419   0.06882   0.07419   0.07805
  Beta virt. eigenvalues --    0.08216   0.08815   0.09226   0.09373   0.09723
  Beta virt. eigenvalues --    0.10212   0.10428   0.10628   0.11082   0.11555

 Mulliken charges and spin densities:
               1          2
     1  C    0.426856  -1.055043
     2  C   -0.634114   0.213124
     3  C    0.539261   0.589264
     4  C   -1.266622   0.504870
     5  C    0.303193  -0.594868
     6  C    0.420396  -0.808551
     7  C    1.702461  -0.340890
     8  C   -1.131582   0.361829
     9  C    0.113718  -1.015372
    10  N   -0.171510   0.046052
    11  C    0.058398  -0.010973
    12  O   -0.335860   0.013678
    13  O   -0.183922   0.044324
    14  C    0.463984  -0.727395
    15  O   -0.202998   0.070198
    16  C    0.806071  -1.120817
    17  H   -0.015091   0.140643
    18  H   -0.146952   0.269011
    19  H    0.005471   0.163182
    20  H   -0.205822   0.361144
    21  H    0.071909   0.101160
    22  H   -0.450721   0.667500
    23  H    0.072532   0.071810
    24  H   -0.108434   0.237480
    25  H    0.090563   0.131789
    26  H   -0.131436   0.323873
    27  H    0.193337   0.101583
    28  H   -0.034169   0.197913
    29  H   -0.018098   0.199593
    30  H   -0.290413   0.435852
    31  H   -0.625841   0.803322
    32  H   -0.113650   0.268334
    33  H   -0.200914   0.356383
 Sum of Mulliken charges =  -1.00000   1.00000

 Dipole moment (field-independent basis, Debye):
    X=             -2.6705    Y=             -3.6321    Z=             -0.4564  Tot=              4.5313
 Quadrupole moment (field-independent basis, Debye-Ang):
   XX=           -194.5048   YY=           -147.3400   ZZ=           -129.3834
   XY=             -4.3129   XZ=              1.6813   YZ=              0.0543

 Summary of Natural Population Analysis:

                                       Natural Population
                Natural  -----------------------------------------------
    Atom  No    Charge         Core      Valence    Rydberg      Total
 -----------------------------------------------------------------------
      C    1   -0.27971      0.99966     2.27596    0.00409     3.27971
      C    2   -0.19624      0.99961     2.18854    0.00809     3.19624
      C    3   -0.02837      0.99947     2.01859    0.01030     3.02837
      C    4    0.16554      0.99933     1.82179    0.01333     2.83446
      C    5   -0.13627      0.99953     2.12772    0.00903     3.13627
      C    6   -0.08473      0.99952     2.07572    0.00949     3.08473
      C    7   -0.04341      0.99950     2.03442    0.00949     3.04341
      C    8   -0.09173      0.99948     2.08366    0.00859     3.09173
      C    9   -0.09436      0.99957     2.08350    0.01130     3.09436
      N   10   -0.32202      0.99967     2.81276    0.00959     3.82202
      C   11    0.46200      0.99969     1.51428    0.02403     2.53800
      O   12   -0.33190      0.99987     3.32654    0.00550     4.33190
      O   13   -0.28909      0.99987     3.28091    0.00832     4.28909
      C   14   -0.10212      0.99960     2.09297    0.00956     3.10212
      O   15   -0.27561      0.99986     3.26532    0.01042     4.27561
      C   16   -0.10018      0.99960     2.09133    0.00926     3.10018
      H   17    0.09448      0.00000     0.40416    0.00136     0.40552
      H   18    0.09525      0.00000     0.40352    0.00123     0.40475
      H   19    0.10246      0.00000     0.39594    0.00160     0.39754
      H   20    0.09635      0.00000     0.40221    0.00144     0.40365
      H   21    0.10537      0.00000     0.39295    0.00168     0.39463
      H   22    0.10730      0.00000     0.39123    0.00147     0.39270
      H   23    0.10493      0.00000     0.39312    0.00195     0.39507
      H   24    0.09745      0.00000     0.40111    0.00145     0.40255
      H   25    0.11084      0.00000     0.38740    0.00175     0.38916
      H   26    0.09762      0.00000     0.40108    0.00130     0.40238
      H   27    0.19502      0.00000     0.30281    0.00218     0.30498
      H   28    0.08950      0.00000     0.40953    0.00097     0.41050
      H   29    0.09250      0.00000     0.40642    0.00108     0.40750
      H   30    0.09259      0.00000     0.40606    0.00134     0.40741
      H   31    0.09556      0.00000     0.40292    0.00152     0.40444
      H   32    0.08467      0.00000     0.41362    0.00171     0.41533
      H   33    0.08632      0.00000     0.41175    0.00193     0.41368
 =======================================================================
   * Total *    0.00000     15.99383    43.81984    0.18633    60.00000

 Normal termination of Gaussian 16 at Fri Dec 11 01:30:21 2020.
