 Gaussian 16, Revision A.03,

 -----------------------------------------------------------
 # opt freq B3LYP/6-31G(d) empiricaldispersion=gd3bj scf=xqc
 -----------------------------------------------------------

 -----------------------------
 CID_88708722_JID_787_neutraal
 -----------------------------
 Symbolic Z-matrix:
 Charge =  0 Multiplicity = 1

 SCF Done:  E(RB3LYP) =  -834.827908044     A.U. after   15 cycles
 SCF Done:  E(RB3LYP) =  -834.835388686     A.U. after   13 cycles
 SCF Done:  E(RB3LYP) =  -834.836424757     A.U. after   14 cycles
 SCF Done:  E(RB3LYP) =  -834.837521984     A.U. after   12 cycles
 SCF Done:  E(RB3LYP) =  -834.837720851     A.U. after   11 cycles
 SCF Done:  E(RB3LYP) =  -834.837760956     A.U. after   11 cycles
 SCF Done:  E(RB3LYP) =  -834.837777504     A.U. after   10 cycles
 SCF Done:  E(RB3LYP) =  -834.837805818     A.U. after   11 cycles
 SCF Done:  E(RB3LYP) =  -834.837831519     A.U. after   11 cycles
 SCF Done:  E(RB3LYP) =  -834.837832740     A.U. after   12 cycles
 SCF Done:  E(RB3LYP) =  -834.826553585     A.U. after   13 cycles
 SCF Done:  E(RB3LYP) =  -834.837906229     A.U. after   12 cycles
 SCF Done:  E(RB3LYP) =  -834.837943700     A.U. after    7 cycles
 SCF Done:  E(RB3LYP) =  -834.837943888     A.U. after   11 cycles
 SCF Done:  E(RB3LYP) =  -834.837948305     A.U. after   10 cycles
 SCF Done:  E(RB3LYP) =  -834.837948614     A.U. after    8 cycles
 Optimization completed.
    -- Stationary point found.
 Normal termination of Gaussian 16 at Tue Dec  8 13:31:40 2020.

 --------------------------------------------------------------------
 #N Geom=AllCheck Guess=TCheck SCRF=Check GenChk RB3LYP/6-31G(d) Freq
 --------------------------------------------------------------------

 Structure from the checkpoint file:  "JID_787.chk"
 -----------------------------
 CID_88708722_JID_787_neutraal
 -----------------------------
 Charge =  0 Multiplicity = 1

 SCF Done:  E(RB3LYP) =  -834.837948614     A.U. after    1 cycles

  Exact polarizability: 120.046   2.355  77.246   6.094   4.383  80.645
 Approx polarizability: 153.737   2.374 113.818   8.607  16.103 139.736

                      1                      2                      3
                      A                      A                      A
 Frequencies --     19.4122                55.0692                62.2964
 Red. masses --      5.8796                 4.6406                 4.7518
 Frc consts  --      0.0013                 0.0083                 0.0109
 IR Inten    --      3.0883                 8.1034                 3.8491

                      4                      5                      6
                      A                      A                      A
 Frequencies --    160.7322               207.9047               283.3096
 Red. masses --      7.8007                 2.5223                 2.5032
 Frc consts  --      0.1187                 0.0642                 0.1184
 IR Inten    --      3.2239                 0.5108                 8.6441

                      7                      8                      9
                      A                      A                      A
 Frequencies --    329.8500               348.1255               394.3156
 Red. masses --      1.4762                 2.3802                 2.2607
 Frc consts  --      0.0946                 0.1700                 0.2071
 IR Inten    --    172.1480                77.0096                 3.2568

                     10                     11                     12
                      A                      A                      A
 Frequencies --    429.0617               446.8849               455.8239
 Red. masses --      4.1578                 2.6067                 1.1899
 Frc consts  --      0.4510                 0.3067                 0.1457
 IR Inten    --      2.9862                 4.7929                27.3265

                     13                     14                     15
                      A                      A                      A
 Frequencies --    488.6849               497.5893               588.9234
 Red. masses --      2.9923                 5.0700                 2.1226
 Frc consts  --      0.4210                 0.7396                 0.4338
 IR Inten    --      0.4499                 1.2443                 5.9354

                     16                     17                     18
                      A                      A                      A
 Frequencies --    633.7430               655.7060               680.7711
 Red. masses --      2.9717                 3.2582                 5.3643
 Frc consts  --      0.7032                 0.8254                 1.4648
 IR Inten    --     36.6553                31.7184                22.4342

                     19                     20                     21
                      A                      A                      A
 Frequencies --    800.6072               838.6975               870.8349
 Red. masses --      2.2185                 1.6238                 1.8990
 Frc consts  --      0.8378                 0.6730                 0.8485
 IR Inten    --    147.6734                 0.0229                55.7926

                     22                     23                     24
                      A                      A                      A
 Frequencies --    895.3341               958.2116              1029.7625
 Red. masses --      2.5652                 2.4536                 2.3640
 Frc consts  --      1.2115                 1.3273                 1.4770
 IR Inten    --      2.1515                14.0369                 8.6987

                     25                     26                     27
                      A                      A                      A
 Frequencies --   1031.1962              1052.2966              1102.4990
 Red. masses --      1.6620                 2.2831                 2.0661
 Frc consts  --      1.0412                 1.4895                 1.4796
 IR Inten    --     13.2692                 4.0129                23.6855

                     28                     29                     30
                      A                      A                      A
 Frequencies --   1138.4854              1168.5652              1182.3316
 Red. masses --      3.2859                 3.3914                 2.1177
 Frc consts  --      2.5093                 2.7285                 1.7442
 IR Inten    --     31.1869                 0.5540                 6.4045

                     31                     32                     33
                      A                      A                      A
 Frequencies --   1223.7639              1279.5763              1289.5830
 Red. masses --      1.3028                 2.8753                 1.2496
 Frc consts  --      1.1496                 2.7737                 1.2243
 IR Inten    --      4.7462               331.1858                16.7437

                     34                     35                     36
                      A                      A                      A
 Frequencies --   1345.3020              1353.5136              1365.0208
 Red. masses --      1.3160                 1.3095                 1.2721
 Frc consts  --      1.4033                 1.4134                 1.3966
 IR Inten    --      0.9199                 3.5816                 0.0035

                     37                     38                     39
                      A                      A                      A
 Frequencies --   1385.7919              1408.0545              1414.5463
 Red. masses --      1.2805                 1.3162                 1.3436
 Frc consts  --      1.4489                 1.5375                 1.5839
 IR Inten    --     10.5591                13.0330                18.7861

                     40                     41                     42
                      A                      A                      A
 Frequencies --   1490.7978              1502.4765              1504.8995
 Red. masses --      1.0951                 1.0785                 1.0964
 Frc consts  --      1.4339                 1.4345                 1.4630
 IR Inten    --      8.0387                 2.8987                 6.1322

                     43                     44                     45
                      A                      A                      A
 Frequencies --   1511.4146              1512.6944              1645.9323
 Red. masses --      1.0992                 1.1775                 1.1793
 Frc consts  --      1.4794                 1.5875                 1.8824
 IR Inten    --      3.6602                 3.8669               118.9463

                     46                     47                     48
                      A                      A                      A
 Frequencies --   1847.2559              3017.8125              3025.5100
 Red. masses --     10.8775                 1.0700                 1.0713
 Frc consts  --     21.8693                 5.7415                 5.7779
 IR Inten    --    270.2165                20.3393                45.3464

                     49                     50                     51
                      A                      A                      A
 Frequencies --   3035.6482              3040.3549              3088.0144
 Red. masses --      1.0610                 1.0621                 1.1029
 Frc consts  --      5.7608                 5.7844                 6.1964
 IR Inten    --     25.5684                46.9560                53.3507

                     52                     53                     54
                      A                      A                      A
 Frequencies --   3089.5126              3117.9065              3123.5205
 Red. masses --      1.1032                 1.0955                 1.0956
 Frc consts  --      6.2044                 6.2744                 6.2976
 IR Inten    --     54.3455                24.6724                19.2621

                     55                     56                     57
                      A                      A                      A
 Frequencies --   3460.5767              3573.3383              3693.0077
 Red. masses --      1.0736                 1.0452                 1.1036
 Frc consts  --      7.5748                 7.8630                 8.8681
 IR Inten    --      3.6002                43.5416                32.6200

 - Thermochemistry -
 -------------------
 Temperature   298.150 Kelvin.  Pressure   1.00000 Atm.
 Atom     1 has atomic number  6 and mass  12.00000

 Molecular mass:   161.06228 amu.
 Principal axes and moments of inertia in atomic units:
                           1         2         3
     Eigenvalues --   648.849282865.529882928.44378
           X            0.99993   0.00825   0.00905
           Y           -0.00681   0.98881  -0.14901
           Z           -0.01018   0.14894   0.98879
 This molecule is an asymmetric top.
 Rotational symmetry number  1.
 Warning -- assumption of classical behavior for rotation
           may cause significant error
 Rotational temperatures (Kelvin)      0.13349     0.03023     0.02958
 Rotational constants (GHZ):           2.78145     0.62981     0.61628
 Zero-point vibrational energy     461476.5 (Joules/Mol)
                                  110.29554 (Kcal/Mol)
 Warning -- explicit consideration of  15 degrees of freedom as
           vibrations may cause significant error
 Vibrational temperatures:     27.93    79.23    89.63   231.26   299.13
          (Kelvin)            407.62   474.58   500.87   567.33   617.32
                              642.97   655.83   703.11   715.92   847.33
                              911.81   943.41   979.48  1151.90  1206.70
                             1252.94  1288.19  1378.65  1481.60  1483.66
                             1514.02  1586.25  1638.03  1681.30  1701.11
                             1760.72  1841.02  1855.42  1935.59  1947.40
                             1963.96  1993.85  2025.88  2035.22  2144.93
                             2161.73  2165.21  2174.59  2176.43  2368.13
                             2657.79  4341.96  4353.03  4367.62  4374.39
                             4442.96  4445.12  4485.97  4494.05  4979.00
                             5141.24  5313.41

 Zero-point correction=                           0.175767 (Hartree/Particle)
 Thermal correction to Energy=                    0.186237
 Thermal correction to Enthalpy=                  0.187182
 Thermal correction to Gibbs Free Energy=         0.138085
 Sum of electronic and zero-point Energies=           -834.662181
 Sum of electronic and thermal Energies=              -834.651711
 Sum of electronic and thermal Enthalpies=            -834.650767
 Sum of electronic and thermal Free Energies=         -834.699863

                     E (Thermal)             CV                S
                      KCal/Mol        Cal/Mol-Kelvin    Cal/Mol-Kelvin
 Total                  116.866             38.766            103.332
 Electronic               0.000              0.000              0.000
 Translational            0.889              2.981             41.139
 Rotational               0.889              2.981             30.077
 Vibrational            115.088             32.804             32.116
 Vibration     1          0.593              1.986              6.693
 Vibration     2          0.596              1.976              4.627
 Vibration     3          0.597              1.972              4.383
 Vibration     4          0.622              1.891              2.541
 Vibration     5          0.641              1.829              2.062
 Vibration     6          0.682              1.705              1.514
 Vibration     7          0.713              1.616              1.261
 Vibration     8          0.726              1.579              1.175
 Vibration     9          0.761              1.482              0.984
 Vibration    10          0.790              1.407              0.862
 Vibration    11          0.806              1.368              0.805
 Vibration    12          0.814              1.348              0.778
 Vibration    13          0.845              1.275              0.687
 Vibration    14          0.853              1.255              0.664
 Vibration    15          0.946              1.055              0.469

 Optimization completed.
    -- Stationary point found.
 Normal termination of Gaussian 16 at Tue Dec  8 13:36:32 2020.

 ----------------------------------------------------------------------
 # B3LYP/6-311++G(d,p) empiricaldispersion=gd3bj scf=xqc pop=npa geom=c
 heck
 ----------------------------------------------------------------------

 -------------------------------------
 CID_88708722_JID_787_Energie_neutraal
 -------------------------------------
 Structure from the checkpoint file:  "JID_787.chk"
 Charge =  0 Multiplicity = 1

 SCF Done:  E(RB3LYP) =  -835.003845191     A.U. after   14 cycles
 Normal termination of Gaussian 16 at Tue Dec  8 13:38:43 2020.

 ----------------------------------------------------------------------
 # B3LYP/6-311++G(d,p) empiricaldispersion=gd3bj scf=xqc pop=npa geom=c
 heck
 ----------------------------------------------------------------------

 -----------------------------------
 CID_88708722_JID_787_Energie_kation
 -----------------------------------
 Structure from the checkpoint file:  "JID_787.chk"
 Charge =  1 Multiplicity = 2

 SCF Done:  E(UB3LYP) =  -834.724207435     A.U. after   21 cycles
 Normal termination of Gaussian 16 at Tue Dec  8 13:43:34 2020.
 Gaussian 16:  ES64L-G16RevA.03 25-Dec-2016

 ----------------------------------------------------------------------
 # B3LYP/6-311++G(d,p) empiricaldispersion=gd3bj scf=xqc pop=npa geom=c
 heck
 ----------------------------------------------------------------------

 ----------------------------------
 CID_88708722_JID_787_Energie_anion
 ----------------------------------
 Structure from the checkpoint file:  "JID_787.chk"
 Charge = -1 Multiplicity = 2

                         Standard orientation:
 ---------------------------------------------------------------------
 Center     Atomic      Atomic             Coordinates (Angstroms)
 Number     Number       Type             X           Y           Z
 ---------------------------------------------------------------------
      1          6           0        2.243978    1.074606   -0.681500
      2          6           0        1.037759    1.335510    0.229882
      3          7           0        0.253853    0.113570    0.464447
      4          6           0        1.090427   -0.990448    0.956739
      5          6           0        2.298771   -1.244356    0.044931
      6          7           0        3.087445   -0.035277   -0.220314
      7         16           0       -0.862960   -0.295218   -0.762570
      8          6           0       -2.416766    0.084229    0.157320
      9          8           0       -2.437225    0.614197    1.242185
     10          7           0       -3.518471   -0.254633   -0.579263
     11          1           0        1.882830    0.825340   -1.688885
     12          1           0        2.865803    1.973221   -0.771126
     13          1           0        0.373809    2.103299   -0.175326
     14          1           0        1.385256    1.680931    1.214948
     15          1           0        1.439504   -0.700158    1.959094
     16          1           0        0.466608   -1.881717    1.066111
     17          1           0        1.942536   -1.630902   -0.920141
     18          1           0        2.958827   -2.005653    0.477579
     19          1           0        3.554507    0.245948    0.642441
     20          1           0       -3.439366   -0.921192   -1.335001
     21          1           0       -4.409968   -0.202073   -0.104379
 ---------------------------------------------------------------------

 SCF Done:  E(UB3LYP) =  -834.992635240     A.U. after   29 cycles

 The electronic state is 2-A.
 Alpha  occ. eigenvalues --  -88.76250 -18.99685 -14.22726 -14.22642 -14.20167
 Alpha  occ. eigenvalues --  -10.18523 -10.09699 -10.09694 -10.09514 -10.09415
 Alpha  occ. eigenvalues --   -7.84707  -5.81149  -5.80700  -5.80066  -0.94674
 Alpha  occ. eigenvalues --   -0.84759  -0.80539  -0.79339  -0.66654  -0.64143
 Alpha  occ. eigenvalues --   -0.55403  -0.54559  -0.50169  -0.46521  -0.43194
 Alpha  occ. eigenvalues --   -0.38963  -0.36854  -0.36707  -0.36279  -0.34360
 Alpha  occ. eigenvalues --   -0.34304  -0.31407  -0.29945  -0.29608  -0.29331
 Alpha  occ. eigenvalues --   -0.26082  -0.25106  -0.24377  -0.17902  -0.17167
 Alpha  occ. eigenvalues --   -0.15382  -0.14526  -0.10508   0.04437
 Alpha virt. eigenvalues --    0.06086   0.07813   0.08539   0.09521   0.09782
 Alpha virt. eigenvalues --    0.11042   0.11265   0.11382   0.11592   0.12449
 Alpha virt. eigenvalues --    0.12979   0.14468   0.14725   0.15156   0.16566

  Beta  occ. eigenvalues --  -88.76233 -18.99677 -14.22694 -14.22533 -14.20144
  Beta  occ. eigenvalues --  -10.18517 -10.09684 -10.09677 -10.09504 -10.09401
  Beta  occ. eigenvalues --   -7.84685  -5.81130  -5.80683  -5.80049  -0.94655
  Beta  occ. eigenvalues --   -0.84710  -0.80401  -0.79278  -0.66627  -0.64062
  Beta  occ. eigenvalues --   -0.55346  -0.54514  -0.50050  -0.46406  -0.43093
  Beta  occ. eigenvalues --   -0.38886  -0.36824  -0.36662  -0.36247  -0.34332
  Beta  occ. eigenvalues --   -0.34269  -0.31366  -0.29895  -0.29578  -0.29271
  Beta  occ. eigenvalues --   -0.26053  -0.25071  -0.24333  -0.17820  -0.17122
  Beta  occ. eigenvalues --   -0.15345  -0.14464  -0.10465
  Beta virt. eigenvalues --    0.06901   0.08087   0.08266   0.08808   0.10024
  Beta virt. eigenvalues --    0.10560   0.11274   0.11347   0.11545   0.12142
  Beta virt. eigenvalues --    0.12584   0.13634   0.14491   0.14710   0.15481

 Mulliken charges and spin densities:
               1          2
     1  C    0.416794  -0.834429
     2  C   -0.260875   0.021003
     3  N   -0.092193   0.096934
     4  C   -0.310631   0.109612
     5  C    0.633702  -1.053926
     6  N   -0.304241   0.156032
     7  S    0.537503  -0.511824
     8  C    0.218338  -0.335249
     9  O   -0.244836  -0.028582
    10  N   -0.138786  -0.136575
    11  H    0.065415   0.072454
    12  H   -0.076975   0.252943
    13  H    0.152830   0.006154
    14  H   -0.171341   0.334260
    15  H   -0.216475   0.386365
    16  H    0.028623   0.127391
    17  H    0.004490   0.135371
    18  H   -0.141907   0.321668
    19  H   -0.125871   0.359862
    20  H   -0.578449   0.843229
    21  H   -0.395115   0.677307
 Sum of Mulliken charges =  -1.00000   1.00000

 Dipole moment (field-independent basis, Debye):
    X=              4.2713    Y=              1.2517    Z=             -0.3484  Tot=              4.4645
 Quadrupole moment (field-independent basis, Debye-Ang):
   XX=           -151.8290   YY=            -92.3131   ZZ=            -99.7890
   XY=             -6.3051   XZ=            -10.2447   YZ=             -5.6309

 Summary of Natural Population Analysis:

                                       Natural Population
                Natural  -----------------------------------------------
    Atom  No    Charge         Core      Valence    Rydberg      Total
 -----------------------------------------------------------------------
      C    1   -0.09968      0.99962     2.08858    0.01147     3.09968
      C    2   -0.09147      0.99960     2.07995    0.01192     3.09147
      N    3   -0.32982      0.99975     2.81505    0.01502     3.82982
      C    4   -0.09157      0.99960     2.08012    0.01185     3.09157
      C    5   -0.09930      0.99962     2.08811    0.01157     3.09930
      N    6   -0.33838      0.99976     2.82424    0.01437     3.83838
      S    7    0.15273      4.99951     2.82546    0.02230     7.84727
      C    8    0.26838      0.99974     1.70286    0.02902     2.73162
      O    9   -0.30313      0.99986     3.29492    0.00835     4.30313
      N   10   -0.40915      0.99970     2.89841    0.01104     3.90915
      H   11    0.09123      0.00000     0.40753    0.00124     0.40877
      H   12    0.09482      0.00000     0.40422    0.00096     0.40518
      H   13    0.10245      0.00000     0.39672    0.00083     0.39755
      H   14    0.09502      0.00000     0.40337    0.00161     0.40498
      H   15    0.09498      0.00000     0.40324    0.00178     0.40502
      H   16    0.10264      0.00000     0.39641    0.00096     0.39736
      H   17    0.09097      0.00000     0.40777    0.00126     0.40903
      H   18    0.09576      0.00000     0.40317    0.00108     0.40424
      H   19    0.17128      0.00000     0.32483    0.00389     0.32872
      H   20    0.20227      0.00000     0.27991    0.01782     0.29773
      H   21    0.19995      0.00000     0.29264    0.00740     0.30005
 =======================================================================
   * Total *   -0.00000     13.99677    28.81750    0.18573    43.00000

 Normal termination of Gaussian 16 at Tue Dec  8 13:50:02 2020.
