 Gaussian 16, Revision A.03,

 -----------------------------------------------------------
 # opt freq B3LYP/6-31G(d) empiricaldispersion=gd3bj scf=xqc
 -----------------------------------------------------------

 -------------------------------
 CID_104280380_JID_6887_neutraal
 -------------------------------
 Symbolic Z-matrix:
 Charge =  0 Multiplicity = 1

 SCF Done:  E(RB3LYP) =  -715.640115453     A.U. after   12 cycles
 SCF Done:  E(RB3LYP) =  -715.658171421     A.U. after   10 cycles
 SCF Done:  E(RB3LYP) =  -715.660929509     A.U. after   11 cycles
 SCF Done:  E(RB3LYP) =  -715.661363015     A.U. after   10 cycles
 SCF Done:  E(RB3LYP) =  -715.661711780     A.U. after   11 cycles
 SCF Done:  E(RB3LYP) =  -715.661837830     A.U. after   10 cycles
 SCF Done:  E(RB3LYP) =  -715.661868953     A.U. after    9 cycles
 SCF Done:  E(RB3LYP) =  -715.661875073     A.U. after    8 cycles
 SCF Done:  E(RB3LYP) =  -715.661877030     A.U. after    7 cycles
 SCF Done:  E(RB3LYP) =  -715.661877286     A.U. after    7 cycles
 SCF Done:  E(RB3LYP) =  -715.661877430     A.U. after    6 cycles
 SCF Done:  E(RB3LYP) =  -715.661877501     A.U. after    6 cycles
 Optimization completed.
    -- Stationary point found.
 Normal termination of Gaussian 16 at Fri Dec 11 01:03:06 2020.

 --------------------------------------------------------------------
 #N Geom=AllCheck Guess=TCheck SCRF=Check GenChk RB3LYP/6-31G(d) Freq
 --------------------------------------------------------------------

 Structure from the checkpoint file:  "JID_6887.chk"
 -------------------------------
 CID_104280380_JID_6887_neutraal
 -------------------------------
 Charge =  0 Multiplicity = 1

 SCF Done:  E(RB3LYP) =  -715.661877501     A.U. after    1 cycles

  Exact polarizability: 169.807   0.541 136.180   2.396   1.751 128.895
 Approx polarizability: 204.686   1.937 195.542  -2.904   6.169 202.119

                      1                      2                      3
                      A                      A                      A
 Frequencies --     26.9328                56.6697                67.4472
 Red. masses --      3.4010                 3.9886                 3.3631
 Frc consts  --      0.0015                 0.0075                 0.0090
 IR Inten    --      0.0378                 0.0356                 0.1012

                      4                      5                      6
                      A                      A                      A
 Frequencies --     94.3906               131.4988               137.9734
 Red. masses --      3.8682                 2.9710                 2.3172
 Frc consts  --      0.0203                 0.0303                 0.0260
 IR Inten    --      3.6697                 0.1396                 1.5166

                      7                      8                      9
                      A                      A                      A
 Frequencies --    159.5343               183.9769               196.9586
 Red. masses --      2.4268                 2.7347                 1.3115
 Frc consts  --      0.0364                 0.0545                 0.0300
 IR Inten    --      1.2555                 0.2227                 1.8016

                     10                     11                     12
                      A                      A                      A
 Frequencies --    210.1417               263.5225               272.6747
 Red. masses --      2.3326                 1.9261                 1.5173
 Frc consts  --      0.0607                 0.0788                 0.0665
 IR Inten    --      3.0722                 1.7466                25.8992

                     13                     14                     15
                      A                      A                      A
 Frequencies --    279.0938               298.8615               304.5229
 Red. masses --      1.1128                 1.7086                 1.3563
 Frc consts  --      0.0511                 0.0899                 0.0741
 IR Inten    --     67.4832                31.3537                53.8140

                     16                     17                     18
                      A                      A                      A
 Frequencies --    309.3048               334.2526               351.0826
 Red. masses --      2.3743                 2.4654                 3.6781
 Frc consts  --      0.1338                 0.1623                 0.2671
 IR Inten    --     32.7418                 0.9779                 6.6836

                     19                     20                     21
                      A                      A                      A
 Frequencies --    358.8728               383.7408               415.4397
 Red. masses --      2.5840                 2.5813                 3.3917
 Frc consts  --      0.1961                 0.2240                 0.3449
 IR Inten    --      1.0278                 3.1031                 2.1408

                     22                     23                     24
                      A                      A                      A
 Frequencies --    418.0502               452.3644               483.1534
 Red. masses --      2.7356                 3.0758                 1.8814
 Frc consts  --      0.2817                 0.3708                 0.2588
 IR Inten    --      7.2532                10.0159                 8.1854

                     25                     26                     27
                      A                      A                      A
 Frequencies --    519.8233               535.0987               558.8078
 Red. masses --      1.8934                 3.1291                 2.9383
 Frc consts  --      0.3014                 0.5279                 0.5406
 IR Inten    --      0.1806                 8.1130                 5.3338

                     28                     29                     30
                      A                      A                      A
 Frequencies --    628.8238               642.4927               747.2402
 Red. masses --      3.4824                 3.0389                 2.6538
 Frc consts  --      0.8113                 0.7391                 0.8731
 IR Inten    --      1.5472                 0.7809                15.9543

                     31                     32                     33
                      A                      A                      A
 Frequencies --    763.7330               795.4810               830.9838
 Red. masses --      1.4052                 2.3184                 1.5987
 Frc consts  --      0.4829                 0.8644                 0.6504
 IR Inten    --      1.9854                18.9670                28.2953

                     34                     35                     36
                      A                      A                      A
 Frequencies --    843.5400               865.4688               880.7840
 Red. masses --      2.4562                 1.9424                 2.2796
 Frc consts  --      1.0297                 0.8572                 1.0420
 IR Inten    --     28.5917                10.4010                 8.4296

                     37                     38                     39
                      A                      A                      A
 Frequencies --    885.5460               921.7565               940.0075
 Red. masses --      1.9965                 2.1479                 1.9801
 Frc consts  --      0.9224                 1.0752                 1.0308
 IR Inten    --      4.6067                11.3266                24.6708

                     40                     41                     42
                      A                      A                      A
 Frequencies --    954.8344               972.0224               981.4242
 Red. masses --      2.1646                 1.3760                 2.1494
 Frc consts  --      1.1628                 0.7660                 1.2198
 IR Inten    --      4.3423                 1.2243                 2.6339

                     43                     44                     45
                      A                      A                      A
 Frequencies --    996.6146              1022.6634              1029.7837
 Red. masses --      2.0472                 2.2028                 1.4727
 Frc consts  --      1.1980                 1.3573                 0.9202
 IR Inten    --      4.4369                 9.8858                 3.0885

                     46                     47                     48
                      A                      A                      A
 Frequencies --   1031.7873              1046.2010              1059.9435
 Red. masses --      1.8898                 2.4336                 1.8232
 Frc consts  --      1.1854                 1.5694                 1.2068
 IR Inten    --     22.4170                37.6530                 3.9225

                     49                     50                     51
                      A                      A                      A
 Frequencies --   1081.1818              1083.5291              1121.0609
 Red. masses --      2.3096                 2.5616                 2.3019
 Frc consts  --      1.5907                 1.7719                 1.7045
 IR Inten    --     17.0180                51.0655                11.6514

                     52                     53                     54
                      A                      A                      A
 Frequencies --   1134.2155              1142.6077              1160.4700
 Red. masses --      1.9839                 2.2459                 1.8086
 Frc consts  --      1.5037                 1.7275                 1.4351
 IR Inten    --     80.5954                 2.3631                29.5349

                     55                     56                     57
                      A                      A                      A
 Frequencies --   1176.2323              1186.8145              1197.9792
 Red. masses --      1.3212                 2.4833                 1.9296
 Frc consts  --      1.0770                 2.0608                 1.6316
 IR Inten    --     17.1403                38.8735                 9.0933

                     58                     59                     60
                      A                      A                      A
 Frequencies --   1218.1665              1232.5545              1251.4703
 Red. masses --      1.6207                 1.5838                 1.6096
 Frc consts  --      1.4170                 1.4176                 1.4853
 IR Inten    --      8.6761                11.9074                 4.0800

                     61                     62                     63
                      A                      A                      A
 Frequencies --   1265.9460              1271.9912              1279.1675
 Red. masses --      1.5324                 1.5298                 1.3808
 Frc consts  --      1.4470                 1.4583                 1.3312
 IR Inten    --      6.0658                26.5127                 7.7489

                     64                     65                     66
                      A                      A                      A
 Frequencies --   1283.7674              1302.6497              1309.8884
 Red. masses --      1.4299                 1.3114                 2.2105
 Frc consts  --      1.3885                 1.3111                 2.2347
 IR Inten    --      3.8372                 9.9176                 1.4490

                     67                     68                     69
                      A                      A                      A
 Frequencies --   1323.5181              1328.9975              1346.1311
 Red. masses --      1.1807                 1.6138                 1.2987
 Frc consts  --      1.2186                 1.6794                 1.3865
 IR Inten    --      6.0713                10.0430                 2.7538

                     70                     71                     72
                      A                      A                      A
 Frequencies --   1368.9370              1383.0387              1392.5503
 Red. masses --      1.3027                 1.3236                 1.3272
 Frc consts  --      1.4384                 1.4917                 1.5164
 IR Inten    --      3.7229                 1.6562                10.8956

                     73                     74                     75
                      A                      A                      A
 Frequencies --   1405.1046              1410.0447              1414.5577
 Red. masses --      1.3581                 1.3685                 1.4100
 Frc consts  --      1.5797                 1.6031                 1.6623
 IR Inten    --      2.0848                 1.9307                 4.2507

                     76                     77                     78
                      A                      A                      A
 Frequencies --   1419.1502              1427.3431              1436.3227
 Red. masses --      1.3681                 1.3156                 1.3408
 Frc consts  --      1.6234                 1.5792                 1.6298
 IR Inten    --      3.9653                 4.3419                20.4926

                     79                     80                     81
                      A                      A                      A
 Frequencies --   1437.5611              1441.2409              1452.0450
 Red. masses --      1.2849                 1.2269                 1.2281
 Frc consts  --      1.5645                 1.5016                 1.5256
 IR Inten    --     28.7943                20.9247                37.3265

                     82                     83                     84
                      A                      A                      A
 Frequencies --   1508.8648              1513.1985              1513.5182
 Red. masses --      1.1058                 1.0648                 1.0773
 Frc consts  --      1.4832                 1.4365                 1.4540
 IR Inten    --      3.0484                 1.5746                 0.2634

                     85                     86                     87
                      A                      A                      A
 Frequencies --   1516.4901              1519.9781              1520.7027
 Red. masses --      1.0800                 1.0540                 1.0873
 Frc consts  --      1.4634                 1.4347                 1.4815
 IR Inten    --      1.7958                 4.2682                 1.8300

                     88                     89                     90
                      A                      A                      A
 Frequencies --   1533.1753              1535.1601              1538.3136
 Red. masses --      1.0797                 1.0642                 1.0954
 Frc consts  --      1.4953                 1.4777                 1.5272
 IR Inten    --     10.7039                 9.6448                12.3423

                     91                     92                     93
                      A                      A                      A
 Frequencies --   1540.8299              1555.1391              2988.3384
 Red. masses --      1.0726                 1.1967                 1.0747
 Frc consts  --      1.5003                 1.7052                 5.6546
 IR Inten    --      9.4780                13.6910                 8.8210

                     94                     95                     96
                      A                      A                      A
 Frequencies --   2993.8263              3029.3546              3031.4102
 Red. masses --      1.0791                 1.0688                 1.0627
 Frc consts  --      5.6988                 5.7788                 5.7539
 IR Inten    --     50.1916                26.2311                14.9296

                     97                     98                     99
                      A                      A                      A
 Frequencies --   3039.0882              3040.3140              3040.4657
 Red. masses --      1.0614                 1.0531                 1.0494
 Frc consts  --      5.7761                 5.7351                 5.7156
 IR Inten    --     33.2168                 1.0789                38.0533

                    100                    101                    102
                      A                      A                      A
 Frequencies --   3045.1352              3061.3215              3064.1286
 Red. masses --      1.0361                 1.0776                 1.0931
 Frc consts  --      5.6605                 5.9500                 6.0470
 IR Inten    --     23.0513                25.8134                23.4296

                    103                    104                    105
                      A                      A                      A
 Frequencies --   3067.2724              3070.5876              3077.3128
 Red. masses --      1.0756                 1.0883                 1.0972
 Frc consts  --      5.9620                 6.0458                 6.1220
 IR Inten    --     15.5028                11.1525                85.3662

                    106                    107                    108
                      A                      A                      A
 Frequencies --   3080.4811              3086.9992              3092.5873
 Red. masses --      1.0978                 1.0901                 1.0994
 Frc consts  --      6.1375                 6.1207                 6.1953
 IR Inten    --     55.1639                28.7360                70.8727

                    109                    110                    111
                      A                      A                      A
 Frequencies --   3096.1713              3102.9354              3110.0904
 Red. masses --      1.0888                 1.1014                 1.1025
 Frc consts  --      6.1498                 6.2482                 6.2830
 IR Inten    --     38.8250                31.2169                19.6064

                    112                    113                    114
                      A                      A                      A
 Frequencies --   3113.5173              3117.5426              3134.4588
 Red. masses --      1.1011                 1.1022                 1.1015
 Frc consts  --      6.2889                 6.3113                 6.3763
 IR Inten    --     37.0151                42.4640                19.0737

                    115                    116                    117
                      A                      A                      A
 Frequencies --   3505.3200              3716.9046              3738.7857
 Red. masses --      1.0720                 1.0658                 1.0659
 Frc consts  --      7.7608                 8.6754                 8.7787
 IR Inten    --      1.2062                 7.8585                 4.7534

 - Thermochemistry -
 -------------------
 Temperature   298.150 Kelvin.  Pressure   1.00000 Atm.
 Atom     1 has atomic number  6 and mass  12.00000

 Molecular mass:   227.18853 amu.
 Principal axes and moments of inertia in atomic units:
                           1         2         3
     Eigenvalues --  1873.941896487.571466922.13330
           X            0.99993   0.00080   0.01211
           Y           -0.00091   0.99995   0.00964
           Z           -0.01210  -0.00965   0.99988
 This molecule is an asymmetric top.
 Rotational symmetry number  1.
 Warning -- assumption of classical behavior for rotation
           may cause significant error
 Rotational temperatures (Kelvin)      0.04622     0.01335     0.01251
 Rotational constants (GHZ):           0.96307     0.27818     0.26072
 Zero-point vibrational energy     984354.8 (Joules/Mol)
                                  235.26645 (Kcal/Mol)
 Warning -- explicit consideration of  27 degrees of freedom as
           vibrations may cause significant error
 Vibrational temperatures:     38.75    81.53    97.04   135.81   189.20
          (Kelvin)            198.51   229.53   264.70   283.38   302.35
                              379.15   392.32   401.55   430.00   438.14
                              445.02   480.91   505.13   516.34   552.12
                              597.73   601.48   650.85   695.15   747.91
                              769.89   804.00   904.74   924.40  1075.11
                             1098.84  1144.52  1195.60  1213.67  1245.22
                             1267.25  1274.10  1326.20  1352.46  1373.79
                             1398.52  1412.05  1433.91  1471.38  1481.63
                             1484.51  1505.25  1525.02  1555.58  1558.96
                             1612.96  1631.88  1643.96  1669.66  1692.34
                             1707.56  1723.62  1752.67  1773.37  1800.59
                             1821.41  1830.11  1840.44  1847.05  1874.22
                             1884.64  1904.25  1912.13  1936.78  1969.59
                             1989.88  2003.57  2021.63  2028.74  2035.23
                             2041.84  2053.63  2066.55  2068.33  2073.62
                             2089.17  2170.92  2177.16  2177.62  2181.89
                             2186.91  2187.95  2205.90  2208.75  2213.29
                             2216.91  2237.50  4299.55  4307.45  4358.57
                             4361.52  4372.57  4374.33  4374.55  4381.27
                             4404.56  4408.60  4413.12  4417.89  4427.57
                             4432.13  4441.50  4449.54  4454.70  4464.43
                             4474.73  4479.66  4485.45  4509.79  5043.37
                             5347.80  5379.28

 Zero-point correction=                           0.374921 (Hartree/Particle)
 Thermal correction to Energy=                    0.392124
 Thermal correction to Enthalpy=                  0.393068
 Thermal correction to Gibbs Free Energy=         0.330736
 Sum of electronic and zero-point Energies=           -715.286957
 Sum of electronic and thermal Energies=              -715.269754
 Sum of electronic and thermal Enthalpies=            -715.268810
 Sum of electronic and thermal Free Energies=         -715.331141

                     E (Thermal)             CV                S
                      KCal/Mol        Cal/Mol-Kelvin    Cal/Mol-Kelvin
 Total                  246.061             67.625            131.188
 Electronic               0.000              0.000              0.000
 Translational            0.889              2.981             42.164
 Rotational               0.889              2.981             32.798
 Vibrational            244.284             61.663             56.226
 Vibration     1          0.593              1.984              6.043
 Vibration     2          0.596              1.975              4.570
 Vibration     3          0.598              1.970              4.227
 Vibration     4          0.603              1.953              3.567
 Vibration     5          0.612              1.922              2.924
 Vibration     6          0.614              1.915              2.832
 Vibration     7          0.621              1.892              2.555
 Vibration     8          0.631              1.862              2.288
 Vibration     9          0.636              1.844              2.161
 Vibration    10          0.642              1.825              2.042
 Vibration    11          0.670              1.740              1.638
 Vibration    12          0.676              1.724              1.579
 Vibration    13          0.679              1.712              1.539
 Vibration    14          0.692              1.676              1.423
 Vibration    15          0.695              1.665              1.392
 Vibration    16          0.699              1.656              1.366
 Vibration    17          0.716              1.607              1.239
 Vibration    18          0.728              1.573              1.161
 Vibration    19          0.734              1.557              1.127
 Vibration    20          0.753              1.505              1.024
 Vibration    21          0.779              1.437              0.908
 Vibration    22          0.781              1.431              0.899
 Vibration    23          0.811              1.356              0.789
 Vibration    24          0.839              1.287              0.702
 Vibration    25          0.875              1.206              0.610
 Vibration    26          0.890              1.172              0.576
 Vibration    27          0.914              1.120              0.526

 Optimization completed.
    -- Stationary point found.
 Normal termination of Gaussian 16 at Fri Dec 11 01:19:52 2020.

 ----------------------------------------------------------------------
 # B3LYP/6-311++G(d,p) empiricaldispersion=gd3bj scf=xqc pop=npa geom=c
 heck
 ----------------------------------------------------------------------

 ---------------------------------------
 CID_104280380_JID_6887_Energie_neutraal
 ---------------------------------------
 Structure from the checkpoint file:  "JID_6887.chk"
 Charge =  0 Multiplicity = 1

 SCF Done:  E(RB3LYP) =  -715.881620276     A.U. after   14 cycles
 Normal termination of Gaussian 16 at Fri Dec 11 01:28:38 2020.

 ----------------------------------------------------------------------
 # B3LYP/6-311++G(d,p) empiricaldispersion=gd3bj scf=xqc pop=npa geom=c
 heck
 ----------------------------------------------------------------------

 -------------------------------------
 CID_104280380_JID_6887_Energie_kation
 -------------------------------------
 Structure from the checkpoint file:  "JID_6887.chk"
 Charge =  1 Multiplicity = 2

 SCF Done:  E(UB3LYP) =  -715.590752196     A.U. after   23 cycles
 Normal termination of Gaussian 16 at Fri Dec 11 01:48:32 2020.
 Gaussian 16:  ES64L-G16RevA.03 25-Dec-2016

 ----------------------------------------------------------------------
 # B3LYP/6-311++G(d,p) empiricaldispersion=gd3bj scf=xqc pop=npa geom=c
 heck
 ----------------------------------------------------------------------

 ------------------------------------
 CID_104280380_JID_6887_Energie_anion
 ------------------------------------
 Structure from the checkpoint file:  "JID_6887.chk"
 Charge = -1 Multiplicity = 2

                         Standard orientation:
 ---------------------------------------------------------------------
 Center     Atomic      Atomic             Coordinates (Angstroms)
 Number     Number       Type             X           Y           Z
 ---------------------------------------------------------------------
      1          6           0       -3.381747    1.661478   -0.537960
      2          6           0       -2.765257    0.274503   -0.418637
      3          6           0       -1.262346    0.228466    0.015058
      4          6           0       -1.608739   -0.960810    0.970117
      5          6           0       -3.102819   -0.561712    0.866018
      6          8           0       -3.604628    0.169634    1.974841
      7          7           0       -0.284267    0.148749   -1.052751
      8          6           0        1.136392    0.161789   -0.671099
      9          6           0        1.471668    1.422531    0.142900
     10          6           0        2.878236    2.005778   -0.065465
     11          6           0        4.046280    1.000579   -0.067700
     12          6           0        3.881505   -0.211048    0.863895
     13          6           0        3.061521   -1.350320    0.240134
     14          6           0        1.555206   -1.131402    0.074043
     15          8           0        0.985106   -2.282587   -0.569126
     16          6           0       -3.035422   -0.549178   -1.680338
     17          1           0       -4.450809    1.605385   -0.774328
     18          1           0       -2.882883    2.226213   -1.334487
     19          1           0       -3.282473    2.229869    0.392932
     20          1           0       -1.040316    1.122983    0.607197
     21          1           0       -1.187211   -0.950791    1.982007
     22          1           0       -1.389073   -1.928738    0.512133
     23          1           0       -3.820903   -1.372933    0.715291
     24          1           0       -2.941644    0.833386    2.220312
     25          1           0       -0.442525   -0.721649   -1.556237
     26          1           0        1.693702    0.195244   -1.621032
     27          1           0        1.316895    1.211899    1.209571
     28          1           0        0.744910    2.197204   -0.124757
     29          1           0        3.045808    2.748993    0.724622
     30          1           0        2.897692    2.562689   -1.010907
     31          1           0        4.964352    1.541617    0.191647
     32          1           0        4.204942    0.621859   -1.086614
     33          1           0        3.444575    0.094780    1.824381
     34          1           0        4.874643   -0.612240    1.099174
     35          1           0        3.188305   -2.267574    0.827392
     36          1           0        3.486416   -1.562054   -0.755498
     37          1           0        1.084714   -1.114111    1.063158
     38          1           0        1.526557   -2.467997   -1.353863
     39          1           0       -4.114720   -0.625306   -1.856456
     40          1           0       -2.577675   -0.079449   -2.557772
     41          1           0       -2.644106   -1.570815   -1.600124
 ---------------------------------------------------------------------

 SCF Done:  E(UB3LYP) =  -715.868901673     A.U. after   29 cycles

 The electronic state is 2-A.
 Alpha  occ. eigenvalues --  -19.03414 -19.02863 -14.19708 -10.12645 -10.12116
 Alpha  occ. eigenvalues --  -10.10043 -10.10005 -10.08669 -10.07288 -10.07044
 Alpha  occ. eigenvalues --  -10.06951 -10.06828 -10.06792 -10.06724 -10.06638
 Alpha  occ. eigenvalues --  -10.06501  -0.93653  -0.93063  -0.81609  -0.74495
 Alpha  occ. eigenvalues --   -0.71663  -0.66302  -0.65187  -0.64298  -0.60012
 Alpha  occ. eigenvalues --   -0.56695  -0.55248  -0.53660  -0.51821  -0.49158
 Alpha  occ. eigenvalues --   -0.46870  -0.43974  -0.41394  -0.39233  -0.39102
 Alpha  occ. eigenvalues --   -0.38172  -0.36610  -0.36109  -0.35479  -0.34470
 Alpha  occ. eigenvalues --   -0.34169  -0.33083  -0.32152  -0.31662  -0.30236
 Alpha  occ. eigenvalues --   -0.30072  -0.29419  -0.28987  -0.27554  -0.27364
 Alpha  occ. eigenvalues --   -0.26653  -0.26446  -0.25000  -0.24197  -0.23910
 Alpha  occ. eigenvalues --   -0.23005  -0.22305  -0.21623  -0.21387  -0.19712
 Alpha  occ. eigenvalues --   -0.18532  -0.17097  -0.12564   0.04223
 Alpha virt. eigenvalues --    0.05784   0.06263   0.07308   0.07536   0.08217
 Alpha virt. eigenvalues --    0.08926   0.09468   0.09472   0.10074   0.10195
 Alpha virt. eigenvalues --    0.10818   0.11375   0.11615   0.12206   0.12685

  Beta  occ. eigenvalues --  -19.03392 -19.02838 -14.19701 -10.12641 -10.12115
  Beta  occ. eigenvalues --  -10.10033 -10.09994 -10.08668 -10.07277 -10.07017
  Beta  occ. eigenvalues --  -10.06931 -10.06817 -10.06777 -10.06718 -10.06619
  Beta  occ. eigenvalues --  -10.06478  -0.93608  -0.93016  -0.81592  -0.74479
  Beta  occ. eigenvalues --   -0.71628  -0.66263  -0.65167  -0.64265  -0.59983
  Beta  occ. eigenvalues --   -0.56656  -0.55199  -0.53616  -0.51791  -0.49101
  Beta  occ. eigenvalues --   -0.46818  -0.43923  -0.41354  -0.39203  -0.39063
  Beta  occ. eigenvalues --   -0.38147  -0.36582  -0.36081  -0.35435  -0.34438
  Beta  occ. eigenvalues --   -0.34137  -0.33060  -0.32124  -0.31627  -0.30223
  Beta  occ. eigenvalues --   -0.30038  -0.29400  -0.28954  -0.27521  -0.27339
  Beta  occ. eigenvalues --   -0.26626  -0.26419  -0.24960  -0.24166  -0.23876
  Beta  occ. eigenvalues --   -0.22978  -0.22266  -0.21588  -0.21351  -0.19696
  Beta  occ. eigenvalues --   -0.18507  -0.17079  -0.12552
  Beta virt. eigenvalues --    0.06237   0.06757   0.06968   0.07728   0.08053
  Beta virt. eigenvalues --    0.08621   0.09023   0.09656   0.09832   0.10446
  Beta virt. eigenvalues --    0.10565   0.10992   0.11591   0.11765   0.12593

 Mulliken charges and spin densities:
               1          2
     1  C    0.245807  -0.597252
     2  C   -0.236545   0.915670
     3  C   -0.421617  -0.429070
     4  C    0.097991  -0.146763
     5  C   -0.415155  -0.324224
     6  O   -0.162696   0.015423
     7  N    0.495003  -0.068160
     8  C   -1.419448   1.453844
     9  C    0.261534  -0.537578
    10  C    0.305843  -1.072599
    11  C    0.390808  -0.578405
    12  C   -0.260964   0.025204
    13  C    1.047676  -1.346654
    14  C    0.111194  -0.757902
    15  O   -0.188428   0.011985
    16  C   -0.085176  -0.642640
    17  H    0.024875   0.116602
    18  H    0.049115   0.111598
    19  H   -0.098846   0.226145
    20  H   -0.097639   0.260956
    21  H   -0.027738   0.188773
    22  H    0.222286  -0.054460
    23  H    0.179701   0.034178
    24  H    0.126444   0.129344
    25  H    0.172642   0.035208
    26  H   -0.237047   0.449110
    27  H   -0.078460   0.237955
    28  H    0.188174  -0.028292
    29  H   -0.243346   0.399203
    30  H   -0.028647   0.180042
    31  H   -0.380118   0.562879
    32  H    0.019952   0.102484
    33  H    0.062599   0.055406
    34  H   -0.589524   0.785170
    35  H   -0.024129   0.199876
    36  H   -0.433508   0.566682
    37  H    0.297185  -0.074548
    38  H   -0.035213   0.291615
    39  H    0.069494   0.077030
    40  H    0.041119   0.116096
    41  H    0.054803   0.110071
 Sum of Mulliken charges =  -1.00000   1.00000

 Dipole moment (field-independent basis, Debye):
    X=             -5.3068    Y=             -0.6753    Z=             -0.6555  Tot=              5.3896
 Quadrupole moment (field-independent basis, Debye-Ang):
   XX=           -198.9746   YY=           -145.8148   ZZ=           -139.4776
   XY=              4.3397   XZ=              5.1834   YZ=             -3.8143

 Summary of Natural Population Analysis:

                                       Natural Population
                Natural  -----------------------------------------------
    Atom  No    Charge         Core      Valence    Rydberg      Total
 -----------------------------------------------------------------------
      C    1   -0.28532      0.99961     2.27948    0.00622     3.28532
      C    2   -0.05110      0.99955     2.03772    0.01383     3.05110
      C    3   -0.00714      0.99953     1.99233    0.01528     3.00714
      C    4   -0.22038      0.99961     2.21318    0.00759     3.22038
      C    5    0.07290      0.99951     1.91271    0.01488     2.92710
      O    6   -0.36841      0.99990     3.36209    0.00643     4.36841
      N    7   -0.33869      0.99973     2.82709    0.01187     3.83869
      C    8   -0.01694      0.99956     2.00383    0.01356     3.01694
      C    9   -0.19842      0.99960     2.18986    0.00895     3.19842
      C   10   -0.18414      0.99962     2.17633    0.00819     3.18414
      C   11   -0.19137      0.99963     2.18356    0.00819     3.19137
      C   12   -0.19253      0.99962     2.18435    0.00856     3.19253
      C   13   -0.19783      0.99960     2.18827    0.00996     3.19783
      C   14    0.05747      0.99952     1.92987    0.01314     2.94253
      O   15   -0.37654      0.99990     3.36962    0.00702     4.37654
      C   16   -0.28976      0.99962     2.28423    0.00591     3.28976
      H   17    0.09843      0.00000     0.40071    0.00086     0.40157
      H   18    0.10323      0.00000     0.39577    0.00100     0.39677
      H   19    0.10050      0.00000     0.39823    0.00127     0.39950
      H   20    0.09439      0.00000     0.40319    0.00241     0.40561
      H   21    0.09959      0.00000     0.39920    0.00120     0.40041
      H   22    0.11100      0.00000     0.38764    0.00135     0.38900
      H   23    0.08266      0.00000     0.41602    0.00132     0.41734
      H   24    0.22703      0.00000     0.26964    0.00333     0.27297
      H   25    0.17913      0.00000     0.31746    0.00341     0.32087
      H   26    0.09265      0.00000     0.40557    0.00178     0.40735
      H   27    0.09397      0.00000     0.40427    0.00176     0.40603
      H   28    0.10713      0.00000     0.39142    0.00144     0.39287
      H   29    0.09636      0.00000     0.40248    0.00116     0.40364
      H   30    0.09579      0.00000     0.40308    0.00113     0.40421
      H   31    0.10115      0.00000     0.39732    0.00152     0.39885
      H   32    0.09350      0.00000     0.40486    0.00164     0.40650
      H   33    0.09444      0.00000     0.40427    0.00129     0.40556
      H   34    0.10293      0.00000     0.39558    0.00150     0.39707
      H   35    0.10288      0.00000     0.39604    0.00108     0.39712
      H   36    0.09326      0.00000     0.40451    0.00223     0.40674
      H   37    0.08456      0.00000     0.41280    0.00264     0.41544
      H   38    0.22840      0.00000     0.26781    0.00378     0.27160
      H   39    0.09947      0.00000     0.39966    0.00087     0.40053
      H   40    0.10568      0.00000     0.39335    0.00097     0.39432
      H   41    0.10006      0.00000     0.39899    0.00095     0.39994
 =======================================================================
   * Total *    0.00000     15.99411    46.80440    0.20149    63.00000

 Normal termination of Gaussian 16 at Fri Dec 11 02:13:07 2020.
