 Gaussian 16, Revision A.03,

 -----------------------------------------------------------
 # opt freq B3LYP/6-31G(d) empiricaldispersion=gd3bj scf=xqc
 -----------------------------------------------------------

 -------------------------------
 CID_143126470_JID_2794_neutraal
 -------------------------------
 Symbolic Z-matrix:
 Charge =  0 Multiplicity = 1

 SCF Done:  E(RB3LYP) =  -622.720961805     A.U. after   18 cycles
 SCF Done:  E(RB3LYP) =  -622.727499162     A.U. after   15 cycles
 SCF Done:  E(RB3LYP) =  -622.723308302     A.U. after   15 cycles
 SCF Done:  E(RB3LYP) =  -622.721446299     A.U. after   15 cycles
 SCF Done:  E(RB3LYP) =  -622.719198710     A.U. after   15 cycles
 SCF Done:  E(RB3LYP) =  -622.728272274     A.U. after   12 cycles
 SCF Done:  E(RB3LYP) =  -622.730785042     A.U. after   15 cycles
 SCF Done:  E(RB3LYP) =  -622.731152753     A.U. after   14 cycles
 SCF Done:  E(RB3LYP) =  -622.731321483     A.U. after   13 cycles
 SCF Done:  E(RB3LYP) =  -622.731395790     A.U. after   13 cycles
 SCF Done:  E(RB3LYP) =  -622.731428639     A.U. after   12 cycles
 SCF Done:  E(RB3LYP) =  -622.731440180     A.U. after   11 cycles
 SCF Done:  E(RB3LYP) =  -622.731443872     A.U. after   10 cycles
 SCF Done:  E(RB3LYP) =  -622.731444748     A.U. after    9 cycles
 SCF Done:  E(RB3LYP) =  -622.731444933     A.U. after    9 cycles
 Optimization completed.
    -- Stationary point found.
 Normal termination of Gaussian 16 at Wed Dec  9 18:00:00 2020.

 --------------------------------------------------------------------
 #N Geom=AllCheck Guess=TCheck SCRF=Check GenChk RB3LYP/6-31G(d) Freq
 --------------------------------------------------------------------

 Structure from the checkpoint file:  "JID_2794.chk"
 -------------------------------
 CID_143126470_JID_2794_neutraal
 -------------------------------
 Charge =  0 Multiplicity = 1

 SCF Done:  E(RB3LYP) =  -622.731444933     A.U. after    1 cycles

  Exact polarizability: 149.117   0.982 116.948   0.008  -0.044  39.586
 Approx polarizability: 258.012  -2.672 233.138  -0.055  -1.334  60.721

                      1                      2                      3
                      A                      A                      A
 Frequencies --     83.0934               108.9466               135.2681
 Red. masses --      5.8003                 7.3863                 4.1936
 Frc consts  --      0.0236                 0.0517                 0.0452
 IR Inten    --      2.0487                 0.3779                 0.4096

                      4                      5                      6
                      A                      A                      A
 Frequencies --    145.6252               213.7112               237.0275
 Red. masses --      1.2145                 2.4326                 5.6027
 Frc consts  --      0.0152                 0.0655                 0.1855
 IR Inten    --      0.6273                85.5024                 8.4160

                      7                      8                      9
                      A                      A                      A
 Frequencies --    264.1130               298.4619               356.4104
 Red. masses --      1.5425                 3.4346                 7.0054
 Frc consts  --      0.0634                 0.1803                 0.5243
 IR Inten    --    141.0947                22.5398                 5.9823

                     10                     11                     12
                      A                      A                      A
 Frequencies --    364.3036               385.6892               393.1755
 Red. masses --      5.2452                 4.4687                 3.8380
 Frc consts  --      0.4101                 0.3917                 0.3496
 IR Inten    --     10.3739                 8.4360                 0.2339

                     13                     14                     15
                      A                      A                      A
 Frequencies --    459.5780               500.8812               582.2596
 Red. masses --      9.6910                 7.9020                 1.2238
 Frc consts  --      1.2060                 1.1680                 0.2444
 IR Inten    --      1.6535                10.4483                42.9062

                     16                     17                     18
                      A                      A                      A
 Frequencies --    613.0686               636.6754               653.7169
 Red. masses --      3.9297                 3.6691                 4.7316
 Frc consts  --      0.8702                 0.8763                 1.1914
 IR Inten    --      5.8175                 1.0699                 6.4224

                     19                     20                     21
                      A                      A                      A
 Frequencies --    675.3639               714.0839               732.4230
 Red. masses --      1.2799                 5.6390                 8.2478
 Frc consts  --      0.3439                 1.6941                 2.6068
 IR Inten    --     45.2932                 3.8892                11.0868

                     22                     23                     24
                      A                      A                      A
 Frequencies --    754.0683               810.6306               894.2451
 Red. masses --      4.4636                10.6611                 2.9740
 Frc consts  --      1.4954                 4.1276                 1.4012
 IR Inten    --     46.5340                 3.4850                 5.6536

                     25                     26                     27
                      A                      A                      A
 Frequencies --    898.9288              1025.7074              1072.3398
 Red. masses --      1.5148                 1.5878                 1.5233
 Frc consts  --      0.7212                 0.9842                 1.0321
 IR Inten    --     16.7524                21.6187                 5.3926

                     28                     29                     30
                      A                      A                      A
 Frequencies --   1083.2935              1143.3821              1189.5875
 Red. masses --      1.8293                 3.5539                 2.4608
 Frc consts  --      1.2648                 2.7374                 2.0517
 IR Inten    --      0.0866                13.9762                10.7632

                     31                     32                     33
                      A                      A                      A
 Frequencies --   1280.6931              1317.0450              1329.3497
 Red. masses --      2.1625                 4.4888                 2.8250
 Frc consts  --      2.0898                 4.5876                 2.9413
 IR Inten    --      1.7095               476.9105                42.6380

                     34                     35                     36
                      A                      A                      A
 Frequencies --   1394.8735              1440.7494              1454.6176
 Red. masses --      3.6356                 1.3334                 2.4945
 Frc consts  --      4.1677                 1.6307                 3.1098
 IR Inten    --    309.2701                 2.5511                60.6040

                     37                     38                     39
                      A                      A                      A
 Frequencies --   1493.3527              1497.0737              1514.2244
 Red. masses --      1.0443                 1.8700                 1.6858
 Frc consts  --      1.3721                 2.4693                 2.2774
 IR Inten    --      6.8332               120.1912                48.1725

                     40                     41                     42
                      A                      A                      A
 Frequencies --   1561.8305              1612.5597              1644.7171
 Red. masses --      4.2293                 4.8572                 1.7142
 Frc consts  --      6.0783                 7.4417                 2.7321
 IR Inten    --    130.3608                59.8848                54.5789

                     43                     44                     45
                      A                      A                      A
 Frequencies --   1713.5398              1779.1605              3059.4251
 Red. masses --      6.3468                 9.0279                 1.0355
 Frc consts  --     10.9797                16.8372                 5.7107
 IR Inten    --    328.0250               304.0106                 9.7184

                     46                     47                     48
                      A                      A                      A
 Frequencies --   3115.2572              3146.8437              3176.2648
 Red. masses --      1.0992                 1.1045                 1.0905
 Frc consts  --      6.2854                 6.4440                 6.4822
 IR Inten    --      5.0530                14.1657                14.7987

                     49                     50                     51
                      A                      A                      A
 Frequencies --   3556.1765              3578.7327              3704.4644
 Red. masses --      1.0481                 1.0757                 1.1017
 Frc consts  --      7.8097                 8.1172                 8.9077
 IR Inten    --     65.8973               101.5289                62.6537

 - Thermochemistry -
 -------------------
 Temperature   298.150 Kelvin.  Pressure   1.00000 Atm.
 Atom     1 has atomic number  6 and mass  12.00000

 Molecular mass:   169.04874 amu.
 Principal axes and moments of inertia in atomic units:
                           1         2         3
     Eigenvalues --  1058.825502485.074543532.43626
           X            0.99994   0.01121  -0.00005
           Y           -0.01121   0.99993   0.00219
           Z            0.00008  -0.00219   1.00000
 This molecule is an asymmetric top.
 Rotational symmetry number  1.
 Warning -- assumption of classical behavior for rotation
           may cause significant error
 Rotational temperatures (Kelvin)      0.08180     0.03485     0.02452
 Rotational constants (GHZ):           1.70447     0.72623     0.51091
 Zero-point vibrational energy     369628.2 (Joules/Mol)
                                   88.34326 (Kcal/Mol)
 Warning -- explicit consideration of  16 degrees of freedom as
           vibrations may cause significant error
 Vibrational temperatures:    119.55   156.75   194.62   209.52   307.48
          (Kelvin)            341.03   380.00   429.42   512.80   524.15
                              554.92   565.69   661.23   720.66   837.74
                              882.07   916.03   940.55   971.70  1027.41
                             1053.79  1084.94  1166.32  1286.62  1293.36
                             1475.76  1542.86  1558.62  1645.07  1711.55
                             1842.63  1894.93  1912.64  2006.91  2072.92
                             2092.87  2148.60  2153.96  2178.63  2247.13
                             2320.11  2366.38  2465.40  2559.82  4401.83
                             4482.16  4527.61  4569.94  5116.54  5149.00
                             5329.90

 Zero-point correction=                           0.140784 (Hartree/Particle)
 Thermal correction to Energy=                    0.151585
 Thermal correction to Enthalpy=                  0.152529
 Thermal correction to Gibbs Free Energy=         0.104559
 Sum of electronic and zero-point Energies=           -622.590661
 Sum of electronic and thermal Energies=              -622.579860
 Sum of electronic and thermal Enthalpies=            -622.578916
 Sum of electronic and thermal Free Energies=         -622.626886

                     E (Thermal)             CV                S
                      KCal/Mol        Cal/Mol-Kelvin    Cal/Mol-Kelvin
 Total                   95.121             40.727            100.962
 Electronic               0.000              0.000              0.000
 Translational            0.889              2.981             41.283
 Rotational               0.889              2.981             30.609
 Vibrational             93.344             34.765             29.070
 Vibration     1          0.600              1.961              3.816
 Vibration     2          0.606              1.942              3.288
 Vibration     3          0.613              1.918              2.870
 Vibration     4          0.617              1.907              2.729
 Vibration     5          0.644              1.820              2.012
 Vibration     6          0.656              1.784              1.825
 Vibration     7          0.671              1.739              1.634
 Vibration     8          0.692              1.677              1.426
 Vibration     9          0.732              1.562              1.138
 Vibration    10          0.738              1.546              1.104
 Vibration    11          0.754              1.501              1.017
 Vibration    12          0.760              1.485              0.988
 Vibration    13          0.818              1.340              0.767
 Vibration    14          0.856              1.248              0.656
 Vibration    15          0.939              1.070              0.481
 Vibration    16          0.972              1.004              0.428

 Optimization completed.
    -- Stationary point found.
 Normal termination of Gaussian 16 at Wed Dec  9 18:04:27 2020.

 ----------------------------------------------------------------------
 # B3LYP/6-311++G(d,p) empiricaldispersion=gd3bj scf=xqc pop=npa geom=c
 heck
 ----------------------------------------------------------------------

 ---------------------------------------
 CID_143126470_JID_2794_Energie_neutraal
 ---------------------------------------
 Structure from the checkpoint file:  "JID_2794.chk"
 Charge =  0 Multiplicity = 1

 SCF Done:  E(RB3LYP) =  -622.921698030     A.U. after   19 cycles
 Normal termination of Gaussian 16 at Wed Dec  9 18:06:23 2020.

 ----------------------------------------------------------------------
 # B3LYP/6-311++G(d,p) empiricaldispersion=gd3bj scf=xqc pop=npa geom=c
 heck
 ----------------------------------------------------------------------

 -------------------------------------
 CID_143126470_JID_2794_Energie_kation
 -------------------------------------
 Structure from the checkpoint file:  "JID_2794.chk"
 Charge =  1 Multiplicity = 2

 SCF Done:  E(UB3LYP) =  -622.618295033     A.U. after   27 cycles
 Normal termination of Gaussian 16 at Wed Dec  9 18:09:35 2020.
 Gaussian 16:  ES64L-G16RevA.03 25-Dec-2016

 ----------------------------------------------------------------------
 # B3LYP/6-311++G(d,p) empiricaldispersion=gd3bj scf=xqc pop=npa geom=c
 heck
 ----------------------------------------------------------------------

 ------------------------------------
 CID_143126470_JID_2794_Energie_anion
 ------------------------------------
 Structure from the checkpoint file:  "JID_2794.chk"
 Charge = -1 Multiplicity = 2

                         Standard orientation:
 ---------------------------------------------------------------------
 Center     Atomic      Atomic             Coordinates (Angstroms)
 Number     Number       Type             X           Y           Z
 ---------------------------------------------------------------------
      1          6           0        3.394123    0.680079    0.015324
      2          6           0        1.917766    0.443371    0.004299
      3          6           0        0.995369    1.440107    0.000221
      4          6           0       -0.425779    1.198665   -0.009454
      5          6           0       -0.816858   -0.134226   -0.012821
      6          7           0        0.124596   -1.145616   -0.014828
      7          6           0        1.494338   -0.972860   -0.004977
      8          8           0        2.275923   -1.919319   -0.004302
      9          7           0       -2.161246   -0.570561    0.004835
     10          8           0       -3.073208    0.285625    0.011424
     11          8           0       -2.369223   -1.794806    0.014801
     12          7           0       -1.283032    2.249190   -0.042148
     13          1           0        3.857746    0.207045   -0.857554
     14          1           0        3.845888    0.201697    0.891545
     15          1           0        3.633925    1.746523    0.020148
     16          1           0        1.323460    2.477472    0.000347
     17          1           0       -0.242118   -2.092201   -0.017069
     18          1           0       -2.270922    2.049452    0.054571
     19          1           0       -0.931908    3.176103    0.142066
 ---------------------------------------------------------------------

 SCF Done:  E(UB3LYP) =  -622.973323972     A.U. after   22 cycles

 The electronic state is 2-A.
 Alpha  occ. eigenvalues --  -18.95437 -18.95357 -18.93974 -14.33371 -14.21343
 Alpha  occ. eigenvalues --  -14.18974 -10.12615 -10.09898 -10.08727 -10.04979
 Alpha  occ. eigenvalues --  -10.04858 -10.04198  -1.03090  -0.89623  -0.86001
 Alpha  occ. eigenvalues --   -0.81898  -0.78852  -0.68438  -0.64481  -0.59921
 Alpha  occ. eigenvalues --   -0.52229  -0.51071  -0.46412  -0.42824  -0.40336
 Alpha  occ. eigenvalues --   -0.36800  -0.36289  -0.35494  -0.33938  -0.31938
 Alpha  occ. eigenvalues --   -0.31228  -0.30704  -0.28383  -0.27532  -0.25364
 Alpha  occ. eigenvalues --   -0.24371  -0.24132  -0.17815  -0.14543  -0.14150
 Alpha  occ. eigenvalues --   -0.13869  -0.12442  -0.11326  -0.06684   0.01443
 Alpha virt. eigenvalues --    0.08005   0.09265   0.10829   0.11433   0.12867
 Alpha virt. eigenvalues --    0.13094   0.13825   0.15090   0.16196   0.16900
 Alpha virt. eigenvalues --    0.17673   0.18006   0.18743   0.18980   0.19363

  Beta  occ. eigenvalues --  -18.95001 -18.94856 -18.93927 -14.32746 -14.21251
  Beta  occ. eigenvalues --  -14.18852 -10.12616 -10.09984 -10.08539 -10.04953
  Beta  occ. eigenvalues --  -10.04883 -10.03836  -1.02070  -0.89512  -0.85143
  Beta  occ. eigenvalues --   -0.81711  -0.78582  -0.67954  -0.63979  -0.59552
  Beta  occ. eigenvalues --   -0.51597  -0.50910  -0.46068  -0.42633  -0.40099
  Beta  occ. eigenvalues --   -0.36205  -0.35300  -0.33900  -0.33642  -0.31542
  Beta  occ. eigenvalues --   -0.30449  -0.30417  -0.28306  -0.27007  -0.25237
  Beta  occ. eigenvalues --   -0.24176  -0.23287  -0.17221  -0.13486  -0.13081
  Beta  occ. eigenvalues --   -0.12231  -0.11232  -0.10927  -0.05399
  Beta virt. eigenvalues --    0.07976   0.08063   0.09258   0.11420   0.12396
  Beta virt. eigenvalues --    0.12863   0.13531   0.13835   0.15102   0.16901
  Beta virt. eigenvalues --    0.17091   0.17728   0.18465   0.18977   0.19100

 Mulliken charges and spin densities:
               1          2
     1  C   -0.603853  -0.012778
     2  C    0.538918   0.246356
     3  C    0.015150   0.014431
     4  C    0.257028   0.136629
     5  C   -0.446630  -0.052163
     6  N   -0.233011   0.049687
     7  C   -0.273162  -0.017746
     8  O   -0.421058   0.020997
     9  N   -0.353397   0.195615
    10  O   -0.214177   0.184380
    11  O   -0.215446   0.170454
    12  N   -0.376754   0.051589
    13  H    0.150205   0.013535
    14  H    0.149377   0.014016
    15  H    0.111359   0.000294
    16  H    0.094412  -0.003772
    17  H    0.324107  -0.004399
    18  H    0.286424  -0.004412
    19  H    0.210509  -0.002712
 Sum of Mulliken charges =  -1.00000   1.00000

 Dipole moment (field-independent basis, Debye):
    X=              3.5096    Y=              5.8891    Z=              0.3471  Tot=              6.8644
 Quadrupole moment (field-independent basis, Debye-Ang):
   XX=           -114.9689   YY=            -82.7584   ZZ=            -75.0148
   XY=              1.7441   XZ=             -0.4586   YZ=              1.4054

 Summary of Natural Population Analysis:

                                       Natural Population
                Natural  -----------------------------------------------
    Atom  No    Charge         Core      Valence    Rydberg      Total
 -----------------------------------------------------------------------
      C    1   -0.29608      0.99965     2.29089    0.00555     3.29608
      C    2    0.03183      0.99949     1.96067    0.00801     2.96817
      C    3   -0.10526      0.99950     2.09730    0.00846     3.10526
      C    4    0.10298      0.99951     1.88629    0.01122     2.89702
      C    5    0.10058      0.99945     1.88747    0.01250     2.89942
      N    6   -0.27609      0.99964     2.76820    0.00825     3.77609
      C    7    0.30831      0.99961     1.67069    0.02139     2.69169
      O    8   -0.34787      0.99988     3.34100    0.00700     4.34787
      N    9    0.29372      0.99969     2.18112    0.02547     3.20628
      O   10   -0.21380      0.99990     3.20565    0.00826     4.21380
      O   11   -0.21182      0.99990     3.20388    0.00804     4.21182
      N   12   -0.38089      0.99969     2.87188    0.00931     3.88089
      H   13    0.10723      0.00000     0.39155    0.00122     0.39277
      H   14    0.10713      0.00000     0.39165    0.00122     0.39287
      H   15    0.09023      0.00000     0.40889    0.00087     0.40977
      H   16    0.08659      0.00000     0.41158    0.00183     0.41341
      H   17    0.21299      0.00000     0.28413    0.00288     0.28701
      H   18    0.21164      0.00000     0.28653    0.00183     0.28836
      H   19    0.17858      0.00000     0.32000    0.00141     0.32142
 =======================================================================
   * Total *    0.00000     11.99592    31.85937    0.14472    44.00000

 Normal termination of Gaussian 16 at Wed Dec  9 18:14:20 2020.
