 Gaussian 16, Revision A.03,

 -----------------------------------------------------------
 # opt freq B3LYP/6-31G(d) empiricaldispersion=gd3bj scf=xqc
 -----------------------------------------------------------

 ------------------------------
 CID_86049390_JID_3653_neutraal
 ------------------------------
 Symbolic Z-matrix:
 Charge =  0 Multiplicity = 1

 SCF Done:  E(RB3LYP) =  -584.117540023     A.U. after   13 cycles
 SCF Done:  E(RB3LYP) =  -584.120039919     A.U. after   11 cycles
 SCF Done:  E(RB3LYP) =  -584.120226600     A.U. after   10 cycles
 SCF Done:  E(RB3LYP) =  -584.120228616     A.U. after   10 cycles
 SCF Done:  E(RB3LYP) =  -584.120311323     A.U. after    9 cycles
 SCF Done:  E(RB3LYP) =  -584.120322842     A.U. after    9 cycles
 SCF Done:  E(RB3LYP) =  -584.120328042     A.U. after    9 cycles
 SCF Done:  E(RB3LYP) =  -584.120329671     A.U. after    8 cycles
 SCF Done:  E(RB3LYP) =  -584.120330178     A.U. after    7 cycles
 SCF Done:  E(RB3LYP) =  -584.120330302     A.U. after    7 cycles
 SCF Done:  E(RB3LYP) =  -584.120330393     A.U. after    7 cycles
 SCF Done:  E(RB3LYP) =  -584.120330415     A.U. after    6 cycles
 Optimization completed.
    -- Stationary point found.
 Normal termination of Gaussian 16 at Sun Dec 13 15:58:17 2020.

 --------------------------------------------------------------------
 #N Geom=AllCheck Guess=TCheck SCRF=Check GenChk RB3LYP/6-31G(d) Freq
 --------------------------------------------------------------------

 Structure from the checkpoint file:  "JID_3653.chk"
 ------------------------------
 CID_86049390_JID_3653_neutraal
 ------------------------------
 Charge =  0 Multiplicity = 1

 SCF Done:  E(RB3LYP) =  -584.120330415     A.U. after    1 cycles

  Exact polarizability: 135.645  -1.293 121.073   2.569  -0.424 111.738
 Approx polarizability: 164.791  -1.456 163.130   0.658  -0.328 164.762

                      1                      2                      3
                      A                      A                      A
 Frequencies --     20.3825                38.7317                58.4266
 Red. masses --      3.4451                 3.6634                 2.7323
 Frc consts  --      0.0008                 0.0032                 0.0055
 IR Inten    --      0.0187                 0.0067                 0.0110

                      4                      5                      6
                      A                      A                      A
 Frequencies --     74.4752                98.2589               111.4882
 Red. masses --      2.8339                 2.0920                 2.4530
 Frc consts  --      0.0093                 0.0119                 0.0180
 IR Inten    --      0.0961                 1.4761                 0.0223

                      7                      8                      9
                      A                      A                      A
 Frequencies --    130.9675               143.3707               162.2853
 Red. masses --      2.0628                 1.4303                 1.2504
 Frc consts  --      0.0208                 0.0173                 0.0194
 IR Inten    --      1.4192                 0.2868                 0.4208

                     10                     11                     12
                      A                      A                      A
 Frequencies --    177.6530               194.3422               206.9360
 Red. masses --      1.6213                 1.3673                 1.6034
 Frc consts  --      0.0301                 0.0304                 0.0405
 IR Inten    --      0.9979                 0.7149                 0.1851

                     13                     14                     15
                      A                      A                      A
 Frequencies --    254.2881               260.0636               295.8076
 Red. masses --      1.7489                 2.4829                 2.6625
 Frc consts  --      0.0666                 0.0989                 0.1373
 IR Inten    --      1.0210                 9.7462                 4.0116

                     16                     17                     18
                      A                      A                      A
 Frequencies --    301.8061               317.8986               345.6589
 Red. masses --      2.2055                 2.3912                 3.2355
 Frc consts  --      0.1184                 0.1424                 0.2278
 IR Inten    --      0.3852                 0.5092                 8.7162

                     19                     20                     21
                      A                      A                      A
 Frequencies --    378.5093               416.4643               442.3489
 Red. masses --      1.9889                 2.9255                 1.9691
 Frc consts  --      0.1679                 0.2990                 0.2270
 IR Inten    --      0.5032                 1.2906                 0.2074

                     22                     23                     24
                      A                      A                      A
 Frequencies --    463.4427               522.0112               589.5584
 Red. masses --      2.7819                 2.5197                 2.7195
 Frc consts  --      0.3520                 0.4045                 0.5569
 IR Inten    --      3.2007                 3.1448                 3.7829

                     25                     26                     27
                      A                      A                      A
 Frequencies --    653.6695               723.3801               757.3227
 Red. masses --      4.3047                 1.2601                 1.5825
 Frc consts  --      1.0837                 0.3885                 0.5348
 IR Inten    --      0.6399                17.5053                 0.3324

                     28                     29                     30
                      A                      A                      A
 Frequencies --    830.7826               833.7694               886.9928
 Red. masses --      1.8639                 1.9798                 1.8777
 Frc consts  --      0.7580                 0.8109                 0.8704
 IR Inten    --      1.6032                 1.6746                 0.3965

                     31                     32                     33
                      A                      A                      A
 Frequencies --    904.3692               932.3088               940.5795
 Red. masses --      1.9930                 1.4925                 1.8854
 Frc consts  --      0.9604                 0.7643                 0.9827
 IR Inten    --      1.6953                 0.8443                 1.8771

                     34                     35                     36
                      A                      A                      A
 Frequencies --    969.6668               990.4789              1003.3153
 Red. masses --      2.5068                 2.7097                 1.4878
 Frc consts  --      1.3887                 1.5662                 0.8824
 IR Inten    --     47.0733                21.5184                 5.0131

                     37                     38                     39
                      A                      A                      A
 Frequencies --   1012.1349              1059.7905              1080.8194
 Red. masses --      2.1764                 1.8379                 1.4721
 Frc consts  --      1.3136                 1.2162                 1.0132
 IR Inten    --     11.6875                 5.2625                 3.9812

                     40                     41                     42
                      A                      A                      A
 Frequencies --   1086.4367              1101.1714              1121.6639
 Red. masses --      1.7087                 4.9063                 2.2861
 Frc consts  --      1.1883                 3.5052                 1.6946
 IR Inten    --     11.3652               198.8881                 6.4052

                     43                     44                     45
                      A                      A                      A
 Frequencies --   1143.9786              1161.0681              1171.8362
 Red. masses --      2.6947                 2.7906                 2.3852
 Frc consts  --      2.0778                 2.2165                 1.9298
 IR Inten    --     85.3318                38.9119                45.7316

                     46                     47                     48
                      A                      A                      A
 Frequencies --   1185.3009              1191.5126              1194.4650
 Red. masses --      1.6126                 1.3568                 1.4379
 Frc consts  --      1.3348                 1.1349                 1.2087
 IR Inten    --     13.0215                 9.9048                 2.9534

                     49                     50                     51
                      A                      A                      A
 Frequencies --   1219.7134              1227.4066              1240.1754
 Red. masses --      1.3891                 1.4921                 1.4013
 Frc consts  --      1.2176                 1.3244                 1.2698
 IR Inten    --     20.4574                14.7623                 2.8319

                     52                     53                     54
                      A                      A                      A
 Frequencies --   1246.8188              1291.0966              1310.0480
 Red. masses --      1.5887                 1.3220                 1.2598
 Frc consts  --      1.4551                 1.2984                 1.2739
 IR Inten    --      5.5529                 5.7213                 3.5076

                     55                     56                     57
                      A                      A                      A
 Frequencies --   1333.3122              1346.8478              1372.2828
 Red. masses --      1.2478                 1.1660                 1.2817
 Frc consts  --      1.3070                 1.2462                 1.4221
 IR Inten    --      1.5488                 2.4624                 5.7858

                     58                     59                     60
                      A                      A                      A
 Frequencies --   1384.4986              1393.6410              1406.0755
 Red. masses --      1.4665                 1.3263                 1.4081
 Frc consts  --      1.6562                 1.5177                 1.6402
 IR Inten    --      1.9742                16.3926                 6.2482

                     61                     62                     63
                      A                      A                      A
 Frequencies --   1409.0270              1420.6674              1422.6642
 Red. masses --      1.2167                 1.3762                 1.4150
 Frc consts  --      1.4232                 1.6365                 1.6874
 IR Inten    --      9.1339                 6.9876                 0.5673

                     64                     65                     66
                      A                      A                      A
 Frequencies --   1433.9031              1443.0497              1444.5912
 Red. masses --      1.4571                 1.2647                 1.2607
 Frc consts  --      1.7651                 1.5517                 1.5501
 IR Inten    --     14.0231                 3.9968                10.9969

                     67                     68                     69
                      A                      A                      A
 Frequencies --   1487.7943              1501.7448              1508.8238
 Red. masses --      1.1387                 1.1688                 1.0722
 Frc consts  --      1.4851                 1.5531                 1.4382
 IR Inten    --      0.3566                 1.7306                 0.1950

                     70                     71                     72
                      A                      A                      A
 Frequencies --   1513.3298              1519.2784              1520.8713
 Red. masses --      1.0495                 1.0761                 1.0584
 Frc consts  --      1.4161                 1.4635                 1.4424
 IR Inten    --      2.4122                 1.5325                 2.0270

                     73                     74                     75
                      A                      A                      A
 Frequencies --   1523.8808              1527.2469              1531.1803
 Red. masses --      1.0597                 1.0590                 1.0650
 Frc consts  --      1.4499                 1.4554                 1.4712
 IR Inten    --      0.7627                13.6901                 3.3084

                     76                     77                     78
                      A                      A                      A
 Frequencies --   1533.4560              1537.2338              1538.7962
 Red. masses --      1.0680                 1.0561                 1.0555
 Frc consts  --      1.4797                 1.4704                 1.4726
 IR Inten    --      7.9231                 1.5971                 2.8017

                     79                     80                     81
                      A                      A                      A
 Frequencies --   1542.3711              1545.3116              1547.6766
 Red. masses --      1.0648                 1.0864                 1.0545
 Frc consts  --      1.4924                 1.5285                 1.4881
 IR Inten    --      9.0873                 1.5701                 3.7714

                     82                     83                     84
                      A                      A                      A
 Frequencies --   3008.6970              3017.4193              3023.2636
 Red. masses --      1.0762                 1.0485                 1.0695
 Frc consts  --      5.7398                 5.6245                 5.7593
 IR Inten    --     19.1583                67.4428                49.5798

                     85                     86                     87
                      A                      A                      A
 Frequencies --   3026.4641              3030.8528              3036.0515
 Red. masses --      1.0656                 1.0405                 1.0609
 Frc consts  --      5.7508                 5.6317                 5.7617
 IR Inten    --     19.9632                20.9756                28.6602

                     88                     89                     90
                      A                      A                      A
 Frequencies --   3037.5586              3043.2115              3045.3912
 Red. masses --      1.0599                 1.0459                 1.0587
 Frc consts  --      5.7620                 5.7068                 5.7853
 IR Inten    --     29.3914                15.0475                 9.6512

                     91                     92                     93
                      A                      A                      A
 Frequencies --   3051.3479              3060.5180              3064.3870
 Red. masses --      1.0477                 1.0917                 1.0825
 Frc consts  --      5.7472                 6.0249                 5.9894
 IR Inten    --     15.8707                10.0413                31.9844

                     94                     95                     96
                      A                      A                      A
 Frequencies --   3065.1719              3073.0211              3080.4212
 Red. masses --      1.0964                 1.1002                 1.1000
 Frc consts  --      6.0690                 6.1212                 6.1497
 IR Inten    --     65.8178                46.0132               109.1237

                     97                     98                     99
                      A                      A                      A
 Frequencies --   3086.4866              3096.5601              3107.8304
 Red. masses --      1.0953                 1.0988                 1.1014
 Frc consts  --      6.1476                 6.2074                 6.2677
 IR Inten    --     37.3153                40.7206                50.2691

                    100                    101                    102
                      A                      A                      A
 Frequencies --   3112.8915              3115.0080              3117.0658
 Red. masses --      1.0913                 1.1018                 1.0968
 Frc consts  --      6.2307                 6.2989                 6.2785
 IR Inten    --     42.4322                41.9030                35.9957

                    103                    104                    105
                      A                      A                      A
 Frequencies --   3141.6171              3143.1175              3146.5596
 Red. masses --      1.1013                 1.1031                 1.1019
 Frc consts  --      6.4041                 6.4208                 6.4280
 IR Inten    --     42.2021                19.3307                25.1269

 - Thermochemistry -
 -------------------
 Temperature   298.150 Kelvin.  Pressure   1.00000 Atm.
 Atom     1 has atomic number  6 and mass  12.00000

 Molecular mass:   188.17763 amu.
 Principal axes and moments of inertia in atomic units:
                           1         2         3
     Eigenvalues --  1553.636634711.884045380.80229
           X            1.00000  -0.00164   0.00241
           Y            0.00166   0.99998  -0.00549
           Z           -0.00241   0.00549   0.99998
 This molecule is an asymmetric top.
 Rotational symmetry number  1.
 Warning -- assumption of classical behavior for rotation
           may cause significant error
 Rotational temperatures (Kelvin)      0.05575     0.01838     0.01610
 Rotational constants (GHZ):           1.16162     0.38302     0.33540
 Zero-point vibrational energy     902568.8 (Joules/Mol)
                                  215.71912 (Kcal/Mol)
 Warning -- explicit consideration of  24 degrees of freedom as
           vibrations may cause significant error
 Vibrational temperatures:     29.33    55.73    84.06   107.15   141.37
          (Kelvin)            160.41   188.43   206.28   233.49   255.60
                              279.62   297.73   365.86   374.17   425.60
                              434.23   457.39   497.33   544.59   599.20
                              636.44   666.79   751.06   848.24   940.48
                             1040.78  1089.62  1195.31  1199.61  1276.18
                             1301.19  1341.38  1353.28  1395.13  1425.08
                             1443.55  1456.24  1524.80  1555.06  1563.14
                             1584.34  1613.82  1645.93  1670.52  1686.01
                             1705.38  1714.32  1718.57  1754.90  1765.96
                             1784.34  1793.89  1857.60  1884.87  1918.34
                             1937.81  1974.41  1991.98  2005.14  2023.03
                             2027.28  2044.02  2046.90  2063.07  2076.23
                             2078.44  2140.60  2160.68  2170.86  2177.34
                             2185.90  2188.19  2192.52  2197.37  2203.03
                             2206.30  2211.74  2213.98  2219.13  2223.36
                             2226.76  4328.84  4341.39  4349.80  4354.41
                             4360.72  4368.20  4370.37  4378.50  4381.64
                             4390.21  4403.40  4408.97  4410.10  4421.39
                             4432.04  4440.77  4455.26  4471.47  4478.76
                             4481.80  4484.76  4520.09  4522.25  4527.20

 Zero-point correction=                           0.343770 (Hartree/Particle)
 Thermal correction to Energy=                    0.360467
 Thermal correction to Enthalpy=                  0.361411
 Thermal correction to Gibbs Free Energy=         0.298543
 Sum of electronic and zero-point Energies=           -583.776560
 Sum of electronic and thermal Energies=              -583.759864
 Sum of electronic and thermal Enthalpies=            -583.758919
 Sum of electronic and thermal Free Energies=         -583.821788

                     E (Thermal)             CV                S
                      KCal/Mol        Cal/Mol-Kelvin    Cal/Mol-Kelvin
 Total                  226.196             60.219            132.317
 Electronic               0.000              0.000              0.000
 Translational            0.889              2.981             41.603
 Rotational               0.889              2.981             32.044
 Vibrational            224.419             54.257             58.671
 Vibration     1          0.593              1.986              6.597
 Vibration     2          0.594              1.981              5.323
 Vibration     3          0.596              1.974              4.510
 Vibration     4          0.599              1.966              4.031
 Vibration     5          0.604              1.950              3.489
 Vibration     6          0.607              1.940              3.243
 Vibration     7          0.612              1.922              2.932
 Vibration     8          0.616              1.910              2.758
 Vibration     9          0.622              1.889              2.523
 Vibration    10          0.628              1.870              2.353
 Vibration    11          0.635              1.848              2.186
 Vibration    12          0.641              1.830              2.071
 Vibration    13          0.665              1.756              1.701
 Vibration    14          0.668              1.746              1.661
 Vibration    15          0.690              1.682              1.441
 Vibration    16          0.694              1.670              1.407
 Vibration    17          0.704              1.639              1.321
 Vibration    18          0.724              1.584              1.186
 Vibration    19          0.749              1.516              1.045
 Vibration    20          0.780              1.434              0.904
 Vibration    21          0.802              1.378              0.819
 Vibration    22          0.821              1.331              0.756
 Vibration    23          0.877              1.201              0.605
 Vibration    24          0.947              1.054              0.468

 Optimization completed.
    -- Stationary point found.
 Normal termination of Gaussian 16 at Sun Dec 13 16:08:27 2020.

 ----------------------------------------------------------------------
 # B3LYP/6-311++G(d,p) empiricaldispersion=gd3bj scf=xqc pop=npa geom=c
 heck
 ----------------------------------------------------------------------

 --------------------------------------
 CID_86049390_JID_3653_Energie_neutraal
 --------------------------------------
 Structure from the checkpoint file:  "JID_3653.chk"
 Charge =  0 Multiplicity = 1

 SCF Done:  E(RB3LYP) =  -584.290222552     A.U. after   13 cycles
 Normal termination of Gaussian 16 at Sun Dec 13 16:12:51 2020.

 ----------------------------------------------------------------------
 # B3LYP/6-311++G(d,p) empiricaldispersion=gd3bj scf=xqc pop=npa geom=c
 heck
 ----------------------------------------------------------------------

 ------------------------------------
 CID_86049390_JID_3653_Energie_kation
 ------------------------------------
 Structure from the checkpoint file:  "JID_3653.chk"
 Charge =  1 Multiplicity = 2

 SCF Done:  E(UB3LYP) =  -583.950535510     A.U. after   26 cycles
 Normal termination of Gaussian 16 at Sun Dec 13 16:24:47 2020.
 Gaussian 16:  ES64L-G16RevA.03 25-Dec-2016

 ----------------------------------------------------------------------
 # B3LYP/6-311++G(d,p) empiricaldispersion=gd3bj scf=xqc pop=npa geom=c
 heck
 ----------------------------------------------------------------------

 -----------------------------------
 CID_86049390_JID_3653_Energie_anion
 -----------------------------------
 Structure from the checkpoint file:  "JID_3653.chk"
 Charge = -1 Multiplicity = 2

                         Standard orientation:
 ---------------------------------------------------------------------
 Center     Atomic      Atomic             Coordinates (Angstroms)
 Number     Number       Type             X           Y           Z
 ---------------------------------------------------------------------
      1          6           0       -4.679885    0.686228    0.054523
      2          6           0       -3.246496    1.224367    0.092793
      3          6           0       -2.307161    0.434483    1.016842
      4          6           0       -2.142918   -1.052108    0.659878
      5          6           0       -1.631190   -1.321153   -0.764945
      6          6           0       -0.331145   -0.587380   -1.126269
      7          6           0        0.861994   -0.885244   -0.200020
      8          6           0        1.344502   -2.333766   -0.328829
      9          6           0        2.004793    0.094055   -0.493048
     10          8           0        1.525428    1.393112   -0.226182
     11          6           0        2.386138    2.422776   -0.687117
     12          8           0        3.202599   -0.175298    0.213187
     13          6           0        3.096663   -0.100262    1.629590
     14          1           0       -4.722025   -0.325035   -0.365215
     15          1           0       -5.326490    1.324118   -0.558503
     16          1           0       -5.111119    0.643476    1.062560
     17          1           0       -2.836514    1.241184   -0.925530
     18          1           0       -3.262778    2.270215    0.426563
     19          1           0       -1.323124    0.920505    1.017513
     20          1           0       -2.683618    0.504510    2.047181
     21          1           0       -1.459409   -1.510246    1.386845
     22          1           0       -3.100992   -1.571300    0.790243
     23          1           0       -1.502251   -2.403406   -0.894293
     24          1           0       -2.401187   -1.026003   -1.489649
     25          1           0       -0.048791   -0.850029   -2.156387
     26          1           0       -0.510157    0.491531   -1.122147
     27          1           0        0.549803   -0.702310    0.835428
     28          1           0        1.642507   -2.551041   -1.362339
     29          1           0        2.208873   -2.529788    0.310877
     30          1           0        0.550727   -3.036568   -0.057188
     31          1           0        2.310385    0.015775   -1.547984
     32          1           0        2.522643    2.364295   -1.777444
     33          1           0        1.905733    3.371233   -0.435983
     34          1           0        3.370774    2.370486   -0.207900
     35          1           0        2.583771    0.815338    1.944553
     36          1           0        2.567640   -0.966798    2.048831
     37          1           0        4.119608   -0.094641    2.013535
 ---------------------------------------------------------------------

 SCF Done:  E(UB3LYP) =  -584.273899855     A.U. after   28 cycles

 The electronic state is 2-A.
 Alpha  occ. eigenvalues --  -19.03536 -19.03189 -10.16951 -10.11611 -10.11208
 Alpha  occ. eigenvalues --  -10.07680 -10.06578 -10.06576 -10.06395 -10.06375
 Alpha  occ. eigenvalues --  -10.06251 -10.06180 -10.06160  -0.97747  -0.91453
 Alpha  occ. eigenvalues --   -0.72510  -0.69836  -0.65679  -0.62548  -0.60347
 Alpha  occ. eigenvalues --   -0.59668  -0.56237  -0.53338  -0.50078  -0.47397
 Alpha  occ. eigenvalues --   -0.44439  -0.41565  -0.40958  -0.39473  -0.37916
 Alpha  occ. eigenvalues --   -0.36692  -0.35349  -0.33966  -0.33682  -0.32929
 Alpha  occ. eigenvalues --   -0.32105  -0.30517  -0.30285  -0.29827  -0.29063
 Alpha  occ. eigenvalues --   -0.27371  -0.26980  -0.26760  -0.25666  -0.24879
 Alpha  occ. eigenvalues --   -0.24069  -0.23448  -0.22234  -0.21290  -0.21046
 Alpha  occ. eigenvalues --   -0.20458  -0.18406  -0.17439   0.04370
 Alpha virt. eigenvalues --    0.06162   0.06650   0.07016   0.08096   0.08432
 Alpha virt. eigenvalues --    0.08954   0.09265   0.09579   0.10502   0.10844
 Alpha virt. eigenvalues --    0.11247   0.11564   0.11887   0.12384   0.12565

  Beta  occ. eigenvalues --  -19.03529 -19.03185 -10.16946 -10.11581 -10.11175
  Beta  occ. eigenvalues --  -10.07675 -10.06564 -10.06563 -10.06387 -10.06362
  Beta  occ. eigenvalues --  -10.06230 -10.06171 -10.06131  -0.97735  -0.91440
  Beta  occ. eigenvalues --   -0.72491  -0.69812  -0.65649  -0.62510  -0.60310
  Beta  occ. eigenvalues --   -0.59618  -0.56193  -0.53287  -0.50030  -0.47355
  Beta  occ. eigenvalues --   -0.44397  -0.41534  -0.40937  -0.39448  -0.37888
  Beta  occ. eigenvalues --   -0.36664  -0.35321  -0.33934  -0.33655  -0.32899
  Beta  occ. eigenvalues --   -0.32071  -0.30487  -0.30258  -0.29801  -0.29036
  Beta  occ. eigenvalues --   -0.27345  -0.26950  -0.26729  -0.25637  -0.24848
  Beta  occ. eigenvalues --   -0.24045  -0.23425  -0.22213  -0.21264  -0.21018
  Beta  occ. eigenvalues --   -0.20430  -0.18387  -0.17426
  Beta virt. eigenvalues --    0.06300   0.06931   0.07370   0.07499   0.08638
  Beta virt. eigenvalues --    0.08801   0.09276   0.09582   0.10085   0.10825
  Beta virt. eigenvalues --    0.11277   0.11529   0.11837   0.12155   0.12741

 Mulliken charges and spin densities:
               1          2
     1  C    0.817353  -1.459359
     2  C   -0.835525   0.657181
     3  C    0.085837  -0.306617
     4  C   -0.132982  -0.103400
     5  C    0.848441  -1.333675
     6  C   -0.956926   0.753155
     7  C    0.672202  -0.079681
     8  C    0.837263  -1.381289
     9  C   -2.121423   0.987465
    10  O   -0.086540   0.031246
    11  C    0.735214  -0.948543
    12  O   -0.041706   0.007676
    13  C    0.674299  -0.930580
    14  H   -0.005968   0.137309
    15  H   -0.259038   0.392485
    16  H   -0.123904   0.257870
    17  H    0.016745   0.111736
    18  H   -0.185288   0.330083
    19  H    0.078597   0.119598
    20  H   -0.134025   0.284587
    21  H   -0.231811   0.405970
    22  H   -0.071569   0.242136
    23  H    0.119514   0.021198
    24  H   -0.052896   0.229381
    25  H   -0.080472   0.213131
    26  H    0.085494   0.078556
    27  H    0.897572  -0.757334
    28  H   -0.059034   0.209760
    29  H    0.057628   0.084730
    30  H   -0.150227   0.280829
    31  H    0.013316   0.162776
    32  H   -0.170937   0.306024
    33  H   -0.290286   0.434835
    34  H   -0.160139   0.307992
    35  H   -0.023543   0.182358
    36  H   -0.336358   0.476471
    37  H   -0.428880   0.593938
 Sum of Mulliken charges =  -1.00000   1.00000

 Dipole moment (field-independent basis, Debye):
    X=              0.2561    Y=             -1.4401    Z=             -1.6308  Tot=              2.1906
 Quadrupole moment (field-independent basis, Debye-Ang):
   XX=           -171.9349   YY=           -133.5375   ZZ=           -122.9712
   XY=              1.5564   XZ=             -3.6781   YZ=              2.0582

 Summary of Natural Population Analysis:

                                       Natural Population
                Natural  -----------------------------------------------
    Atom  No    Charge         Core      Valence    Rydberg      Total
 -----------------------------------------------------------------------
      C    1   -0.28555      0.99967     2.28150    0.00438     3.28555
      C    2   -0.19247      0.99964     2.18464    0.00818     3.19247
      C    3   -0.19329      0.99962     2.18522    0.00844     3.19329
      C    4   -0.19265      0.99963     2.18436    0.00866     3.19265
      C    5   -0.19034      0.99962     2.18231    0.00840     3.19034
      C    6   -0.19157      0.99961     2.18268    0.00928     3.19157
      C    7   -0.13589      0.99957     2.12600    0.01031     3.13589
      C    8   -0.28757      0.99964     2.28099    0.00694     3.28757
      C    9    0.23109      0.99953     1.75087    0.01851     2.76891
      O   10   -0.30313      0.99987     3.29478    0.00848     4.30313
      C   11   -0.10114      0.99961     2.09204    0.00950     3.10114
      O   12   -0.30653      0.99988     3.29674    0.00990     4.30653
      C   13   -0.10723      0.99959     2.09804    0.00960     3.10723
      H   14    0.09554      0.00000     0.40331    0.00115     0.40446
      H   15    0.09784      0.00000     0.40105    0.00112     0.40216
      H   16    0.09477      0.00000     0.40395    0.00128     0.40523
      H   17    0.09343      0.00000     0.40522    0.00135     0.40657
      H   18    0.09595      0.00000     0.40299    0.00106     0.40405
      H   19    0.10093      0.00000     0.39722    0.00186     0.39907
      H   20    0.09468      0.00000     0.40422    0.00110     0.40532
      H   21    0.09635      0.00000     0.40238    0.00126     0.40365
      H   22    0.09679      0.00000     0.40210    0.00111     0.40321
      H   23    0.09591      0.00000     0.40298    0.00111     0.40409
      H   24    0.09646      0.00000     0.40248    0.00106     0.40354
      H   25    0.09498      0.00000     0.40394    0.00108     0.40502
      H   26    0.10673      0.00000     0.39142    0.00185     0.39327
      H   27    0.10141      0.00000     0.39551    0.00308     0.39859
      H   28    0.09651      0.00000     0.40258    0.00091     0.40349
      H   29    0.10478      0.00000     0.39427    0.00095     0.39522
      H   30    0.10063      0.00000     0.39849    0.00088     0.39937
      H   31    0.07571      0.00000     0.42240    0.00190     0.42429
      H   32    0.07926      0.00000     0.41943    0.00131     0.42074
      H   33    0.09157      0.00000     0.40738    0.00105     0.40843
      H   34    0.08590      0.00000     0.41261    0.00149     0.41410
      H   35    0.08825      0.00000     0.41029    0.00147     0.41175
      H   36    0.08105      0.00000     0.41756    0.00139     0.41895
      H   37    0.09084      0.00000     0.40799    0.00117     0.40916
 =======================================================================
   * Total *   -0.00000     12.99549    39.85194    0.15257    53.00000

 Normal termination of Gaussian 16 at Sun Dec 13 16:37:25 2020.
