 Gaussian 16, Revision A.03,

 -----------------------------------------------------------
 # opt freq B3LYP/6-31G(d) empiricaldispersion=gd3bj scf=xqc
 -----------------------------------------------------------

 ------------------------------
 CID_68347881_JID_2338_neutraal
 ------------------------------
 Symbolic Z-matrix:
 Charge =  0 Multiplicity = 1

 SCF Done:  E(RB3LYP) =  -538.750561727     A.U. after   14 cycles
 SCF Done:  E(RB3LYP) =  -538.753355751     A.U. after   12 cycles
 SCF Done:  E(RB3LYP) =  -538.753996925     A.U. after   12 cycles
 SCF Done:  E(RB3LYP) =  -538.754315994     A.U. after   12 cycles
 SCF Done:  E(RB3LYP) =  -538.754405776     A.U. after   11 cycles
 SCF Done:  E(RB3LYP) =  -538.754426857     A.U. after   10 cycles
 SCF Done:  E(RB3LYP) =  -538.754428831     A.U. after    8 cycles
 SCF Done:  E(RB3LYP) =  -538.754429164     A.U. after    8 cycles
 SCF Done:  E(RB3LYP) =  -538.754429201     A.U. after    7 cycles
 Optimization completed.
    -- Stationary point found.
 Normal termination of Gaussian 16 at Wed Dec  9 17:06:21 2020.

 --------------------------------------------------------------------
 #N Geom=AllCheck Guess=TCheck SCRF=Check GenChk RB3LYP/6-31G(d) Freq
 --------------------------------------------------------------------

 Structure from the checkpoint file:  "JID_2338.chk"
 ------------------------------
 CID_68347881_JID_2338_neutraal
 ------------------------------
 Charge =  0 Multiplicity = 1

 SCF Done:  E(RB3LYP) =  -538.754429201     A.U. after    1 cycles

  Exact polarizability: 155.489   8.400 115.440  11.622  -6.013  62.702
 Approx polarizability: 229.916  25.271 195.734  21.185 -17.814  93.896

                      1                      2                      3
                      A                      A                      A
 Frequencies --     43.0603                75.0633               116.0206
 Red. masses --      3.8903                 3.2871                 3.0880
 Frc consts  --      0.0042                 0.0109                 0.0245
 IR Inten    --      0.9020                 0.5243                 0.6082

                      4                      5                      6
                      A                      A                      A
 Frequencies --    181.2417               186.2711               217.4533
 Red. masses --      2.5819                 3.4877                 1.1825
 Frc consts  --      0.0500                 0.0713                 0.0329
 IR Inten    --      2.3919                10.2950               141.8026

                      7                      8                      9
                      A                      A                      A
 Frequencies --    237.3369               255.7791               309.2306
 Red. masses --      1.2877                 3.0962                 5.0991
 Frc consts  --      0.0427                 0.1193                 0.2873
 IR Inten    --      1.0204                17.3781                 5.6627

                     10                     11                     12
                      A                      A                      A
 Frequencies --    329.5794               364.7639               418.6030
 Red. masses --      4.3887                 3.8693                 3.9055
 Frc consts  --      0.2809                 0.3033                 0.4032
 IR Inten    --      1.0398                 1.7283                 1.4644

                     13                     14                     15
                      A                      A                      A
 Frequencies --    430.7404               458.0006               489.5615
 Red. masses --      1.2610                 2.3089                 3.3323
 Frc consts  --      0.1378                 0.2854                 0.4706
 IR Inten    --     61.8336                10.5707                 0.3635

                     16                     17                     18
                      A                      A                      A
 Frequencies --    525.3192               566.9761               599.8720
 Red. masses --      3.1027                 4.8490                 4.7685
 Frc consts  --      0.5045                 0.9184                 1.0110
 IR Inten    --     13.3166                 2.1455                 6.5749

                     19                     20                     21
                      A                      A                      A
 Frequencies --    665.5556               694.1267               701.2358
 Red. masses --      3.3295                 5.0014                 2.9300
 Frc consts  --      0.8689                 1.4198                 0.8489
 IR Inten    --      0.8144                 7.2446                 0.4706

                     22                     23                     24
                      A                      A                      A
 Frequencies --    749.1579               800.9522               809.6330
 Red. masses --      1.2575                 2.4210                 1.5817
 Frc consts  --      0.4158                 0.9151                 0.6109
 IR Inten    --      7.9321                30.4840                21.9812

                     25                     26                     27
                      A                      A                      A
 Frequencies --    817.5004               875.3976               888.5961
 Red. masses --      1.5198                 2.2086                 1.4335
 Frc consts  --      0.5984                 0.9972                 0.6669
 IR Inten    --      6.6053                 5.7385                19.8774

                     28                     29                     30
                      A                      A                      A
 Frequencies --    912.6132               918.2638               965.0567
 Red. masses --      1.2898                 1.3736                 3.1575
 Frc consts  --      0.6329                 0.6824                 1.7326
 IR Inten    --      5.3277                28.6996                20.1013

                     31                     32                     33
                      A                      A                      A
 Frequencies --   1024.0889              1079.9568              1107.5058
 Red. masses --      2.0229                 1.6582                 1.6925
 Frc consts  --      1.2500                 1.1395                 1.2231
 IR Inten    --      2.1025                 7.9837                 2.2684

                     34                     35                     36
                      A                      A                      A
 Frequencies --   1128.3217              1151.8743              1189.6353
 Red. masses --      2.0336                 1.7145                 1.2324
 Frc consts  --      1.5254                 1.3403                 1.0276
 IR Inten    --     65.2668                54.1294                68.0325

                     37                     38                     39
                      A                      A                      A
 Frequencies --   1235.1771              1266.8996              1299.4378
 Red. masses --      1.4614                 1.9486                 1.3110
 Frc consts  --      1.3136                 1.8427                 1.3043
 IR Inten    --     41.6381                37.9739                 5.5220

                     40                     41                     42
                      A                      A                      A
 Frequencies --   1320.0574              1348.6522              1363.8911
 Red. masses --      2.4600                 2.6196                 1.4941
 Frc consts  --      2.5257                 2.8073                 1.6375
 IR Inten    --     88.8193               168.6467                75.0661

                     43                     44                     45
                      A                      A                      A
 Frequencies --   1376.1247              1395.5865              1436.7084
 Red. masses --      1.8102                 4.5876                 1.2315
 Frc consts  --      2.0198                 5.2644                 1.4977
 IR Inten    --      3.0156                66.0108                 3.5265

                     46                     47                     48
                      A                      A                      A
 Frequencies --   1468.2606              1512.6233              1520.3475
 Red. masses --      1.2560                 2.3743                 1.0969
 Frc consts  --      1.5953                 3.2007                 1.4938
 IR Inten    --      3.0370                 8.4243                 5.5982

                     49                     50                     51
                      A                      A                      A
 Frequencies --   1527.3301              1540.9875              1568.3440
 Red. masses --      1.0477                 1.0734                 3.3052
 Frc consts  --      1.4400                 1.5017                 4.7900
 IR Inten    --      3.6666                 6.6890               150.5413

                     52                     53                     54
                      A                      A                      A
 Frequencies --   1656.2984              1680.1775              1710.4201
 Red. masses --      6.1531                 6.2449                 5.0580
 Frc consts  --      9.9455                10.3869                 8.7184
 IR Inten    --     63.0110                11.1731                 7.8522

                     55                     56                     57
                      A                      A                      A
 Frequencies --   3037.0031              3053.8137              3083.6813
 Red. masses --      1.0659                 1.0352                 1.0962
 Frc consts  --      5.7925                 5.6880                 6.1418
 IR Inten    --     22.8829                30.6090                20.6236

                     58                     59                     60
                      A                      A                      A
 Frequencies --   3120.4789              3131.8537              3165.4615
 Red. masses --      1.1031                 1.1022                 1.0595
 Frc consts  --      6.3285                 6.3697                 6.2553
 IR Inten    --     34.2318                39.8121                 7.9909

                     61                     62                     63
                      A                      A                      A
 Frequencies --   3170.1479              3217.2365              3222.3306
 Red. masses --      1.0893                 1.0917                 1.0897
 Frc consts  --      6.4499                 6.6578                 6.6668
 IR Inten    --     21.7070                 6.8350                 4.0505

                     64                     65                     66
                      A                      A                      A
 Frequencies --   3243.7595              3717.8442              3773.4205
 Red. masses --      1.1157                 1.0651                 1.0662
 Frc consts  --      6.9164                 8.6741                 8.9449
 IR Inten    --     19.1007                85.3374                69.2547

 - Thermochemistry -
 -------------------
 Temperature   298.150 Kelvin.  Pressure   1.00000 Atm.
 Atom     1 has atomic number  6 and mass  12.00000

 Molecular mass:   164.08373 amu.
 Principal axes and moments of inertia in atomic units:
                           1         2         3
     Eigenvalues --  1036.302903142.378143735.84611
           X            0.99985  -0.01716  -0.00248
           Y            0.01720   0.99972   0.01634
           Z            0.00220  -0.01638   0.99986
 This molecule is an asymmetric top.
 Rotational symmetry number  1.
 Warning -- assumption of classical behavior for rotation
           may cause significant error
 Rotational temperatures (Kelvin)      0.08358     0.02756     0.02318
 Rotational constants (GHZ):           1.74152     0.57432     0.48309
 Zero-point vibrational energy     523059.4 (Joules/Mol)
                                  125.01419 (Kcal/Mol)
 Warning -- explicit consideration of  18 degrees of freedom as
           vibrations may cause significant error
 Vibrational temperatures:     61.95   108.00   166.93   260.77   268.00
          (Kelvin)            312.87   341.47   368.01   444.91   474.19
                              524.81   602.28   619.74   658.96   704.37
                              755.82   815.75   863.08   957.59   998.69
                             1008.92  1077.87  1152.39  1164.88  1176.20
                             1259.50  1278.49  1313.05  1321.18  1388.50
                             1473.44  1553.82  1593.45  1623.40  1657.29
                             1711.62  1777.14  1822.79  1869.60  1899.27
                             1940.41  1962.34  1979.94  2007.94  2067.10
                             2112.50  2176.33  2187.44  2197.49  2217.14
                             2256.50  2383.04  2417.40  2460.91  4369.57
                             4393.76  4436.73  4489.67  4506.04  4554.39
                             4561.14  4628.89  4636.22  4667.05  5349.15
                             5429.11

 Zero-point correction=                           0.199223 (Hartree/Particle)
 Thermal correction to Energy=                    0.211031
 Thermal correction to Enthalpy=                  0.211975
 Thermal correction to Gibbs Free Energy=         0.161571
 Sum of electronic and zero-point Energies=           -538.555206
 Sum of electronic and thermal Energies=              -538.543398
 Sum of electronic and thermal Enthalpies=            -538.542454
 Sum of electronic and thermal Free Energies=         -538.592859

                     E (Thermal)             CV                S
                      KCal/Mol        Cal/Mol-Kelvin    Cal/Mol-Kelvin
 Total                  132.424             45.509            106.086
 Electronic               0.000              0.000              0.000
 Translational            0.889              2.981             41.194
 Rotational               0.889              2.981             30.876
 Vibrational            130.647             39.548             34.016
 Vibration     1          0.595              1.980              5.113
 Vibration     2          0.599              1.966              4.016
 Vibration     3          0.608              1.936              3.166
 Vibration     4          0.630              1.865              2.316
 Vibration     5          0.632              1.859              2.265
 Vibration     6          0.646              1.814              1.980
 Vibration     7          0.656              1.784              1.823
 Vibration     8          0.666              1.753              1.690
 Vibration     9          0.699              1.656              1.366
 Vibration    10          0.712              1.616              1.262
 Vibration    11          0.738              1.545              1.102
 Vibration    12          0.781              1.430              0.897
 Vibration    13          0.792              1.403              0.856
 Vibration    14          0.816              1.343              0.772
 Vibration    15          0.845              1.273              0.685
 Vibration    16          0.880              1.194              0.598
 Vibration    17          0.923              1.103              0.510
 Vibration    18          0.958              1.032              0.450

                           ! Non-Optimized Parameters !
 Normal termination of Gaussian 16 at Wed Dec  9 17:11:35 2020.

 ----------------------------------------------------------------------
 # B3LYP/6-311++G(d,p) empiricaldispersion=gd3bj scf=xqc pop=npa geom=c
 heck
 ----------------------------------------------------------------------

 --------------------------------------
 CID_68347881_JID_2338_Energie_neutraal
 --------------------------------------
 Structure from the checkpoint file:  "JID_2338.chk"
 Charge =  0 Multiplicity = 1

 SCF Done:  E(RB3LYP) =  -538.919853651     A.U. after   15 cycles
 Normal termination of Gaussian 16 at Wed Dec  9 17:13:35 2020.

 ----------------------------------------------------------------------
 # B3LYP/6-311++G(d,p) empiricaldispersion=gd3bj scf=xqc pop=npa geom=c
 heck
 ----------------------------------------------------------------------

 ------------------------------------
 CID_68347881_JID_2338_Energie_kation
 ------------------------------------
 Structure from the checkpoint file:  "JID_2338.chk"
 Charge =  1 Multiplicity = 2

 SCF Done:  E(UB3LYP) =  -538.637859711     A.U. after   22 cycles
 Normal termination of Gaussian 16 at Wed Dec  9 17:17:29 2020.
 Gaussian 16:  ES64L-G16RevA.03 25-Dec-2016

 ----------------------------------------------------------------------
 # B3LYP/6-311++G(d,p) empiricaldispersion=gd3bj scf=xqc pop=npa geom=c
 heck
 ----------------------------------------------------------------------

 -----------------------------------
 CID_68347881_JID_2338_Energie_anion
 -----------------------------------
 Structure from the checkpoint file:  "JID_2338.chk"
 Charge = -1 Multiplicity = 2

                         Standard orientation:
 ---------------------------------------------------------------------
 Center     Atomic      Atomic             Coordinates (Angstroms)
 Number     Number       Type             X           Y           Z
 ---------------------------------------------------------------------
      1          6           0       -2.753716    1.316560    1.316927
      2          6           0       -2.849379    0.853659   -0.144508
      3          6           0       -2.079355   -0.422881   -0.413109
      4          6           0       -2.712491   -1.535842   -0.811275
      5          6           0       -0.608967   -0.405877   -0.198209
      6          6           0        0.150613    0.739743   -0.493752
      7          6           0        1.527718    0.753427   -0.313099
      8          6           0        2.175722   -0.389018    0.182812
      9          6           0        1.438841   -1.524750    0.494921
     10          6           0        0.055852   -1.531163    0.310038
     11          8           0        3.540368   -0.269110    0.331173
     12          8           0        2.244426    1.873320   -0.618283
     13          1           0       -3.151223    0.549452    1.990574
     14          1           0       -3.325139    2.238258    1.472379
     15          1           0       -1.714635    1.507291    1.603049
     16          1           0       -3.899111    0.697050   -0.416521
     17          1           0       -2.482521    1.656131   -0.799092
     18          1           0       -2.177460   -2.453030   -1.038881
     19          1           0       -3.791361   -1.555889   -0.937985
     20          1           0       -0.313426    1.636805   -0.888159
     21          1           0        1.942436   -2.401436    0.897815
     22          1           0       -0.515878   -2.409894    0.587552
     23          1           0        3.902931   -1.101261    0.669111
     24          1           0        3.178010    1.679702   -0.427435
 ---------------------------------------------------------------------

 SCF Done:  E(UB3LYP) =  -538.909095856     A.U. after   33 cycles
 SCF Done:  E(UB3LYP) =  -538.909095856     a.u. after    1 cycles

 The electronic state is 2-A.
 Alpha  occ. eigenvalues --  -19.04188 -19.03771 -10.11865 -10.11585 -10.07502
 Alpha  occ. eigenvalues --  -10.07213 -10.06651 -10.06530 -10.05951 -10.05809
 Alpha  occ. eigenvalues --  -10.05613 -10.04757  -0.96330  -0.93460  -0.74754
 Alpha  occ. eigenvalues --   -0.70368  -0.64231  -0.63486  -0.60789  -0.53242
 Alpha  occ. eigenvalues --   -0.52719  -0.49812  -0.45976  -0.43359  -0.40261
 Alpha  occ. eigenvalues --   -0.37469  -0.36687  -0.34542  -0.33623  -0.32124
 Alpha  occ. eigenvalues --   -0.31808  -0.31262  -0.29194  -0.28256  -0.27768
 Alpha  occ. eigenvalues --   -0.26191  -0.25830  -0.24747  -0.24020  -0.22690
 Alpha  occ. eigenvalues --   -0.22104  -0.16161  -0.12816  -0.09787   0.05054
 Alpha virt. eigenvalues --    0.06494   0.07478   0.08473   0.09111   0.09669
 Alpha virt. eigenvalues --    0.09787   0.10370   0.11496   0.11683   0.12720
 Alpha virt. eigenvalues --    0.13491   0.13595   0.14349   0.15464   0.16028

  Beta  occ. eigenvalues --  -19.04171 -19.03663 -10.11875 -10.11520 -10.07502
  Beta  occ. eigenvalues --  -10.07149 -10.06645 -10.06502 -10.05930 -10.05772
  Beta  occ. eigenvalues --  -10.05586 -10.04679  -0.96238  -0.93302  -0.74651
  Beta  occ. eigenvalues --   -0.70266  -0.64154  -0.63402  -0.60657  -0.53166
  Beta  occ. eigenvalues --   -0.52563  -0.49760  -0.45856  -0.43202  -0.40178
  Beta  occ. eigenvalues --   -0.37398  -0.36634  -0.34474  -0.33553  -0.32040
  Beta  occ. eigenvalues --   -0.31706  -0.31198  -0.29138  -0.28177  -0.27717
  Beta  occ. eigenvalues --   -0.26138  -0.25710  -0.24704  -0.23959  -0.22557
  Beta  occ. eigenvalues --   -0.22004  -0.15783  -0.12606  -0.09503
  Beta virt. eigenvalues --    0.06712   0.07959   0.08418   0.08674   0.09382
  Beta virt. eigenvalues --    0.09961   0.10364   0.10504   0.11572   0.11995
  Beta virt. eigenvalues --    0.13091   0.13525   0.13623   0.14496   0.15731

 Mulliken charges and spin densities:
               1          2
     1  C   -0.561577  -0.074713
     2  C   -0.336691   0.059010
     3  C    0.423108  -0.332107
     4  C   -0.497554   0.161584
     5  C    1.630072   0.025286
     6  C   -0.677651   0.217567
     7  C    0.280859  -0.832098
     8  C    2.378680  -2.570189
     9  C   -0.817995   0.946074
    10  C   -1.179260   0.337677
    11  O   -0.350496   0.052829
    12  O   -0.239828  -0.024637
    13  H    0.142179  -0.005403
    14  H    0.023606   0.085800
    15  H    0.159000  -0.000438
    16  H    0.009763   0.134049
    17  H    0.065073   0.068129
    18  H    0.125928  -0.013123
    19  H    0.094839  -0.007561
    20  H    0.153961  -0.000537
    21  H   -1.192924   1.372644
    22  H    0.065316   0.095928
    23  H   -0.814725   1.131405
    24  H    0.116315   0.172824
 Sum of Mulliken charges =  -1.00000   1.00000

 Dipole moment (field-independent basis, Debye):
    X=             -9.0366    Y=              4.3588    Z=             -1.8740  Tot=             10.2065
 Quadrupole moment (field-independent basis, Debye-Ang):
   XX=           -146.4791   YY=           -106.2746   ZZ=            -95.1358
   XY=             17.6503   XZ=            -11.8935   YZ=              7.1729

 Summary of Natural Population Analysis:

                                       Natural Population
                Natural  -----------------------------------------------
    Atom  No    Charge         Core      Valence    Rydberg      Total
 -----------------------------------------------------------------------
      C    1   -0.28374      0.99966     2.27969    0.00439     3.28374
      C    2   -0.20015      0.99960     2.19187    0.00867     3.20015
      C    3    0.00288      0.99950     1.98702    0.01060     2.99712
      C    4   -0.18718      0.99952     2.18059    0.00706     3.18718
      C    5   -0.03963      0.99948     2.03024    0.00991     3.03963
      C    6   -0.11423      0.99949     2.10610    0.00864     3.11423
      C    7    0.13534      0.99935     1.85143    0.01388     2.86466
      C    8    0.13993      0.99934     1.84725    0.01347     2.86007
      C    9   -0.12928      0.99952     2.11939    0.01037     3.12928
      C   10   -0.09448      0.99953     2.08589    0.00906     3.09448
      O   11   -0.35691      0.99987     3.34882    0.00822     4.35691
      O   12   -0.34676      0.99988     3.34059    0.00630     4.34676
      H   13    0.09598      0.00000     0.40334    0.00068     0.40402
      H   14    0.09261      0.00000     0.40624    0.00114     0.40739
      H   15    0.10380      0.00000     0.39547    0.00073     0.39620
      H   16    0.09559      0.00000     0.40310    0.00132     0.40441
      H   17    0.09799      0.00000     0.40043    0.00158     0.40201
      H   18    0.09293      0.00000     0.40625    0.00082     0.40707
      H   19    0.08655      0.00000     0.41259    0.00086     0.41345
      H   20    0.10104      0.00000     0.39785    0.00111     0.39896
      H   21    0.10825      0.00000     0.38899    0.00276     0.39175
      H   22    0.10036      0.00000     0.39824    0.00140     0.39964
      H   23    0.25443      0.00000     0.17826    0.06731     0.24557
      H   24    0.24468      0.00000     0.25239    0.00293     0.25532
 =======================================================================
   * Total *    0.00000     11.99475    31.81204    0.19321    44.00000

 Normal termination of Gaussian 16 at Wed Dec  9 17:23:11 2020.
