 Gaussian 16, Revision A.03,

 -----------------------------------------------------------
 # opt freq B3LYP/6-31G(d) empiricaldispersion=gd3bj scf=xqc
 -----------------------------------------------------------

 ------------------------------
 CID_81727423_JID_7931_neutraal
 ------------------------------
 Symbolic Z-matrix:
 Charge =  0 Multiplicity = 1

 SCF Done:  E(RB3LYP) =  -778.387682521     A.U. after   14 cycles
 SCF Done:  E(RB3LYP) =  -778.396477493     A.U. after   12 cycles
 SCF Done:  E(RB3LYP) =  -778.399889911     A.U. after   12 cycles
 SCF Done:  E(RB3LYP) =  -778.401389725     A.U. after   12 cycles
 SCF Done:  E(RB3LYP) =  -778.402867725     A.U. after   12 cycles
 SCF Done:  E(RB3LYP) =  -778.404031951     A.U. after   12 cycles
 SCF Done:  E(RB3LYP) =  -778.405294437     A.U. after   12 cycles
 SCF Done:  E(RB3LYP) =  -778.406329032     A.U. after   15 cycles
 SCF Done:  E(RB3LYP) =  -778.407289358     A.U. after   12 cycles
 SCF Done:  E(RB3LYP) =  -778.408220410     A.U. after   12 cycles
 SCF Done:  E(RB3LYP) =  -778.408953331     A.U. after   10 cycles
 SCF Done:  E(RB3LYP) =  -778.408956213     A.U. after   10 cycles
 SCF Done:  E(RB3LYP) =  -778.408959082     A.U. after    8 cycles
 SCF Done:  E(RB3LYP) =  -778.408959974     A.U. after    8 cycles
 SCF Done:  E(RB3LYP) =  -778.408960080     A.U. after    7 cycles
 Optimization completed.
    -- Stationary point found.
 Normal termination of Gaussian 16 at Fri Dec 11 13:11:17 2020.

 --------------------------------------------------------------------
 #N Geom=AllCheck Guess=TCheck SCRF=Check GenChk RB3LYP/6-31G(d) Freq
 --------------------------------------------------------------------

 Structure from the checkpoint file:  "JID_7931.chk"
 ------------------------------
 CID_81727423_JID_7931_neutraal
 ------------------------------
 Charge =  0 Multiplicity = 1

 SCF Done:  E(RB3LYP) =  -778.408960080     A.U. after    1 cycles

  Exact polarizability: 203.356  -4.022 147.225   5.891   4.854  99.473
 Approx polarizability: 278.052  -4.292 229.740  17.911  15.097 154.361

                      1                      2                      3
                      A                      A                      A
 Frequencies --     47.5946                50.8521                93.2446
 Red. masses --      3.9462                 3.6308                 3.6158
 Frc consts  --      0.0053                 0.0055                 0.0185
 IR Inten    --      0.2568                 0.2277                 2.0350

                      4                      5                      6
                      A                      A                      A
 Frequencies --    102.3064               134.5800               142.2919
 Red. masses --      3.3707                 4.0513                 3.4975
 Frc consts  --      0.0208                 0.0432                 0.0417
 IR Inten    --      0.2738                 0.9012                 1.3063

                      7                      8                      9
                      A                      A                      A
 Frequencies --    170.4987               178.9643               187.7711
 Red. masses --      1.3171                 1.0692                 2.8147
 Frc consts  --      0.0226                 0.0202                 0.0585
 IR Inten    --     12.4263                10.8525                 4.9422

                     10                     11                     12
                      A                      A                      A
 Frequencies --    204.5933               244.8247               245.6640
 Red. masses --      2.7337                 5.6779                 3.4554
 Frc consts  --      0.0674                 0.2005                 0.1229
 IR Inten    --      3.6927                 7.3409                 4.7771

                     13                     14                     15
                      A                      A                      A
 Frequencies --    294.5352               335.8697               371.4368
 Red. masses --      4.8143                 4.6699                 2.4520
 Frc consts  --      0.2461                 0.3104                 0.1993
 IR Inten    --      2.2989                 9.7191                27.9768

                     16                     17                     18
                      A                      A                      A
 Frequencies --    401.0608               425.0941               463.5935
 Red. masses --      3.3723                 3.2378                 2.3283
 Frc consts  --      0.3196                 0.3447                 0.2948
 IR Inten    --      9.0573                 2.3976                 1.9727

                     19                     20                     21
                      A                      A                      A
 Frequencies --    485.4963               526.8873               583.6193
 Red. masses --      2.7194                 4.7401                 5.0409
 Frc consts  --      0.3777                 0.7753                 1.0116
 IR Inten    --      2.5625                31.6529                11.4391

                     22                     23                     24
                      A                      A                      A
 Frequencies --    593.7814               615.1878               665.1410
 Red. masses --      2.0846                 3.6584                 4.0594
 Frc consts  --      0.4330                 0.8158                 1.0581
 IR Inten    --    121.9787                21.5234                24.9135

                     25                     26                     27
                      A                      A                      A
 Frequencies --    694.0479               746.1436               785.2713
 Red. masses --      9.8365                 3.7255                 3.4552
 Frc consts  --      2.7917                 1.2220                 1.2553
 IR Inten    --      3.8473                30.6217                 0.6489

                     28                     29                     30
                      A                      A                      A
 Frequencies --    794.7220               805.7339               824.8828
 Red. masses --      9.3158                 3.9479                 1.5856
 Frc consts  --      3.4666                 1.5101                 0.6357
 IR Inten    --     15.8527                17.6726                 1.0430

                     31                     32                     33
                      A                      A                      A
 Frequencies --    844.7904               872.3520               893.7898
 Red. masses --      3.1367                 2.8766                 2.6370
 Frc consts  --      1.3189                 1.2898                 1.2412
 IR Inten    --      2.9567                 1.4251                 1.7598

                     34                     35                     36
                      A                      A                      A
 Frequencies --    913.6962               947.0928               962.6340
 Red. masses --      3.4679                 2.7189                 1.9331
 Frc consts  --      1.7058                 1.4369                 1.0554
 IR Inten    --     30.3712                 8.8855                 0.9420

                     37                     38                     39
                      A                      A                      A
 Frequencies --    971.9999               975.8575               982.7937
 Red. masses --      1.8331                 2.0578                 1.4427
 Frc consts  --      1.0204                 1.1546                 0.8210
 IR Inten    --      8.8812                 2.8383                 0.6290

                     40                     41                     42
                      A                      A                      A
 Frequencies --    991.4872              1015.4523              1029.8720
 Red. masses --      1.4975                 2.7255                 7.9287
 Frc consts  --      0.8673                 1.6558                 4.9547
 IR Inten    --     13.4075                65.1254                58.0946

                     43                     44                     45
                      A                      A                      A
 Frequencies --   1060.7090              1090.9681              1113.6834
 Red. masses --      1.5902                 1.6391                 2.1551
 Frc consts  --      1.0541                 1.1495                 1.5749
 IR Inten    --      2.5490                16.1427                 9.5441

                     46                     47                     48
                      A                      A                      A
 Frequencies --   1130.6846              1158.5136              1179.6522
 Red. masses --      2.0132                 1.2156                 1.9495
 Frc consts  --      1.5164                 0.9613                 1.5984
 IR Inten    --      4.8301                 4.6827                36.5238

                     49                     50                     51
                      A                      A                      A
 Frequencies --   1187.9032              1200.8072              1211.9347
 Red. masses --      1.2671                 1.7570                 1.7955
 Frc consts  --      1.0535                 1.4927                 1.5538
 IR Inten    --      2.3995                 2.2442                39.9862

                     52                     53                     54
                      A                      A                      A
 Frequencies --   1222.1063              1236.0705              1260.4498
 Red. masses --      1.4693                 2.2302                 2.0215
 Frc consts  --      1.2929                 2.0076                 1.8923
 IR Inten    --      3.6244                60.4837                55.2553

                     55                     56                     57
                      A                      A                      A
 Frequencies --   1264.7859              1279.9311              1294.8337
 Red. masses --      1.5881                 1.3894                 1.3892
 Frc consts  --      1.4968                 1.3411                 1.3723
 IR Inten    --     53.4216                 5.7234                 0.3038

                     58                     59                     60
                      A                      A                      A
 Frequencies --   1320.3247              1334.9822              1344.5240
 Red. masses --      1.9935                 1.9726                 1.7172
 Frc consts  --      2.0475                 2.0713                 1.8290
 IR Inten    --     13.5120                 7.1322                 4.8563

                     61                     62                     63
                      A                      A                      A
 Frequencies --   1351.8957              1360.1045              1366.1675
 Red. masses --      2.3207                 2.1377                 1.5200
 Frc consts  --      2.4989                 2.3299                 1.6714
 IR Inten    --     23.5781                39.3352                 5.4686

                     64                     65                     66
                      A                      A                      A
 Frequencies --   1381.0813              1385.7855              1401.1825
 Red. masses --      1.4822                 1.4795                 1.8892
 Frc consts  --      1.6657                 1.6740                 2.1853
 IR Inten    --     17.2936                60.0388                95.0262

                     67                     68                     69
                      A                      A                      A
 Frequencies --   1449.0865              1495.2324              1506.0887
 Red. masses --      1.4880                 1.2702                 2.4053
 Frc consts  --      1.8410                 1.6732                 3.2146
 IR Inten    --      8.1960                16.0563               295.9471

                     70                     71                     72
                      A                      A                      A
 Frequencies --   1516.1124              1518.8949              1520.1589
 Red. masses --      1.0678                 1.1520                 1.0962
 Frc consts  --      1.4461                 1.5658                 1.4924
 IR Inten    --      0.8123                 7.0706                 3.8177

                     73                     74                     75
                      A                      A                      A
 Frequencies --   1529.3597              1537.7630              1547.8421
 Red. masses --      1.1938                 1.0969                 2.3282
 Frc consts  --      1.6451                 1.5283                 3.2864
 IR Inten    --     14.7836                 8.2120               112.7442

                     76                     77                     78
                      A                      A                      A
 Frequencies --   1553.2249              1604.5483              1641.5244
 Red. masses --      1.3279                 7.5054                 5.8919
 Frc consts  --      1.8875                11.3849                 9.3540
 IR Inten    --     25.2760               131.0093               758.6640

                     79                     80                     81
                      A                      A                      A
 Frequencies --   1747.2860              3037.4160              3051.7994
 Red. masses --      1.0622                 1.0308                 1.0642
 Frc consts  --      1.9107                 5.6030                 5.8398
 IR Inten    --     25.0524                41.3326                44.8665

                     82                     83                     84
                      A                      A                      A
 Frequencies --   3063.7364              3072.8181              3080.5269
 Red. masses --      1.0621                 1.0663                 1.0599
 Frc consts  --      5.8736                 5.9321                 5.9261
 IR Inten    --     27.4097                43.3786                28.0552

                     85                     86                     87
                      A                      A                      A
 Frequencies --   3102.9348              3103.8643              3108.7188
 Red. masses --      1.1056                 1.1063                 1.1023
 Frc consts  --      6.2718                 6.2798                 6.2764
 IR Inten    --     38.7839                 4.5937                28.7113

                     88                     89                     90
                      A                      A                      A
 Frequencies --   3120.7423              3130.2337              3143.0780
 Red. masses --      1.0883                 1.1086                 1.0994
 Frc consts  --      6.2448                 6.3999                 6.3989
 IR Inten    --     58.3302                30.5265                30.6843

                     91                     92                     93
                      A                      A                      A
 Frequencies --   3149.2686              3172.9779              3182.6211
 Red. masses --      1.1037                 1.0901                 1.0895
 Frc consts  --      6.4495                 6.4661                 6.5020
 IR Inten    --     29.3039                42.8881                11.2532

                     94                     95                     96
                      A                      A                      A
 Frequencies --   3429.4838              3505.8337              3605.9592
 Red. masses --      1.0494                 1.0921                 1.0768
 Frc consts  --      7.2717                 7.9083                 8.2495
 IR Inten    --      5.4797                 0.5740                37.5257

 - Thermochemistry -
 -------------------
 Temperature   298.150 Kelvin.  Pressure   1.00000 Atm.
 Atom     1 has atomic number  6 and mass  12.00000

 Molecular mass:   235.14331 amu.
 Principal axes and moments of inertia in atomic units:
                           1         2         3
     Eigenvalues --  1794.086515804.402466807.73597
           X            0.99998   0.00464  -0.00416
           Y           -0.00474   0.99967  -0.02523
           Z            0.00404   0.02525   0.99967
 This molecule is an asymmetric top.
 Rotational symmetry number  1.
 Warning -- assumption of classical behavior for rotation
           may cause significant error
 Rotational temperatures (Kelvin)      0.04828     0.01492     0.01272
 Rotational constants (GHZ):           1.00594     0.31093     0.26510
 Zero-point vibrational energy     765524.6 (Joules/Mol)
                                  182.96478 (Kcal/Mol)
 Warning -- explicit consideration of  23 degrees of freedom as
           vibrations may cause significant error
 Vibrational temperatures:     68.48    73.16   134.16   147.20   193.63
          (Kelvin)            204.73   245.31   257.49   270.16   294.36
                              352.25   353.46   423.77   483.24   534.41
                              577.04   611.62   667.01   698.52   758.07
                              839.70   854.32   885.12   956.99   998.58
                             1073.53  1129.83  1143.43  1159.27  1186.82
                             1215.46  1255.12  1285.96  1314.61  1362.66
                             1385.02  1398.49  1404.04  1414.02  1426.53
                             1461.01  1481.76  1526.12  1569.66  1602.34
                             1626.80  1666.84  1697.26  1709.13  1727.69
                             1743.70  1758.34  1778.43  1813.51  1819.74
                             1841.54  1862.98  1899.65  1920.74  1934.47
                             1945.08  1956.89  1965.61  1987.07  1993.84
                             2015.99  2084.91  2151.31  2166.93  2181.35
                             2185.35  2187.17  2200.41  2212.50  2227.00
                             2234.74  2308.59  2361.79  2513.95  4370.16
                             4390.86  4408.03  4421.10  4432.19  4464.43
                             4465.77  4472.75  4490.05  4503.71  4522.19
                             4531.10  4565.21  4579.08  4934.26  5044.11
                             5188.17

 Zero-point correction=                           0.291573 (Hartree/Particle)
 Thermal correction to Energy=                    0.306717
 Thermal correction to Enthalpy=                  0.307661
 Thermal correction to Gibbs Free Energy=         0.249214
 Sum of electronic and zero-point Energies=           -778.117387
 Sum of electronic and thermal Energies=              -778.102243
 Sum of electronic and thermal Enthalpies=            -778.101299
 Sum of electronic and thermal Free Energies=         -778.159746

                     E (Thermal)             CV                S
                      KCal/Mol        Cal/Mol-Kelvin    Cal/Mol-Kelvin
 Total                  192.468             58.722            123.012
 Electronic               0.000              0.000              0.000
 Translational            0.889              2.981             42.267
 Rotational               0.889              2.981             32.627
 Vibrational            190.690             52.760             48.118
 Vibration     1          0.595              1.978              4.915
 Vibration     2          0.595              1.977              4.784
 Vibration     3          0.602              1.954              3.591
 Vibration     4          0.604              1.947              3.410
 Vibration     5          0.613              1.919              2.880
 Vibration     6          0.616              1.911              2.773
 Vibration     7          0.626              1.879              2.430
 Vibration     8          0.629              1.868              2.339
 Vibration     9          0.632              1.857              2.250
 Vibration    10          0.640              1.833              2.091
 Vibration    11          0.660              1.771              1.768
 Vibration    12          0.660              1.770              1.761
 Vibration    13          0.689              1.684              1.448
 Vibration    14          0.717              1.604              1.232
 Vibration    15          0.743              1.531              1.074
 Vibration    16          0.767              1.468              0.959
 Vibration    17          0.787              1.416              0.875
 Vibration    18          0.821              1.331              0.756
 Vibration    19          0.842              1.282              0.695
 Vibration    20          0.882              1.190              0.594
 Vibration    21          0.941              1.067              0.479
 Vibration    22          0.951              1.045              0.460
 Vibration    23          0.975              1.000              0.424

 Optimization completed.
    -- Stationary point found.
 Normal termination of Gaussian 16 at Fri Dec 11 13:25:01 2020.

 ----------------------------------------------------------------------
 # B3LYP/6-311++G(d,p) empiricaldispersion=gd3bj scf=xqc pop=npa geom=c
 heck
 ----------------------------------------------------------------------

 --------------------------------------
 CID_81727423_JID_7931_Energie_neutraal
 --------------------------------------
 Structure from the checkpoint file:  "JID_7931.chk"
 Charge =  0 Multiplicity = 1

 SCF Done:  E(RB3LYP) =  -778.624565576     A.U. after   15 cycles
 Normal termination of Gaussian 16 at Fri Dec 11 13:31:25 2020.

 ----------------------------------------------------------------------
 # B3LYP/6-311++G(d,p) empiricaldispersion=gd3bj scf=xqc pop=npa geom=c
 heck
 ----------------------------------------------------------------------

 ------------------------------------
 CID_81727423_JID_7931_Energie_kation
 ------------------------------------
 Structure from the checkpoint file:  "JID_7931.chk"
 Charge =  1 Multiplicity = 2

 SCF Done:  E(UB3LYP) =  -778.353212756     A.U. after   22 cycles
 Normal termination of Gaussian 16 at Fri Dec 11 13:44:48 2020.
 Gaussian 16:  ES64L-G16RevA.03 25-Dec-2016

 ----------------------------------------------------------------------
 # B3LYP/6-311++G(d,p) empiricaldispersion=gd3bj scf=xqc pop=npa geom=c
 heck
 ----------------------------------------------------------------------

 -----------------------------------
 CID_81727423_JID_7931_Energie_anion
 -----------------------------------
 Structure from the checkpoint file:  "JID_7931.chk"
 Charge = -1 Multiplicity = 2

                         Standard orientation:
 ---------------------------------------------------------------------
 Center     Atomic      Atomic             Coordinates (Angstroms)
 Number     Number       Type             X           Y           Z
 ---------------------------------------------------------------------
      1          6           0        1.190892    2.549862   -0.910172
      2          8           0        1.070003    1.758964    0.278562
      3          6           0        1.141756    0.398634    0.019095
      4          6           0        2.388410   -0.239363    0.088433
      5          7           0        2.541639   -1.551093   -0.175659
      6          6           0        1.423612   -2.184327   -0.540415
      7          7           0        0.192709   -1.698131   -0.634926
      8          6           0        0.028769   -0.382126   -0.332647
      9          7           0       -1.236958    0.122813   -0.425569
     10          6           0       -1.736654    1.264831    0.375909
     11          6           0       -3.233956    0.925552    0.487626
     12          6           0       -3.388701   -0.300477    1.421656
     13          6           0       -2.813506   -1.475808    0.566312
     14          6           0       -2.387810   -0.754875   -0.730778
     15          6           0       -3.493090    0.297485   -0.896971
     16          7           0        3.506794    0.493339    0.416333
     17          7           0        4.710911   -0.154118    0.780824
     18          1           0        1.141693    3.594570   -0.594176
     19          1           0        0.369583    2.334897   -1.604462
     20          1           0        2.147863    2.357680   -1.409781
     21          1           0        1.535996   -3.240036   -0.783440
     22          1           0       -1.241159    1.314088    1.349661
     23          1           0       -1.569018    2.218790   -0.137660
     24          1           0       -3.848570    1.786429    0.761577
     25          1           0       -2.849416   -0.161966    2.364583
     26          1           0       -4.442912   -0.464468    1.668285
     27          1           0       -1.962356   -1.978005    1.030033
     28          1           0       -3.575048   -2.234861    0.355272
     29          1           0       -2.165124   -1.404115   -1.574289
     30          1           0       -4.488600   -0.147121   -0.990874
     31          1           0       -3.313646    0.980314   -1.733260
     32          1           0        3.328537    1.336823    0.945143
     33          1           0        4.461107   -1.054051    1.197690
     34          1           0        5.187055   -0.396668   -0.088095
 ---------------------------------------------------------------------

 SCF Done:  E(UB3LYP) =  -778.612653524     A.U. after   33 cycles
 SCF Done:  E(UB3LYP) =  -778.612653523     a.u. after    1 cycles

 The electronic state is 2-A.
 Alpha  occ. eigenvalues --  -19.05407 -14.26683 -14.25085 -14.23819 -14.21160
 Alpha  occ. eigenvalues --  -14.20730 -10.15801 -10.15721 -10.14125 -10.12982
 Alpha  occ. eigenvalues --  -10.12210 -10.10809 -10.10256 -10.07978 -10.06941
 Alpha  occ. eigenvalues --  -10.06894 -10.06777  -0.96991  -0.91780  -0.89188
 Alpha  occ. eigenvalues --   -0.85843  -0.78899  -0.73830  -0.71847  -0.66309
 Alpha  occ. eigenvalues --   -0.65260  -0.61819  -0.60371  -0.56490  -0.55035
 Alpha  occ. eigenvalues --   -0.51942  -0.49298  -0.46771  -0.44992  -0.44162
 Alpha  occ. eigenvalues --   -0.42190  -0.41837  -0.41669  -0.39843  -0.38654
 Alpha  occ. eigenvalues --   -0.37564  -0.36793  -0.35088  -0.34885  -0.33099
 Alpha  occ. eigenvalues --   -0.31780  -0.30924  -0.29989  -0.27618  -0.27136
 Alpha  occ. eigenvalues --   -0.26493  -0.25473  -0.25238  -0.24415  -0.23363
 Alpha  occ. eigenvalues --   -0.22364  -0.21889  -0.20824  -0.20474  -0.19414
 Alpha  occ. eigenvalues --   -0.15965  -0.14720  -0.11648   0.04164
 Alpha virt. eigenvalues --    0.06024   0.06716   0.07468   0.07782   0.08163
 Alpha virt. eigenvalues --    0.08308   0.08601   0.09110   0.09459   0.09984
 Alpha virt. eigenvalues --    0.10266   0.11103   0.11285   0.11386   0.12129

  Beta  occ. eigenvalues --  -19.05406 -14.26679 -14.25073 -14.23820 -14.21161
  Beta  occ. eigenvalues --  -14.20722 -10.15789 -10.15720 -10.14106 -10.12975
  Beta  occ. eigenvalues --  -10.12160 -10.10806 -10.10237 -10.07963 -10.06921
  Beta  occ. eigenvalues --  -10.06866 -10.06766  -0.96980  -0.91765  -0.89175
  Beta  occ. eigenvalues --   -0.85829  -0.78881  -0.73805  -0.71826  -0.66281
  Beta  occ. eigenvalues --   -0.65230  -0.61776  -0.60311  -0.56460  -0.54997
  Beta  occ. eigenvalues --   -0.51908  -0.49266  -0.46738  -0.44964  -0.44120
  Beta  occ. eigenvalues --   -0.42166  -0.41807  -0.41640  -0.39816  -0.38625
  Beta  occ. eigenvalues --   -0.37531  -0.36755  -0.35054  -0.34859  -0.33059
  Beta  occ. eigenvalues --   -0.31743  -0.30891  -0.29970  -0.27588  -0.27098
  Beta  occ. eigenvalues --   -0.26467  -0.25433  -0.25206  -0.24371  -0.23328
  Beta  occ. eigenvalues --   -0.22335  -0.21874  -0.20799  -0.20449  -0.19397
  Beta  occ. eigenvalues --   -0.15957  -0.14696  -0.11624
  Beta virt. eigenvalues --    0.06146   0.06824   0.07196   0.07771   0.08221
  Beta virt. eigenvalues --    0.08324   0.08729   0.09009   0.09441   0.09909
  Beta virt. eigenvalues --    0.10300   0.10668   0.11402   0.11742   0.11757

 Mulliken charges and spin densities:
               1          2
     1  C    0.951757  -1.259546
     2  O   -0.138276   0.022271
     3  C   -0.527714   0.165384
     4  C   -0.717529   0.513223
     5  N   -0.229392  -0.014459
     6  C   -0.080297   0.053780
     7  N   -0.110524   0.008815
     8  C    0.736523  -0.936680
     9  N    0.190201   0.026991
    10  C    1.420572  -1.791657
    11  C   -1.657517   1.973002
    12  C    0.807395  -1.393343
    13  C    0.086899  -0.489950
    14  C   -0.714356   1.039058
    15  C    1.287713  -2.096962
    16  N   -0.138439  -0.014676
    17  N   -0.380006   0.050703
    18  H   -0.406432   0.585041
    19  H   -0.278846   0.449398
    20  H   -0.165664   0.316724
    21  H    0.090411   0.102916
    22  H    0.124872   0.077119
    23  H   -0.048760   0.234650
    24  H   -0.948551   1.199113
    25  H   -0.051196   0.180450
    26  H   -0.295594   0.464989
    27  H    0.214700  -0.055635
    28  H   -0.138545   0.295150
    29  H    0.099232   0.166179
    30  H   -0.348943   0.524237
    31  H   -0.186272   0.340184
    32  H    0.203352   0.107816
    33  H    0.189456   0.052844
    34  H    0.159771   0.102872
 Sum of Mulliken charges =  -1.00000   1.00000

 Dipole moment (field-independent basis, Debye):
    X=              5.4880    Y=             -4.5912    Z=              0.8360  Tot=              7.2039
 Quadrupole moment (field-independent basis, Debye-Ang):
   XX=           -191.8857   YY=           -152.2024   ZZ=           -133.5726
   XY=              2.1943   XZ=              1.5067   YZ=              2.4893

 Summary of Natural Population Analysis:

                                       Natural Population
                Natural  -----------------------------------------------
    Atom  No    Charge         Core      Valence    Rydberg      Total
 -----------------------------------------------------------------------
      C    1   -0.09946      0.99959     2.09031    0.00955     3.09946
      O    2   -0.29467      0.99988     3.28437    0.01042     4.29467
      C    3    0.07747      0.99929     1.91011    0.01313     2.92253
      C    4    0.18959      0.99949     1.79628    0.01464     2.81041
      N    5   -0.29929      0.99968     2.78828    0.01133     3.79929
      C    6    0.15440      0.99967     1.82733    0.01860     2.84560
      N    7   -0.27881      0.99968     2.77016    0.00897     3.77881
      C    8    0.20749      0.99946     1.77855    0.01450     2.79251
      N    9   -0.25017      0.99964     2.73845    0.01208     3.75017
      C   10   -0.07962      0.99960     2.06792    0.01210     3.07962
      C   11   -0.11664      0.99960     2.10360    0.01345     3.11664
      C   12   -0.19255      0.99963     2.18415    0.00877     3.19255
      C   13   -0.19900      0.99962     2.19110    0.00829     3.19900
      C   14   -0.00141      0.99959     1.98787    0.01395     3.00141
      C   15   -0.19215      0.99961     2.18277    0.00977     3.19215
      N   16   -0.22691      0.99965     2.71390    0.01335     3.72691
      N   17   -0.31634      0.99978     2.80614    0.01042     3.81634
      H   18    0.09324      0.00000     0.40487    0.00190     0.40676
      H   19    0.08715      0.00000     0.41114    0.00171     0.41285
      H   20    0.08457      0.00000     0.41367    0.00176     0.41543
      H   21    0.08013      0.00000     0.41872    0.00115     0.41987
      H   22    0.09950      0.00000     0.39877    0.00173     0.40050
      H   23    0.10011      0.00000     0.39807    0.00182     0.39989
      H   24    0.10856      0.00000     0.38890    0.00255     0.39144
      H   25    0.09760      0.00000     0.40128    0.00112     0.40240
      H   26    0.10231      0.00000     0.39622    0.00147     0.39769
      H   27    0.10570      0.00000     0.39316    0.00114     0.39430
      H   28    0.09924      0.00000     0.39970    0.00106     0.40076
      H   29    0.11214      0.00000     0.38632    0.00154     0.38786
      H   30    0.10404      0.00000     0.39435    0.00161     0.39596
      H   31    0.10584      0.00000     0.39264    0.00151     0.39416
      H   32    0.19117      0.00000     0.30584    0.00299     0.30883
      H   33    0.17457      0.00000     0.32296    0.00247     0.32543
      H   34    0.17218      0.00000     0.32560    0.00222     0.32782
 =======================================================================
   * Total *   -0.00000     16.99347    45.77347    0.23306    63.00000

 Normal termination of Gaussian 16 at Fri Dec 11 14:04:06 2020.
