 Gaussian 16, Revision A.03,

 -----------------------------------------------------------
 # opt freq B3LYP/6-31G(d) empiricaldispersion=gd3bj scf=xqc
 -----------------------------------------------------------

 ------------------------------
 CID_134526329_JID_365_neutraal
 ------------------------------
 Symbolic Z-matrix:
 Charge =  0 Multiplicity = 1

 SCF Done:  E(RB3LYP) =  -1198.67406304     A.U. after   15 cycles
 SCF Done:  E(RB3LYP) =  -1198.68087525     A.U. after   13 cycles
 SCF Done:  E(RB3LYP) =  -1198.68219445     A.U. after   12 cycles
 SCF Done:  E(RB3LYP) =  -1198.68261841     A.U. after   12 cycles
 SCF Done:  E(RB3LYP) =  -1198.68070627     A.U. after   14 cycles
 SCF Done:  E(RB3LYP) =  -1198.68297219     A.U. after   12 cycles
 SCF Done:  E(RB3LYP) =  -1198.68325833     A.U. after   11 cycles
 SCF Done:  E(RB3LYP) =  -1198.68330402     A.U. after   11 cycles
 SCF Done:  E(RB3LYP) =  -1198.68332267     A.U. after   11 cycles
 SCF Done:  E(RB3LYP) =  -1198.68333087     A.U. after   10 cycles
 SCF Done:  E(RB3LYP) =  -1198.68333585     A.U. after   10 cycles
 SCF Done:  E(RB3LYP) =  -1198.68333656     A.U. after    8 cycles
 SCF Done:  E(RB3LYP) =  -1198.68333704     A.U. after    8 cycles
 Optimization completed.
    -- Stationary point found.
 Normal termination of Gaussian 16 at Tue Dec  8 10:29:44 2020.

 --------------------------------------------------------------------
 #N Geom=AllCheck Guess=TCheck SCRF=Check GenChk RB3LYP/6-31G(d) Freq
 --------------------------------------------------------------------

 Structure from the checkpoint file:  "JID_365.chk"
 ------------------------------
 CID_134526329_JID_365_neutraal
 ------------------------------
 Charge =  0 Multiplicity = 1

 SCF Done:  E(RB3LYP) =  -1198.68333704     A.U. after    1 cycles

  Exact polarizability: 103.968   5.229 118.693  -1.632  -0.800  77.899
 Approx polarizability: 141.535   4.178 196.582   1.931   1.071 118.557

                      1                      2                      3
                      A                      A                      A
 Frequencies --     57.4827                70.1404                81.3102
 Red. masses --      4.3800                 3.1667                 3.1199
 Frc consts  --      0.0085                 0.0092                 0.0122
 IR Inten    --      2.2231                 1.8672                 2.3109

                      4                      5                      6
                      A                      A                      A
 Frequencies --    130.9574               156.2919               184.4856
 Red. masses --      1.2018                 1.8339                 4.5103
 Frc consts  --      0.0121                 0.0264                 0.0904
 IR Inten    --      1.2192                 1.0888                 1.8014

                      7                      8                      9
                      A                      A                      A
 Frequencies --    193.7321               207.5931               219.7966
 Red. masses --      1.1352                 1.5507                 2.2868
 Frc consts  --      0.0251                 0.0394                 0.0651
 IR Inten    --      0.0187                 0.5294                 0.1295

                     10                     11                     12
                      A                      A                      A
 Frequencies --    228.7278               261.4074               308.2390
 Red. masses --      4.3726                 3.4373                 3.2744
 Frc consts  --      0.1348                 0.1384                 0.1833
 IR Inten    --      1.9789                 1.5000                 1.0441

                     13                     14                     15
                      A                      A                      A
 Frequencies --    334.7278               352.9462               433.3264
 Red. masses --      8.1235                 4.7502                 8.1006
 Frc consts  --      0.5363                 0.3486                 0.8962
 IR Inten    --      2.7181                 7.2922                 8.7190

                     16                     17                     18
                      A                      A                      A
 Frequencies --    481.6427               528.2358               556.4743
 Red. masses --      5.9753                 3.6466                 7.2417
 Frc consts  --      0.8167                 0.5995                 1.3212
 IR Inten    --      7.3763                16.7067                54.4195

                     19                     20                     21
                      A                      A                      A
 Frequencies --    594.3770               628.2667               710.8548
 Red. masses --      3.6641                 3.3439                 6.1650
 Frc consts  --      0.7627                 0.7777                 1.8355
 IR Inten    --     43.5003               127.1275                 0.4779

                     22                     23                     24
                      A                      A                      A
 Frequencies --    820.6959               869.1671               901.1073
 Red. masses --      1.9608                 1.1811                 3.4976
 Frc consts  --      0.7781                 0.5257                 1.6733
 IR Inten    --    103.8700                14.4165                58.7809

                     25                     26                     27
                      A                      A                      A
 Frequencies --    993.3593              1000.7568              1028.9275
 Red. masses --      1.7550                 1.1840                 1.4874
 Frc consts  --      1.0203                 0.6986                 0.9278
 IR Inten    --     10.0684                 4.1706                19.7078

                     28                     29                     30
                      A                      A                      A
 Frequencies --   1069.2980              1075.4297              1114.7528
 Red. masses --      3.2425                 1.5341                 8.5970
 Frc consts  --      2.1844                 1.0454                 6.2944
 IR Inten    --     50.0001                 3.5639               135.1680

                     31                     32                     33
                      A                      A                      A
 Frequencies --   1153.6705              1159.4872              1167.4230
 Red. masses --      1.5276                 1.9825                 1.6185
 Frc consts  --      1.1979                 1.5704                 1.2996
 IR Inten    --      6.9089                19.6078                17.8849

                     34                     35                     36
                      A                      A                      A
 Frequencies --   1314.7845              1349.1706              1386.8154
 Red. masses --      6.9654                 1.3673                 1.1645
 Frc consts  --      7.0942                 1.4664                 1.3196
 IR Inten    --    108.5768                34.4472                 5.6404

                     37                     38                     39
                      A                      A                      A
 Frequencies --   1423.0752              1435.7590              1475.8258
 Red. masses --      1.2937                 1.2392                 1.1553
 Frc consts  --      1.5436                 1.5050                 1.4826
 IR Inten    --     33.2578                 2.8601                 1.0794

                     40                     41                     42
                      A                      A                      A
 Frequencies --   1487.3810              1506.3038              1513.7337
 Red. masses --      1.0537                 1.0768                 1.0484
 Frc consts  --      1.3734                 1.4395                 1.4154
 IR Inten    --      6.7580                 7.4972                 8.3988

                     43                     44                     45
                      A                      A                      A
 Frequencies --   1517.5822              1519.6047              1542.2379
 Red. masses --      1.0464                 1.0484                 1.0439
 Frc consts  --      1.4199                 1.4265                 1.4629
 IR Inten    --     11.4997                 8.3929                 9.7616

                     46                     47                     48
                      A                      A                      A
 Frequencies --   1673.8715              3042.1404              3058.3205
 Red. masses --      5.8473                 1.0407                 1.0339
 Frc consts  --      9.6528                 5.6745                 5.6977
 IR Inten    --     17.9877                18.1870                35.2274

                     49                     50                     51
                      A                      A                      A
 Frequencies --   3083.9807              3095.9023              3131.1508
 Red. masses --      1.0303                 1.0956                 1.1035
 Frc consts  --      5.7734                 6.1871                 6.3745
 IR Inten    --     17.7365                15.5941                15.1633

                     52                     53                     54
                      A                      A                      A
 Frequencies --   3142.2266              3150.3153              3173.4767
 Red. masses --      1.1013                 1.1046                 1.1034
 Frc consts  --      6.4064                 6.4590                 6.5473
 IR Inten    --      6.9891                13.3471                 5.3792

                     55                     56                     57
                      A                      A                      A
 Frequencies --   3193.8705              3195.5818              3514.3003
 Red. masses --      1.0882                 1.1090                 1.0749
 Frc consts  --      6.5404                 6.6721                 7.8219
 IR Inten    --      0.3860                 2.1751                24.6292

 - Thermochemistry -
 -------------------
 Temperature   298.150 Kelvin.  Pressure   1.00000 Atm.
 Atom     1 has atomic number  6 and mass  12.00000

 Molecular mass:   181.02312 amu.
 Principal axes and moments of inertia in atomic units:
                           1         2         3
     Eigenvalues --  1540.488482077.267232605.69138
           X            0.99739   0.06562  -0.02996
           Y           -0.06580   0.99782  -0.00504
           Z            0.02956   0.00700   0.99954
 This molecule is an asymmetric top.
 Rotational symmetry number  1.
 Warning -- assumption of classical behavior for rotation
           may cause significant error
 Rotational temperatures (Kelvin)      0.05622     0.04170     0.03324
 Rotational constants (GHZ):           1.17154     0.86881     0.69262
 Zero-point vibrational energy     436651.9 (Joules/Mol)
                                  104.36232 (Kcal/Mol)
 Warning -- explicit consideration of  19 degrees of freedom as
           vibrations may cause significant error
 Vibrational temperatures:     82.70   100.92   116.99   188.42   224.87
          (Kelvin)            265.43   278.74   298.68   316.24   329.09
                              376.11   443.49   481.60   507.81   623.46
                              692.98   760.01   800.64   855.18   903.94
                             1022.76  1180.80  1250.54  1296.49  1429.22
                             1439.87  1480.40  1538.48  1547.30  1603.88
                             1659.87  1668.24  1679.66  1891.68  1941.16
                             1995.32  2047.49  2065.74  2123.38  2140.01
                             2167.24  2177.93  2183.46  2186.37  2218.94
                             2408.33  4376.96  4400.24  4437.16  4454.31
                             4505.03  4520.96  4532.60  4565.93  4595.27
                             4597.73  5056.29

 Zero-point correction=                           0.166312 (Hartree/Particle)
 Thermal correction to Energy=                    0.179039
 Thermal correction to Enthalpy=                  0.179983
 Thermal correction to Gibbs Free Energy=         0.127249
 Sum of electronic and zero-point Energies=          -1198.517025
 Sum of electronic and thermal Energies=             -1198.504298
 Sum of electronic and thermal Enthalpies=           -1198.503354
 Sum of electronic and thermal Free Energies=        -1198.556088

                     E (Thermal)             CV                S
                      KCal/Mol        Cal/Mol-Kelvin    Cal/Mol-Kelvin
 Total                  112.348             44.694            110.988
 Electronic               0.000              0.000              0.000
 Translational            0.889              2.981             41.487
 Rotational               0.889              2.981             30.501
 Vibrational            110.571             38.733             39.000
 Vibration     1          0.596              1.975              4.542
 Vibration     2          0.598              1.968              4.149
 Vibration     3          0.600              1.962              3.859
 Vibration     4          0.612              1.922              2.932
 Vibration     5          0.620              1.896              2.594
 Vibration     6          0.631              1.861              2.283
 Vibration     7          0.635              1.849              2.192
 Vibration     8          0.641              1.829              2.065
 Vibration     9          0.647              1.811              1.961
 Vibration    10          0.651              1.797              1.889
 Vibration    11          0.669              1.743              1.652
 Vibration    12          0.698              1.658              1.372
 Vibration    13          0.716              1.606              1.237
 Vibration    14          0.729              1.569              1.153
 Vibration    15          0.794              1.398              0.848
 Vibration    16          0.838              1.291              0.706
 Vibration    17          0.883              1.188              0.591
 Vibration    18          0.912              1.126              0.531
 Vibration    19          0.952              1.044              0.459

 Optimization completed.
    -- Stationary point found.
 Normal termination of Gaussian 16 at Tue Dec  8 10:33:14 2020.

 ----------------------------------------------------------------------
 # B3LYP/6-311++G(d,p) empiricaldispersion=gd3bj scf=xqc pop=npa geom=c
 heck
 ----------------------------------------------------------------------

 --------------------------------------
 CID_134526329_JID_365_Energie_neutraal
 --------------------------------------
 Structure from the checkpoint file:  "JID_365.chk"
 Charge =  0 Multiplicity = 1

 SCF Done:  E(RB3LYP) =  -1198.85895223     A.U. after   16 cycles
 Normal termination of Gaussian 16 at Tue Dec  8 10:36:02 2020.

 ----------------------------------------------------------------------
 # B3LYP/6-311++G(d,p) empiricaldispersion=gd3bj scf=xqc pop=npa geom=c
 heck
 ----------------------------------------------------------------------

 ------------------------------------
 CID_134526329_JID_365_Energie_kation
 ------------------------------------
 Structure from the checkpoint file:  "JID_365.chk"
 Charge =  1 Multiplicity = 2

 SCF Done:  E(UB3LYP) =  -1198.54794141     A.U. after   22 cycles
 Normal termination of Gaussian 16 at Tue Dec  8 10:41:58 2020.
 Gaussian 16:  ES64L-G16RevA.03 25-Dec-2016

 ----------------------------------------------------------------------
 # B3LYP/6-311++G(d,p) empiricaldispersion=gd3bj scf=xqc pop=npa geom=c
 heck
 ----------------------------------------------------------------------

 -----------------------------------
 CID_134526329_JID_365_Energie_anion
 -----------------------------------
 Structure from the checkpoint file:  "JID_365.chk"
 Charge = -1 Multiplicity = 2

                         Standard orientation:
 ---------------------------------------------------------------------
 Center     Atomic      Atomic             Coordinates (Angstroms)
 Number     Number       Type             X           Y           Z
 ---------------------------------------------------------------------
      1          6           0        2.448096    2.102764    0.311339
      2          6           0        1.079944    1.626407   -0.061324
      3          6           0        0.699708    0.343031   -0.183242
      4         16           0        1.823152   -1.021457   -0.120013
      5          6           0        0.895744   -2.347379    0.734942
      6         16           0       -1.024987    0.051533   -0.628112
      7          8           0       -1.618660    1.334498   -1.027663
      8          8           0       -1.137964   -1.129205   -1.487883
      9          7           0       -1.646288   -0.442427    0.872554
     10          6           0       -2.029312    0.632157    1.795349
     11          1           0        3.036279    1.314843    0.789249
     12          1           0        2.382086    2.966044    0.983202
     13          1           0        2.994226    2.435857   -0.581801
     14          1           0        0.332860    2.382712   -0.289716
     15          1           0        0.532677   -2.010511    1.705925
     16          1           0        0.066749   -2.690644    0.116094
     17          1           0        1.619993   -3.155679    0.865832
     18          1           0       -2.399152   -1.100424    0.673810
     19          1           0       -2.792601    1.304459    1.388083
     20          1           0       -2.394642    0.168939    2.715454
     21          1           0       -1.137183    1.215959    2.037981
 ---------------------------------------------------------------------

 SCF Done:  E(UB3LYP) =  -1198.84950077     A.U. after   31 cycles

 The electronic state is 2-A.
 Alpha  occ. eigenvalues --  -88.94166 -88.73638 -19.00064 -18.99939 -14.22464
 Alpha  occ. eigenvalues --  -10.09730 -10.09222 -10.07194 -10.06684 -10.06142
 Alpha  occ. eigenvalues --   -8.00370  -7.82187  -5.96646  -5.96628  -5.96445
 Alpha  occ. eigenvalues --   -5.78596  -5.78210  -5.77569  -1.00109  -0.89278
 Alpha  occ. eigenvalues --   -0.80720  -0.71884  -0.65598  -0.61465  -0.58745
 Alpha  occ. eigenvalues --   -0.53090  -0.51710  -0.42697  -0.40048  -0.39112
 Alpha  occ. eigenvalues --   -0.37273  -0.34549  -0.32587  -0.32230  -0.31650
 Alpha  occ. eigenvalues --   -0.30827  -0.29881  -0.29268  -0.28834  -0.25875
 Alpha  occ. eigenvalues --   -0.23501  -0.23091  -0.21004  -0.19505  -0.19065
 Alpha  occ. eigenvalues --   -0.18099  -0.15538  -0.10985   0.04905
 Alpha virt. eigenvalues --    0.07122   0.07640   0.08343   0.09793   0.10476
 Alpha virt. eigenvalues --    0.10792   0.11407   0.12366   0.13027   0.13527
 Alpha virt. eigenvalues --    0.13860   0.14660   0.15271   0.15938   0.17037

  Beta  occ. eigenvalues --  -88.94160 -88.73631 -19.00047 -18.99911 -14.22417
  Beta  occ. eigenvalues --  -10.09661 -10.09188 -10.07123 -10.06708 -10.05800
  Beta  occ. eigenvalues --   -8.00363  -7.82181  -5.96639  -5.96614  -5.96435
  Beta  occ. eigenvalues --   -5.78571  -5.78211  -5.77561  -1.00055  -0.89235
  Beta  occ. eigenvalues --   -0.80651  -0.71564  -0.65344  -0.61341  -0.58642
  Beta  occ. eigenvalues --   -0.52960  -0.51465  -0.42485  -0.39928  -0.38928
  Beta  occ. eigenvalues --   -0.37193  -0.34468  -0.32492  -0.32108  -0.31376
  Beta  occ. eigenvalues --   -0.30713  -0.29780  -0.29196  -0.28725  -0.25719
  Beta  occ. eigenvalues --   -0.23387  -0.22950  -0.20876  -0.19447  -0.18819
  Beta  occ. eigenvalues --   -0.17719  -0.15375  -0.10419
  Beta virt. eigenvalues --    0.07390   0.08273   0.08577   0.09780   0.10262
  Beta virt. eigenvalues --    0.10793   0.11054   0.11728   0.12704   0.13185
  Beta virt. eigenvalues --    0.13616   0.14113   0.14840   0.15401   0.16119

 Mulliken charges and spin densities:
               1          2
     1  C   -0.593569  -0.150385
     2  C    0.284080   0.650224
     3  C   -0.292350   0.129021
     4  S   -0.358291  -0.111570
     5  C    0.190602  -0.828079
     6  S    0.955756  -0.812941
     7  O   -0.177712   0.012262
     8  O   -0.317460   0.019972
     9  N   -0.394066   0.210271
    10  C    0.636589  -1.073320
    11  H    0.036277   0.106265
    12  H    0.002856   0.133284
    13  H    0.158288  -0.013583
    14  H    0.184903   0.033264
    15  H   -0.161616   0.379425
    16  H    0.088690   0.127437
    17  H   -0.471225   0.624000
    18  H   -0.155752   0.445718
    19  H    0.114720   0.060334
    20  H   -0.820275   0.987499
    21  H    0.089554   0.070902
 Sum of Mulliken charges =  -1.00000   1.00000

 Dipole moment (field-independent basis, Debye):
    X=              2.6837    Y=              4.0120    Z=             -2.2781  Tot=              5.3374
 Quadrupole moment (field-independent basis, Debye-Ang):
   XX=           -112.5288   YY=           -108.7608   ZZ=           -114.3074
   XY=              1.5411   XZ=              4.2537   YZ=              6.7016

 Summary of Natural Population Analysis:

                                       Natural Population
                Natural  -----------------------------------------------
    Atom  No    Charge         Core      Valence    Rydberg      Total
 -----------------------------------------------------------------------
      C    1   -0.30741      0.99965     2.30279    0.00497     3.30741
      C    2   -0.02189      0.99945     2.01204    0.01040     3.02189
      C    3   -0.22684      0.99930     2.21081    0.01674     3.22684
      S    4    0.12253      4.99949     2.85415    0.02383     7.87747
      C    5   -0.34431      0.99962     2.33789    0.00681     3.34431
      S    6    1.09722      4.99913     1.80335    0.10030     6.90278
      O    7   -0.46834      0.99991     3.46308    0.00535     4.46834
      O    8   -0.46514      0.99991     3.45962    0.00562     4.46514
      N    9   -0.43170      0.99978     2.91577    0.01615     3.93170
      C   10   -0.18532      0.99964     2.17531    0.01037     3.18532
      H   11    0.10787      0.00000     0.39037    0.00176     0.39213
      H   12    0.10106      0.00000     0.39770    0.00124     0.39894
      H   13    0.10505      0.00000     0.39382    0.00112     0.39495
      H   14    0.10519      0.00000     0.39347    0.00134     0.39481
      H   15    0.11021      0.00000     0.38718    0.00261     0.38979
      H   16    0.10928      0.00000     0.38895    0.00177     0.39072
      H   17    0.10361      0.00000     0.39468    0.00172     0.39639
      H   18    0.19513      0.00000     0.30094    0.00393     0.30487
      H   19    0.09144      0.00000     0.40726    0.00130     0.40856
      H   20    0.10349      0.00000     0.39415    0.00236     0.39651
      H   21    0.09887      0.00000     0.39974    0.00139     0.40113
 =======================================================================
   * Total *   -0.00000     17.99586    29.78306    0.22108    48.00000

 Normal termination of Gaussian 16 at Tue Dec  8 10:47:58 2020.
