 Gaussian 16, Revision A.03,

 -----------------------------------------------------------
 # opt freq B3LYP/6-31G(d) empiricaldispersion=gd3bj scf=xqc
 -----------------------------------------------------------

 -------------------------------
 CID_128245544_JID_8165_neutraal
 -------------------------------
 Symbolic Z-matrix:
 Charge =  0 Multiplicity = 1

 SCF Done:  E(RB3LYP) =  -820.074276935     A.U. after   15 cycles
 SCF Done:  E(RB3LYP) =  -820.083459931     A.U. after   12 cycles
 SCF Done:  E(RB3LYP) =  -820.084568087     A.U. after   12 cycles
 SCF Done:  E(RB3LYP) =  -820.085728035     A.U. after   12 cycles
 SCF Done:  E(RB3LYP) =  -820.086392944     A.U. after   12 cycles
 SCF Done:  E(RB3LYP) =  -820.086703478     A.U. after   13 cycles
 SCF Done:  E(RB3LYP) =  -820.087035864     A.U. after   11 cycles
 SCF Done:  E(RB3LYP) =  -820.087336917     A.U. after   13 cycles
 SCF Done:  E(RB3LYP) =  -820.087475605     A.U. after   12 cycles
 SCF Done:  E(RB3LYP) =  -820.087636070     A.U. after   12 cycles
 SCF Done:  E(RB3LYP) =  -820.088410765     A.U. after    8 cycles
 SCF Done:  E(RB3LYP) =  -820.088410999     A.U. after   10 cycles
 SCF Done:  E(RB3LYP) =  -820.088411845     A.U. after    9 cycles
 SCF Done:  E(RB3LYP) =  -820.088412249     A.U. after    8 cycles
 SCF Done:  E(RB3LYP) =  -820.088412437     A.U. after    8 cycles
 Optimization completed.
    -- Stationary point found.
 Normal termination of Gaussian 16 at Fri Dec 11 19:36:24 2020.

 --------------------------------------------------------------------
 #N Geom=AllCheck Guess=TCheck SCRF=Check GenChk RB3LYP/6-31G(d) Freq
 --------------------------------------------------------------------

 Structure from the checkpoint file:  "JID_8165.chk"
 -------------------------------
 CID_128245544_JID_8165_neutraal
 -------------------------------
 Charge =  0 Multiplicity = 1

 SCF Done:  E(RB3LYP) =  -820.088412437     A.U. after    1 cycles

  Exact polarizability: 184.681  -3.350 147.511  -2.345   6.299 140.565
 Approx polarizability: 238.680  -5.012 206.131   4.497  17.136 226.207

                      1                      2                      3
                      A                      A                      A
 Frequencies --     13.8022                30.7158                48.7199
 Red. masses --      5.4021                 4.4875                 3.5797
 Frc consts  --      0.0006                 0.0025                 0.0050
 IR Inten    --      2.7012                 0.2205                 0.0708

                      4                      5                      6
                      A                      A                      A
 Frequencies --     63.8733                85.1508                90.4906
 Red. masses --      3.0282                 3.2918                 3.4217
 Frc consts  --      0.0073                 0.0141                 0.0165
 IR Inten    --      0.4353                 0.7229                 0.1631

                      7                      8                      9
                      A                      A                      A
 Frequencies --     94.3794               103.5762               157.5779
 Red. masses --      1.1992                 2.7658                 2.7732
 Frc consts  --      0.0063                 0.0175                 0.0406
 IR Inten    --      0.1198                 0.5073                 0.8950

                     10                     11                     12
                      A                      A                      A
 Frequencies --    180.3232               196.1068               209.6795
 Red. masses --      2.6093                 3.4065                 2.3740
 Frc consts  --      0.0500                 0.0772                 0.0615
 IR Inten    --      0.9639                 3.6873                 3.8350

                     13                     14                     15
                      A                      A                      A
 Frequencies --    224.1818               233.4547               242.4375
 Red. masses --      1.2922                 1.2517                 1.9895
 Frc consts  --      0.0383                 0.0402                 0.0689
 IR Inten    --      0.2732                 0.2025                 1.8839

                     16                     17                     18
                      A                      A                      A
 Frequencies --    263.5323               280.8782               293.8016
 Red. masses --      1.2826                 1.1902                 2.6621
 Frc consts  --      0.0525                 0.0553                 0.1354
 IR Inten    --      0.7311                 1.0516                 3.4266

                     19                     20                     21
                      A                      A                      A
 Frequencies --    320.4601               333.6550               338.2808
 Red. masses --      3.1992                 2.3801                 2.1849
 Frc consts  --      0.1936                 0.1561                 0.1473
 IR Inten    --      1.7339                 1.5032                 3.6335

                     22                     23                     24
                      A                      A                      A
 Frequencies --    356.2851               384.3965               425.9823
 Red. masses --      2.7926                 2.2290                 3.1233
 Frc consts  --      0.2089                 0.1941                 0.3339
 IR Inten    --      1.1907                 0.1681                 2.4358

                     25                     26                     27
                      A                      A                      A
 Frequencies --    429.6655               467.6562               506.1794
 Red. masses --      2.9836                 2.4788                 4.0374
 Frc consts  --      0.3245                 0.3194                 0.6095
 IR Inten    --      0.0338                 5.9246                 2.2147

                     28                     29                     30
                      A                      A                      A
 Frequencies --    514.2389               533.0345               650.7275
 Red. masses --      3.0683                 2.8341                 3.1320
 Frc consts  --      0.4781                 0.4744                 0.7814
 IR Inten    --      2.3042                 0.8152                 1.1753

                     31                     32                     33
                      A                      A                      A
 Frequencies --    665.6055               695.6406               737.8362
 Red. masses --      5.1368                 8.9913                 3.0960
 Frc consts  --      1.3408                 2.5636                 0.9930
 IR Inten    --      2.2140                 0.4726                 1.5976

                     34                     35                     36
                      A                      A                      A
 Frequencies --    762.4568               808.5743               829.1431
 Red. masses --      3.4036                 1.2334                 3.1701
 Frc consts  --      1.1658                 0.4751                 1.2841
 IR Inten    --     13.7648                 5.8432                35.0488

                     37                     38                     39
                      A                      A                      A
 Frequencies --    842.3203               880.6881               891.3795
 Red. masses --      3.3364                 2.6841                 2.6686
 Frc consts  --      1.3947                 1.2266                 1.2493
 IR Inten    --      4.4187                 3.1420                 1.9528

                     40                     41                     42
                      A                      A                      A
 Frequencies --    915.0586               944.5922               964.3007
 Red. masses --      2.4232                 2.4808                 1.7534
 Frc consts  --      1.1955                 1.3041                 0.9606
 IR Inten    --      8.6113                 7.0792                 1.2276

                     43                     44                     45
                      A                      A                      A
 Frequencies --    979.0851               982.5398              1022.2009
 Red. masses --      1.5425                 1.9503                 1.7269
 Frc consts  --      0.8712                 1.1093                 1.0632
 IR Inten    --      1.1903                10.2532                 2.3332

                     46                     47                     48
                      A                      A                      A
 Frequencies --   1040.3840              1044.5521              1059.9986
 Red. masses --      1.7473                 2.6939                 4.2543
 Frc consts  --      1.1143                 1.7317                 2.8164
 IR Inten    --      3.8833                36.0259                10.2331

                     49                     50                     51
                      A                      A                      A
 Frequencies --   1062.8675              1095.1937              1104.7609
 Red. masses --      3.0943                 2.6608                 6.1474
 Frc consts  --      2.0595                 1.8804                 4.4206
 IR Inten    --      0.8524                67.9878                 5.6853

                     52                     53                     54
                      A                      A                      A
 Frequencies --   1114.4302              1156.3983              1161.0101
 Red. masses --      2.2132                 1.5205                 1.3138
 Frc consts  --      1.6195                 1.1980                 1.0434
 IR Inten    --     29.5424                51.8174                 0.0099

                     55                     56                     57
                      A                      A                      A
 Frequencies --   1167.6073              1171.5730              1185.1818
 Red. masses --      2.3718                 1.6597                 1.8227
 Frc consts  --      1.9051                 1.3422                 1.5085
 IR Inten    --    127.7073                57.6065                 9.2755

                     58                     59                     60
                      A                      A                      A
 Frequencies --   1194.7402              1199.7833              1221.1795
 Red. masses --      1.9301                 2.1439                 1.8852
 Frc consts  --      1.6232                 1.8183                 1.6564
 IR Inten    --      1.8583                14.9020                29.6015

                     61                     62                     63
                      A                      A                      A
 Frequencies --   1240.5120              1252.7155              1266.9573
 Red. masses --      1.6727                 3.0291                 2.8927
 Frc consts  --      1.5166                 2.8007                 2.7357
 IR Inten    --     10.9516                11.7677                33.7217

                     64                     65                     66
                      A                      A                      A
 Frequencies --   1283.8419              1290.5315              1305.1350
 Red. masses --      1.7522                 2.7441                 1.9204
 Frc consts  --      1.7016                 2.6927                 1.9273
 IR Inten    --      3.0049                 4.1958                 1.2446

                     67                     68                     69
                      A                      A                      A
 Frequencies --   1310.5548              1342.6355              1363.1789
 Red. masses --      3.2372                 1.1236                 1.9910
 Frc consts  --      3.2759                 1.1934                 2.1798
 IR Inten    --     20.9413                17.7979                 0.8035

                     70                     71                     72
                      A                      A                      A
 Frequencies --   1406.1971              1412.8577              1419.9996
 Red. masses --      1.2262                 1.4069                 8.0852
 Frc consts  --      1.4285                 1.6546                 9.6055
 IR Inten    --     29.8228                33.3023                 8.3718

                     73                     74                     75
                      A                      A                      A
 Frequencies --   1424.3273              1429.2799              1437.5008
 Red. masses --      1.2411                 1.2623                 1.2841
 Frc consts  --      1.4834                 1.5193                 1.5634
 IR Inten    --      4.4529                10.6923                14.8310

                     76                     77                     78
                      A                      A                      A
 Frequencies --   1443.4078              1444.2625              1455.4824
 Red. masses --      2.0243                 1.5165                 1.3159
 Frc consts  --      2.4849                 1.8638                 1.6424
 IR Inten    --     15.1838                 4.7248                22.4369

                     79                     80                     81
                      A                      A                      A
 Frequencies --   1467.5315              1490.1512              1504.3904
 Red. masses --      1.1893                 1.1791                 1.0965
 Frc consts  --      1.5092                 1.5427                 1.4621
 IR Inten    --      0.1875                 1.1932                 4.2727

                     82                     83                     84
                      A                      A                      A
 Frequencies --   1505.3824              1509.7916              1513.7005
 Red. masses --      1.0438                 1.0879                 1.3111
 Frc consts  --      1.3936                 1.4611                 1.7700
 IR Inten    --      9.9713                 6.7220                 7.9637

                     85                     86                     87
                      A                      A                      A
 Frequencies --   1515.8317              1518.9242              1519.6548
 Red. masses --      1.3003                 1.1023                 1.0472
 Frc consts  --      1.7603                 1.4984                 1.4248
 IR Inten    --      6.1394                 9.7751                 3.6378

                     88                     89                     90
                      A                      A                      A
 Frequencies --   1522.7276              1526.4389              1530.2225
 Red. masses --      1.1381                 1.1724                 1.0580
 Frc consts  --      1.5548                 1.6095                 1.4596
 IR Inten    --      0.5945                 4.5718                 4.2123

                     91                     92                     93
                      A                      A                      A
 Frequencies --   1538.3025              1540.2070              1545.5296
 Red. masses --      1.4148                 1.0974                 1.0540
 Frc consts  --      1.9725                 1.5339                 1.4834
 IR Inten    --     10.4784                11.4182                 8.9316

                     94                     95                     96
                      A                      A                      A
 Frequencies --   1546.5081              2961.1565              2997.3620
 Red. masses --      1.0554                 1.0594                 1.0714
 Frc consts  --      1.4873                 5.4733                 5.6713
 IR Inten    --      8.6707                95.0246                55.4184

                     97                     98                     99
                      A                      A                      A
 Frequencies --   3024.4093              3032.2222              3053.4693
 Red. masses --      1.0775                 1.0417                 1.0367
 Frc consts  --      5.8071                 5.6430                 5.6949
 IR Inten    --     36.2272                50.5300                 7.1436

                    100                    101                    102
                      A                      A                      A
 Frequencies --   3053.9664              3060.0499              3071.9532
 Red. masses --      1.0688                 1.0396                 1.0777
 Frc consts  --      5.8732                 5.7358                 5.9923
 IR Inten    --     21.3462                40.3531                 1.7610

                    103                    104                    105
                      A                      A                      A
 Frequencies --   3076.6088              3085.9166              3087.6014
 Red. masses --      1.0747                 1.0782                 1.0326
 Frc consts  --      5.9936                 6.0493                 5.8000
 IR Inten    --     49.0093                27.6985                22.3172

                    106                    107                    108
                      A                      A                      A
 Frequencies --   3092.3028              3096.2194              3101.6158
 Red. masses --      1.0938                 1.0990                 1.1020
 Frc consts  --      6.1626                 6.2075                 6.2463
 IR Inten    --     17.3012                48.5527                29.6162

                    109                    110                    111
                      A                      A                      A
 Frequencies --   3118.2048              3120.3616              3122.4759
 Red. masses --      1.1009                 1.1035                 1.1002
 Frc consts  --      6.3069                 6.3305                 6.3201
 IR Inten    --     80.0149                36.8628                14.7045

                    112                    113                    114
                      A                      A                      A
 Frequencies --   3139.6378              3141.5338              3156.9503
 Red. masses --      1.1027                 1.0965                 1.0974
 Frc consts  --      6.4045                 6.3761                 6.4437
 IR Inten    --     25.0945                 4.1882                23.3187

                    115                    116                    117
                      A                      A                      A
 Frequencies --   3160.1183              3170.6123              3197.4994
 Red. masses --      1.1068                 1.0982                 1.1049
 Frc consts  --      6.5120                 6.5046                 6.6557
 IR Inten    --      7.6431                 3.4065                 1.1925

 - Thermochemistry -
 -------------------
 Temperature   298.150 Kelvin.  Pressure   1.00000 Atm.
 Atom     1 has atomic number  6 and mass  12.00000

 Molecular mass:   253.19026 amu.
 Principal axes and moments of inertia in atomic units:
                           1         2         3
     Eigenvalues --  2610.870137334.528578361.78564
           X            0.99990   0.00262  -0.01406
           Y           -0.00269   0.99999  -0.00436
           Z            0.01405   0.00439   0.99989
 This molecule is an asymmetric top.
 Rotational symmetry number  1.
 Warning -- assumption of classical behavior for rotation
           may cause significant error
 Rotational temperatures (Kelvin)      0.03317     0.01181     0.01036
 Rotational constants (GHZ):           0.69124     0.24606     0.21583
 Zero-point vibrational energy     944578.8 (Joules/Mol)
                                  225.75975 (Kcal/Mol)
 Warning -- explicit consideration of  29 degrees of freedom as
           vibrations may cause significant error
 Vibrational temperatures:     19.86    44.19    70.10    91.90   122.51
          (Kelvin)            130.20   135.79   149.02   226.72   259.44
                              282.15   301.68   322.55   335.89   348.81
                              379.16   404.12   422.71   461.07   480.06
                              486.71   512.61   553.06   612.89   618.19
                              672.85   728.28   739.88   766.92   936.25
                              957.66  1000.87  1061.58  1097.01  1163.36
                             1192.95  1211.91  1267.11  1282.50  1316.57
                             1359.06  1387.41  1408.69  1413.66  1470.72
                             1496.88  1502.88  1525.10  1529.23  1575.74
                             1589.50  1603.42  1663.80  1670.43  1679.93
                             1685.63  1705.21  1718.96  1726.22  1757.00
                             1784.82  1802.38  1822.87  1847.16  1856.79
                             1877.80  1885.60  1931.75  1961.31  2023.20
                             2032.79  2043.06  2049.29  2056.41  2068.24
                             2076.74  2077.97  2094.11  2111.45  2144.00
                             2164.48  2165.91  2172.25  2177.88  2180.94
                             2185.39  2186.44  2190.87  2196.21  2201.65
                             2213.27  2216.01  2223.67  2225.08  4260.44
                             4312.54  4351.45  4362.69  4393.26  4393.98
                             4402.73  4419.86  4426.55  4439.95  4442.37
                             4449.13  4454.77  4462.53  4486.40  4489.50
                             4492.55  4517.24  4519.97  4542.15  4546.71
                             4561.80  4600.49

 Zero-point correction=                           0.359771 (Hartree/Particle)
 Thermal correction to Energy=                    0.379229
 Thermal correction to Enthalpy=                  0.380173
 Thermal correction to Gibbs Free Energy=         0.310492
 Sum of electronic and zero-point Energies=           -819.728641
 Sum of electronic and thermal Energies=              -819.709184
 Sum of electronic and thermal Enthalpies=            -819.708239
 Sum of electronic and thermal Free Energies=         -819.777920

                     E (Thermal)             CV                S
                      KCal/Mol        Cal/Mol-Kelvin    Cal/Mol-Kelvin
 Total                  237.970             72.012            146.655
 Electronic               0.000              0.000              0.000
 Translational            0.889              2.981             42.487
 Rotational               0.889              2.981             33.437
 Vibrational            236.192             66.051             70.731
 Vibration     1          0.593              1.986              7.371
 Vibration     2          0.594              1.984              5.783
 Vibration     3          0.595              1.978              4.869
 Vibration     4          0.597              1.972              4.334
 Vibration     5          0.601              1.959              3.769
 Vibration     6          0.602              1.956              3.649
 Vibration     7          0.603              1.953              3.567
 Vibration     8          0.605              1.946              3.386
 Vibration     9          0.621              1.894              2.579
 Vibration    10          0.629              1.866              2.325
 Vibration    11          0.636              1.845              2.169
 Vibration    12          0.642              1.826              2.046
 Vibration    13          0.649              1.804              1.925
 Vibration    14          0.654              1.790              1.852
 Vibration    15          0.659              1.775              1.785
 Vibration    16          0.670              1.740              1.638
 Vibration    17          0.681              1.709              1.528
 Vibration    18          0.689              1.685              1.452
 Vibration    19          0.706              1.634              1.308
 Vibration    20          0.715              1.608              1.242
 Vibration    21          0.719              1.599              1.220
 Vibration    22          0.732              1.562              1.138
 Vibration    23          0.753              1.503              1.022
 Vibration    24          0.788              1.414              0.872
 Vibration    25          0.791              1.406              0.860
 Vibration    26          0.825              1.322              0.744
 Vibration    27          0.861              1.236              0.643
 Vibration    28          0.869              1.218              0.623
 Vibration    29          0.888              1.177              0.580

                           ! Non-Optimized Parameters !
 Normal termination of Gaussian 16 at Fri Dec 11 19:56:53 2020.

 ----------------------------------------------------------------------
 # B3LYP/6-311++G(d,p) empiricaldispersion=gd3bj scf=xqc pop=npa geom=c
 heck
 ----------------------------------------------------------------------

 ---------------------------------------
 CID_128245544_JID_8165_Energie_neutraal
 ---------------------------------------
 Structure from the checkpoint file:  "JID_8165.chk"
 Charge =  0 Multiplicity = 1

 SCF Done:  E(RB3LYP) =  -820.309958885     A.U. after   15 cycles
 Normal termination of Gaussian 16 at Fri Dec 11 20:06:32 2020.

 ----------------------------------------------------------------------
 # B3LYP/6-311++G(d,p) empiricaldispersion=gd3bj scf=xqc pop=npa geom=c
 heck
 ----------------------------------------------------------------------

 -------------------------------------
 CID_128245544_JID_8165_Energie_kation
 -------------------------------------
 Structure from the checkpoint file:  "JID_8165.chk"
 Charge =  1 Multiplicity = 2

 SCF Done:  E(UB3LYP) =  -820.039010845     A.U. after   22 cycles
 Normal termination of Gaussian 16 at Fri Dec 11 20:26:55 2020.
 Gaussian 16:  ES64L-G16RevA.03 25-Dec-2016

 ----------------------------------------------------------------------
 # B3LYP/6-311++G(d,p) empiricaldispersion=gd3bj scf=xqc pop=npa geom=c
 heck
 ----------------------------------------------------------------------

 ------------------------------------
 CID_128245544_JID_8165_Energie_anion
 ------------------------------------
 Structure from the checkpoint file:  "JID_8165.chk"
 Charge = -1 Multiplicity = 2

                         Standard orientation:
 ---------------------------------------------------------------------
 Center     Atomic      Atomic             Coordinates (Angstroms)
 Number     Number       Type             X           Y           Z
 ---------------------------------------------------------------------
      1          6           0        3.986971    2.075605   -0.878256
      2          6           0        2.702268    2.531727   -0.193788
      3          8           0        1.712176    1.520911   -0.067671
      4          6           0        1.993589    0.497849    0.877202
      5          6           0        0.689209   -0.011993    1.529044
      6          6           0        0.781891   -1.341054    0.709823
      7          6           0        2.243002   -0.931316    0.272929
      8          6           0        3.278488   -1.689974    1.107722
      9          6           0        2.568039   -1.041983   -1.210418
     10          7           0       -0.165470   -1.624571   -0.355937
     11          6           0       -1.147754   -2.654330   -0.062800
     12          6           0       -0.701508   -0.507706   -1.132705
     13          6           0       -2.062618   -0.011215   -0.716261
     14          7           0       -2.349236    0.635978    0.415531
     15          7           0       -3.663705    0.811683    0.305776
     16          7           0       -4.183132    0.313098   -0.813541
     17          7           0       -3.177819   -0.216296   -1.469522
     18          6           0       -4.461790    1.489124    1.308845
     19          1           0        4.683591    2.917643   -0.967895
     20          1           0        3.777147    1.689753   -1.880176
     21          1           0        4.484823    1.286090   -0.305071
     22          1           0        2.933264    2.944497    0.801480
     23          1           0        2.226138    3.326417   -0.777447
     24          1           0        2.773634    0.842447    1.570192
     25          1           0       -0.178127    0.618947    1.334389
     26          1           0        0.772084   -0.165923    2.609680
     27          1           0        0.794402   -2.231776    1.344704
     28          1           0        4.282325   -1.270325    0.964550
     29          1           0        3.047920   -1.643921    2.179524
     30          1           0        3.310772   -2.747731    0.819484
     31          1           0        1.980136   -0.347646   -1.813242
     32          1           0        3.627196   -0.829601   -1.394535
     33          1           0        2.354164   -2.057145   -1.560311
     34          1           0       -1.888822   -2.367552    0.705310
     35          1           0       -1.699905   -2.898641   -0.977188
     36          1           0       -0.637781   -3.561360    0.277380
     37          1           0        0.007351    0.321997   -1.103792
     38          1           0       -0.808943   -0.819777   -2.178878
     39          1           0       -4.376115    0.963212    2.262473
     40          1           0       -4.111330    2.517289    1.425150
     41          1           0       -5.494515    1.478170    0.961416
 ---------------------------------------------------------------------

 SCF Done:  E(UB3LYP) =  -820.299145296     A.U. after   33 cycles
 SCF Done:  E(UB3LYP) =  -820.299145296     a.u. after    1 cycles

 The electronic state is 2-A.
 Alpha  occ. eigenvalues --  -19.03221 -14.33213 -14.27856 -14.25057 -14.23837
 Alpha  occ. eigenvalues --  -14.20974 -10.12930 -10.12900 -10.12720 -10.12151
 Alpha  occ. eigenvalues --  -10.10636 -10.10056 -10.09303 -10.08322 -10.07392
 Alpha  occ. eigenvalues --  -10.07146 -10.06176 -10.05859  -1.04463  -0.94482
 Alpha  occ. eigenvalues --   -0.84946  -0.83441  -0.79203  -0.74519  -0.66968
 Alpha  occ. eigenvalues --   -0.66541  -0.64377  -0.62593  -0.59759  -0.58910
 Alpha  occ. eigenvalues --   -0.55137  -0.53394  -0.52495  -0.50715  -0.49004
 Alpha  occ. eigenvalues --   -0.44189  -0.42470  -0.41730  -0.41435  -0.38778
 Alpha  occ. eigenvalues --   -0.38139  -0.37464  -0.36739  -0.35378  -0.34148
 Alpha  occ. eigenvalues --   -0.33973  -0.33073  -0.32931  -0.32257  -0.31360
 Alpha  occ. eigenvalues --   -0.30347  -0.30265  -0.29729  -0.28887  -0.28657
 Alpha  occ. eigenvalues --   -0.28320  -0.26984  -0.26903  -0.25774  -0.24136
 Alpha  occ. eigenvalues --   -0.22381  -0.22257  -0.21833  -0.21160  -0.19964
 Alpha  occ. eigenvalues --   -0.19272  -0.18684  -0.15805  -0.11163   0.04006
 Alpha virt. eigenvalues --    0.05321   0.06094   0.06407   0.07380   0.07790
 Alpha virt. eigenvalues --    0.08728   0.08910   0.09190   0.09694   0.10012
 Alpha virt. eigenvalues --    0.10533   0.10833   0.11331   0.11736   0.11971

  Beta  occ. eigenvalues --  -19.03219 -14.33089 -14.27717 -14.24971 -14.23831
  Beta  occ. eigenvalues --  -14.20973 -10.12917 -10.12905 -10.12681 -10.12142
  Beta  occ. eigenvalues --  -10.10633 -10.10051 -10.09294 -10.08321 -10.07366
  Beta  occ. eigenvalues --  -10.07125 -10.06169 -10.05850  -1.04295  -0.94475
  Beta  occ. eigenvalues --   -0.84788  -0.83425  -0.79066  -0.74506  -0.66938
  Beta  occ. eigenvalues --   -0.66465  -0.64353  -0.62552  -0.59731  -0.58886
  Beta  occ. eigenvalues --   -0.55098  -0.53299  -0.52401  -0.50677  -0.48966
  Beta  occ. eigenvalues --   -0.44147  -0.42370  -0.41489  -0.41274  -0.38753
  Beta  occ. eigenvalues --   -0.38119  -0.37439  -0.36709  -0.35348  -0.34103
  Beta  occ. eigenvalues --   -0.33934  -0.33030  -0.32798  -0.32238  -0.31304
  Beta  occ. eigenvalues --   -0.30324  -0.30244  -0.29702  -0.28863  -0.28616
  Beta  occ. eigenvalues --   -0.28292  -0.26962  -0.26831  -0.25749  -0.24114
  Beta  occ. eigenvalues --   -0.22359  -0.22209  -0.21356  -0.21045  -0.19929
  Beta  occ. eigenvalues --   -0.19191  -0.18298  -0.15790  -0.11150
  Beta virt. eigenvalues --    0.05920   0.06650   0.06789   0.07145   0.07660
  Beta virt. eigenvalues --    0.08018   0.08910   0.09221   0.09395   0.10028
  Beta virt. eigenvalues --    0.10252   0.10910   0.11164   0.11656   0.11857

 Mulliken charges and spin densities:
               1          2
     1  C    0.224082  -0.668939
     2  C   -0.156916  -0.018520
     3  O   -0.031931   0.020994
     4  C   -0.196504   0.115585
     5  C    0.221893  -0.836651
     6  C   -0.524815  -0.013306
     7  C   -1.058574   1.124671
     8  C    0.841573  -1.392477
     9  C   -0.202351  -0.281798
    10  N    0.333340   0.065353
    11  C    0.022553  -0.241328
    12  C   -0.332707   0.175907
    13  C   -0.670773  -0.181037
    14  N   -0.536387   0.318020
    15  N    0.382538   0.025015
    16  N    0.018164   0.075380
    17  N   -0.041127  -0.052527
    18  C    0.984340  -1.277766
    19  H   -0.441863   0.592743
    20  H    0.089216   0.061250
    21  H   -0.033431   0.184895
    22  H   -0.011461   0.137648
    23  H   -0.011138   0.157758
    24  H   -0.037040   0.226230
    25  H    0.456472  -0.229046
    26  H   -0.355750   0.512170
    27  H    0.167113   0.018174
    28  H   -0.101504   0.233228
    29  H   -0.087015   0.230960
    30  H    0.022898   0.123523
    31  H    0.132868   0.000258
    32  H    0.019615   0.132811
    33  H    0.177994  -0.007098
    34  H    0.032623   0.130708
    35  H    0.146455  -0.017742
    36  H   -0.033443   0.184096
    37  H    0.292283  -0.066288
    38  H    0.136536   0.056949
    39  H   -0.565801   0.767559
    40  H   -0.090962   0.262051
    41  H   -0.181064   0.350587
 Sum of Mulliken charges =  -1.00000   1.00000

 Dipole moment (field-independent basis, Debye):
    X=              2.1736    Y=             -1.3373    Z=             -2.9649  Tot=              3.9120
 Quadrupole moment (field-independent basis, Debye-Ang):
   XX=           -213.3488   YY=           -146.9560   ZZ=           -156.4638
   XY=             -6.9289   XZ=              4.2738   YZ=             -0.0058

 Summary of Natural Population Analysis:

                                       Natural Population
                Natural  -----------------------------------------------
    Atom  No    Charge         Core      Valence    Rydberg      Total
 -----------------------------------------------------------------------
      C    1   -0.30161      0.99967     2.29714    0.00480     3.30161
      C    2   -0.00477      0.99959     1.99294    0.01224     3.00477
      O    3   -0.30782      0.99987     3.29837    0.00958     4.30782
      C    4    0.07123      0.99949     1.91348    0.01581     2.92877
      C    5   -0.21873      0.99960     2.20960    0.00953     3.21873
      C    6    0.01147      0.99954     1.97397    0.01502     2.98853
      C    7   -0.05633      0.99955     2.04386    0.01292     3.05633
      C    8   -0.28152      0.99962     2.27516    0.00673     3.28152
      C    9   -0.28901      0.99961     2.28292    0.00648     3.28901
      N   10   -0.27936      0.99970     2.76775    0.01191     3.77936
      C   11   -0.17632      0.99965     2.16857    0.00811     3.17632
      C   12   -0.11295      0.99956     2.10278    0.01061     3.11295
      C   13    0.14977      0.99966     1.83159    0.01898     2.85023
      N   14   -0.13932      0.99968     2.62865    0.01100     3.63932
      N   15    0.00418      0.99972     2.48044    0.01566     3.49582
      N   16   -0.01964      0.99977     2.50405    0.01582     3.51964
      N   17   -0.16106      0.99972     2.64787    0.01348     3.66106
      C   18   -0.17685      0.99963     2.16950    0.00772     3.17685
      H   19    0.10110      0.00000     0.39764    0.00126     0.39890
      H   20    0.09940      0.00000     0.39963    0.00097     0.40060
      H   21    0.09887      0.00000     0.39975    0.00138     0.40113
      H   22    0.07752      0.00000     0.42120    0.00129     0.42248
      H   23    0.08737      0.00000     0.41162    0.00101     0.41263
      H   24    0.08264      0.00000     0.41560    0.00176     0.41736
      H   25    0.12032      0.00000     0.37699    0.00269     0.37968
      H   26    0.10228      0.00000     0.39651    0.00121     0.39772
      H   27    0.09516      0.00000     0.40352    0.00131     0.40484
      H   28    0.09931      0.00000     0.39968    0.00101     0.40069
      H   29    0.09989      0.00000     0.39911    0.00101     0.40011
      H   30    0.09924      0.00000     0.39992    0.00084     0.40076
      H   31    0.10532      0.00000     0.39362    0.00106     0.39468
      H   32    0.09798      0.00000     0.40116    0.00086     0.40202
      H   33    0.10367      0.00000     0.39534    0.00099     0.39633
      H   34    0.08556      0.00000     0.41301    0.00143     0.41444
      H   35    0.09661      0.00000     0.40253    0.00086     0.40339
      H   36    0.09304      0.00000     0.40616    0.00080     0.40696
      H   37    0.11911      0.00000     0.37915    0.00174     0.38089
      H   38    0.10219      0.00000     0.39666    0.00115     0.39781
      H   39    0.11143      0.00000     0.38372    0.00484     0.38857
      H   40    0.10196      0.00000     0.39711    0.00093     0.39804
      H   41    0.10869      0.00000     0.38975    0.00155     0.39131
 =======================================================================
   * Total *   -0.00000     17.99361    50.76804    0.23835    69.00000

 Normal termination of Gaussian 16 at Fri Dec 11 20:57:40 2020.
