 Gaussian 16, Revision A.03,

 -----------------------------------------------------------
 # opt freq B3LYP/6-31G(d) empiricaldispersion=gd3bj scf=xqc
 -----------------------------------------------------------

 -------------------------------
 CID_147676549_JID_1342_neutraal
 -------------------------------
 Symbolic Z-matrix:
 Charge =  0 Multiplicity = 1

 SCF Done:  E(RB3LYP) =  -447.311101596     A.U. after   13 cycles
 SCF Done:  E(RB3LYP) =  -447.314231003     A.U. after   10 cycles
 SCF Done:  E(RB3LYP) =  -447.314709896     A.U. after   10 cycles
 SCF Done:  E(RB3LYP) =  -447.314798176     A.U. after    9 cycles
 SCF Done:  E(RB3LYP) =  -447.314836654     A.U. after    9 cycles
 SCF Done:  E(RB3LYP) =  -447.314851448     A.U. after    9 cycles
 SCF Done:  E(RB3LYP) =  -447.314856206     A.U. after    8 cycles
 SCF Done:  E(RB3LYP) =  -447.314857099     A.U. after    7 cycles
 SCF Done:  E(RB3LYP) =  -447.314857392     A.U. after    7 cycles
 Optimization completed.
    -- Stationary point found.
 Normal termination of Gaussian 16 at Tue Dec  8 19:46:49 2020.

 --------------------------------------------------------------------
 #N Geom=AllCheck Guess=TCheck SCRF=Check GenChk RB3LYP/6-31G(d) Freq
 --------------------------------------------------------------------

 Structure from the checkpoint file:  "JID_1342.chk"
 -------------------------------
 CID_147676549_JID_1342_neutraal
 -------------------------------
 Charge =  0 Multiplicity = 1

 SCF Done:  E(RB3LYP) =  -447.314857392     A.U. after    1 cycles

  Exact polarizability: 110.832  -0.583 107.243   1.188   0.512  96.475
 Approx polarizability: 145.384   2.273 150.245   1.836   0.039 148.429

                      1                      2                      3
                      A                      A                      A
 Frequencies --    101.6421               197.1380               212.5584
 Red. masses --      2.2897                 2.8553                 1.1247
 Frc consts  --      0.0139                 0.0654                 0.0299
 IR Inten    --      0.1418                 0.4216                 7.4865

                      4                      5                      6
                      A                      A                      A
 Frequencies --    219.5888               221.3188               234.8929
 Red. masses --      1.2418                 1.1157                 1.7061
 Frc consts  --      0.0353                 0.0322                 0.0555
 IR Inten    --      4.8709                 6.6282                 1.1263

                      7                      8                      9
                      A                      A                      A
 Frequencies --    237.2666               257.1512               271.1427
 Red. masses --      1.5800                 1.4722                 2.3852
 Frc consts  --      0.0524                 0.0574                 0.1033
 IR Inten    --      3.0078                15.0428                12.6256

                     10                     11                     12
                      A                      A                      A
 Frequencies --    305.0204               339.3865               350.6992
 Red. masses --      2.0381                 2.1221                 2.2948
 Frc consts  --      0.1117                 0.1440                 0.1663
 IR Inten    --      0.0286                 0.9915                 0.5911

                     13                     14                     15
                      A                      A                      A
 Frequencies --    413.2380               452.6544               494.1875
 Red. masses --      2.0605                 2.7409                 2.8239
 Frc consts  --      0.2073                 0.3309                 0.4063
 IR Inten    --      0.2536                 0.3174                 6.2745

                     16                     17                     18
                      A                      A                      A
 Frequencies --    532.3842               565.3964               595.6897
 Red. masses --      3.5940                 3.1835                 3.0212
 Frc consts  --      0.6002                 0.5996                 0.6316
 IR Inten    --      0.3811                 4.8606                 1.2493

                     19                     20                     21
                      A                      A                      A
 Frequencies --    618.4284               740.2350               792.3462
 Red. masses --      3.0179                 2.3527                 2.3651
 Frc consts  --      0.6800                 0.7596                 0.8748
 IR Inten    --      4.2695                13.2731                16.0315

                     22                     23                     24
                      A                      A                      A
 Frequencies --    823.9136               850.9508               884.0584
 Red. masses --      2.3717                 1.4288                 1.9892
 Frc consts  --      0.9486                 0.6096                 0.9160
 IR Inten    --     21.6571                 0.1531                 0.5537

                     25                     26                     27
                      A                      A                      A
 Frequencies --    901.1594               922.4791               929.5878
 Red. masses --      1.9355                 1.8838                 1.5780
 Frc consts  --      0.9261                 0.9445                 0.8034
 IR Inten    --     63.6872                58.4875                 4.6478

                     28                     29                     30
                      A                      A                      A
 Frequencies --    948.3454               963.8954               992.5130
 Red. masses --      2.0131                 1.6426                 2.2251
 Frc consts  --      1.0667                 0.8992                 1.2915
 IR Inten    --      0.5510                43.8974                 1.7925

                     31                     32                     33
                      A                      A                      A
 Frequencies --   1003.5303              1045.5508              1078.7661
 Red. masses --      1.4630                 1.5233                 1.5205
 Frc consts  --      0.8681                 0.9811                 1.0425
 IR Inten    --      0.6601                 2.0276                 1.0430

                     34                     35                     36
                      A                      A                      A
 Frequencies --   1090.2973              1111.5183              1139.0314
 Red. masses --      1.5657                 1.5278                 1.5635
 Frc consts  --      1.0966                 1.1121                 1.1951
 IR Inten    --      0.6001                 0.5857                 3.5398

                     37                     38                     39
                      A                      A                      A
 Frequencies --   1162.6700              1180.3511              1190.3771
 Red. masses --      2.3146                 2.4139                 1.8863
 Frc consts  --      1.8434                 1.9815                 1.5748
 IR Inten    --      5.8388                 6.9320                 0.3620

                     40                     41                     42
                      A                      A                      A
 Frequencies --   1202.2752              1216.1378              1237.2167
 Red. masses --      1.6972                 1.9037                 2.7889
 Frc consts  --      1.4454                 1.6589                 2.5153
 IR Inten    --      0.3512                 0.1442                 0.5815

                     43                     44                     45
                      A                      A                      A
 Frequencies --   1260.6172              1290.7485              1294.6200
 Red. masses --      1.3338                 1.6868                 1.4950
 Frc consts  --      1.2489                 1.6557                 1.4763
 IR Inten    --      0.5867                 0.9118                 0.2930

                     46                     47                     48
                      A                      A                      A
 Frequencies --   1304.0124              1318.2774              1326.1017
 Red. masses --      1.5766                 1.6861                 1.5638
 Frc consts  --      1.5795                 1.7264                 1.6203
 IR Inten    --      1.7692                 0.0500                 0.3016

                     49                     50                     51
                      A                      A                      A
 Frequencies --   1369.2636              1375.0547              1403.3098
 Red. masses --      1.8951                 1.5809                 1.5854
 Frc consts  --      2.0934                 1.7611                 1.8395
 IR Inten    --      2.2058                 1.5791                 1.6381

                     52                     53                     54
                      A                      A                      A
 Frequencies --   1434.1730              1437.9417              1442.0679
 Red. masses --      1.2815                 1.2833                 1.2761
 Frc consts  --      1.5530                 1.5634                 1.5635
 IR Inten    --      6.5582                 3.6651                 1.0570

                     55                     56                     57
                      A                      A                      A
 Frequencies --   1457.5193              1516.8656              1521.3052
 Red. masses --      1.3097                 1.0703                 1.0602
 Frc consts  --      1.6392                 1.4509                 1.4456
 IR Inten    --      2.6153                 0.0872                 1.5800

                     58                     59                     60
                      A                      A                      A
 Frequencies --   1523.6579              1526.3400              1528.1240
 Red. masses --      1.0528                 1.0588                 1.0584
 Frc consts  --      1.4400                 1.4533                 1.4562
 IR Inten    --      2.8682                 5.7804                 2.8244

                     61                     62                     63
                      A                      A                      A
 Frequencies --   1528.5364              1532.8901              1539.2396
 Red. masses --      1.0520                 1.0517                 1.0742
 Frc consts  --      1.4482                 1.4560                 1.4995
 IR Inten    --      7.3766                 5.0731                 0.1472

                     64                     65                     66
                      A                      A                      A
 Frequencies --   1554.4257              1696.3469              3017.7409
 Red. masses --      1.0918                 1.0929                 1.0838
 Frc consts  --      1.5544                 1.8529                 5.8149
 IR Inten    --      8.2091                24.0740                13.7548

                     67                     68                     69
                      A                      A                      A
 Frequencies --   3032.0356              3039.3561              3042.3028
 Red. masses --      1.0373                 1.0390                 1.0431
 Frc consts  --      5.6188                 5.6550                 5.6884
 IR Inten    --     30.7877                17.1557                13.7049

                     70                     71                     72
                      A                      A                      A
 Frequencies --   3045.2905              3047.0366              3049.3757
 Red. masses --      1.0743                 1.0624                 1.0644
 Frc consts  --      5.8698                 5.8114                 5.8317
 IR Inten    --     38.1055                47.6319                82.2746

                     73                     74                     75
                      A                      A                      A
 Frequencies --   3060.0329              3084.4443              3090.2902
 Red. masses --      1.0659                 1.1051                 1.1012
 Frc consts  --      5.8806                 6.1944                 6.1959
 IR Inten    --     22.8230                21.5510                16.6633

                     76                     77                     78
                      A                      A                      A
 Frequencies --   3092.7373              3099.5517              3100.0793
 Red. masses --      1.1012                 1.1017                 1.1012
 Frc consts  --      6.2058                 6.2358                 6.2356
 IR Inten    --     28.8270                 9.0703                58.0963

                     79                     80                     81
                      A                      A                      A
 Frequencies --   3105.4555              3109.2993              3118.1664
 Red. masses --      1.1017                 1.1005                 1.0971
 Frc consts  --      6.2599                 6.2684                 6.2850
 IR Inten    --     42.3083                44.9848                46.5097

                     82                     83                     84
                      A                      A                      A
 Frequencies --   3122.4486              3475.9579              3561.2295
 Red. masses --      1.1005                 1.0490                 1.0922
 Frc consts  --      6.3219                 7.4677                 8.1610
 IR Inten    --     26.7187                 1.1843                 0.1196

 - Thermochemistry -
 -------------------
 Temperature   298.150 Kelvin.  Pressure   1.00000 Atm.
 Atom     1 has atomic number  6 and mass  12.00000

 Molecular mass:   153.15175 amu.
 Principal axes and moments of inertia in atomic units:
                           1         2         3
     Eigenvalues --  1193.821031607.097702083.86971
           X            0.99966  -0.02595   0.00163
           Y            0.02594   0.99966   0.00352
           Z           -0.00172  -0.00348   0.99999
 This molecule is an asymmetric top.
 Rotational symmetry number  1.
 Warning -- assumption of classical behavior for rotation
           may cause significant error
 Rotational temperatures (Kelvin)      0.07255     0.05389     0.04156
 Rotational constants (GHZ):           1.51174     1.12298     0.86605
 Zero-point vibrational energy     732720.2 (Joules/Mol)
                                  175.12434 (Kcal/Mol)
 Warning -- explicit consideration of  19 degrees of freedom as
           vibrations may cause significant error
 Vibrational temperatures:    146.24   283.64   305.82   315.94   318.43
          (Kelvin)            337.96   341.37   369.98   390.11   438.86
                              488.30   504.58   594.56   651.27   711.03
                              765.98   813.48   857.06   889.78  1065.03
                             1140.01  1185.43  1224.33  1271.96  1296.57
                             1327.24  1337.47  1364.46  1386.83  1428.00
                             1443.86  1504.31  1552.10  1568.69  1599.23
                             1638.81  1672.82  1698.26  1712.69  1729.81
                             1749.75  1780.08  1813.75  1857.10  1862.67
                             1876.18  1896.71  1907.96  1970.06  1978.40
                             2019.05  2063.46  2068.88  2074.81  2097.05
                             2182.43  2188.82  2192.20  2196.06  2198.63
                             2199.22  2205.49  2214.62  2236.47  2440.66
                             4341.86  4362.42  4372.96  4377.20  4381.49
                             4384.01  4387.37  4402.70  4437.83  4446.24
                             4449.76  4459.56  4460.32  4468.06  4473.59
                             4486.35  4492.51  5001.13  5123.81

 Zero-point correction=                           0.279078 (Hartree/Particle)
 Thermal correction to Energy=                    0.290456
 Thermal correction to Enthalpy=                  0.291401
 Thermal correction to Gibbs Free Energy=         0.243857
 Sum of electronic and zero-point Energies=           -447.035779
 Sum of electronic and thermal Energies=              -447.024401
 Sum of electronic and thermal Enthalpies=            -447.023457
 Sum of electronic and thermal Free Energies=         -447.071000

                     E (Thermal)             CV                S
                      KCal/Mol        Cal/Mol-Kelvin    Cal/Mol-Kelvin
 Total                  182.264             46.540            100.064
 Electronic               0.000              0.000              0.000
 Translational            0.889              2.981             40.989
 Rotational               0.889              2.981             29.771
 Vibrational            180.487             40.578             29.305
 Vibration     1          0.604              1.948              3.423
 Vibration     2          0.637              1.844              2.160
 Vibration     3          0.644              1.822              2.022
 Vibration     4          0.647              1.811              1.962
 Vibration     5          0.648              1.809              1.948
 Vibration     6          0.655              1.787              1.841
 Vibration     7          0.656              1.784              1.823
 Vibration     8          0.667              1.751              1.681
 Vibration     9          0.675              1.726              1.589
 Vibration    10          0.696              1.664              1.389
 Vibration    11          0.719              1.597              1.215
 Vibration    12          0.728              1.574              1.163
 Vibration    13          0.777              1.441              0.915
 Vibration    14          0.811              1.355              0.788
 Vibration    15          0.850              1.263              0.673
 Vibration    16          0.887              1.178              0.582
 Vibration    17          0.921              1.106              0.513
 Vibration    18          0.953              1.041              0.457
 Vibration    19          0.978              0.993              0.419

 Optimization completed.
    -- Stationary point found.
 Normal termination of Gaussian 16 at Tue Dec  8 19:55:34 2020.

 ----------------------------------------------------------------------
 # B3LYP/6-311++G(d,p) empiricaldispersion=gd3bj scf=xqc pop=npa geom=c
 heck
 ----------------------------------------------------------------------

 ---------------------------------------
 CID_147676549_JID_1342_Energie_neutraal
 ---------------------------------------
 Structure from the checkpoint file:  "JID_1342.chk"
 Charge =  0 Multiplicity = 1

 SCF Done:  E(RB3LYP) =  -447.442285490     A.U. after   13 cycles
 Normal termination of Gaussian 16 at Tue Dec  8 19:59:11 2020.

 ----------------------------------------------------------------------
 # B3LYP/6-311++G(d,p) empiricaldispersion=gd3bj scf=xqc pop=npa geom=c
 heck
 ----------------------------------------------------------------------

 -------------------------------------
 CID_147676549_JID_1342_Energie_kation
 -------------------------------------
 Structure from the checkpoint file:  "JID_1342.chk"
 Charge =  1 Multiplicity = 2

 SCF Done:  E(UB3LYP) =  -447.130041447     A.U. after   21 cycles
 Normal termination of Gaussian 16 at Tue Dec  8 20:07:27 2020.
 Gaussian 16:  ES64L-G16RevA.03 25-Dec-2016

 ----------------------------------------------------------------------
 # B3LYP/6-311++G(d,p) empiricaldispersion=gd3bj scf=xqc pop=npa geom=c
 heck
 ----------------------------------------------------------------------

 ------------------------------------
 CID_147676549_JID_1342_Energie_anion
 ------------------------------------
 Structure from the checkpoint file:  "JID_1342.chk"
 Charge = -1 Multiplicity = 2

                         Standard orientation:
 ---------------------------------------------------------------------
 Center     Atomic      Atomic             Coordinates (Angstroms)
 Number     Number       Type             X           Y           Z
 ---------------------------------------------------------------------
      1          6           0       -2.442781   -1.387773    0.029534
      2          6           0       -1.235271   -0.726370   -0.631935
      3          6           0        0.072055   -1.580814   -0.576260
      4          6           0        1.146679   -0.605780   -0.044074
      5          6           0        0.844084   -0.379616    1.460820
      6          6           0       -0.454738    0.478073    1.454055
      7          6           0       -0.783262    0.642060   -0.049967
      8          6           0        0.650856    0.727000   -0.660308
      9          7           0        1.491548    1.876162   -0.345493
     10          6           0       -1.715065    1.799748   -0.363420
     11          6           0        2.581103   -1.001243   -0.345456
     12          1           0       -2.233907   -1.673382    1.066536
     13          1           0       -2.719731   -2.302059   -0.508400
     14          1           0       -3.317406   -0.726473    0.031585
     15          1           0       -1.494166   -0.547252   -1.684731
     16          1           0       -0.035231   -2.454234    0.078401
     17          1           0        0.344964   -1.954557   -1.569989
     18          1           0        0.722289   -1.332519    1.987139
     19          1           0        1.672325    0.146877    1.950020
     20          1           0       -1.276581    0.020859    2.011592
     21          1           0       -0.285221    1.460884    1.910481
     22          1           0        0.607694    0.655838   -1.755375
     23          1           0        1.111914    2.713653   -0.782871
     24          1           0        1.499693    2.055645    0.656480
     25          1           0       -1.275447    2.752817   -0.042593
     26          1           0       -1.918163    1.867048   -1.439733
     27          1           0       -2.678114    1.696540    0.150471
     28          1           0        2.724016   -1.172624   -1.419203
     29          1           0        3.271079   -0.208140   -0.039710
     30          1           0        2.857196   -1.923761    0.180413
 ---------------------------------------------------------------------

 SCF Done:  E(UB3LYP) =  -447.425576595     A.U. after   27 cycles

 The electronic state is 2-A.
 Alpha  occ. eigenvalues --  -14.18251 -10.08040 -10.06745 -10.06221 -10.06103
 Alpha  occ. eigenvalues --  -10.05516 -10.05339 -10.05150 -10.05086 -10.04883
 Alpha  occ. eigenvalues --  -10.04482  -0.79710  -0.73632  -0.66788  -0.64600
 Alpha  occ. eigenvalues --   -0.60835  -0.58589  -0.54749  -0.52413  -0.48481
 Alpha  occ. eigenvalues --   -0.43760  -0.40711  -0.39101  -0.36419  -0.35671
 Alpha  occ. eigenvalues --   -0.34309  -0.31756  -0.31244  -0.30125  -0.29479
 Alpha  occ. eigenvalues --   -0.29188  -0.28085  -0.27886  -0.25726  -0.24361
 Alpha  occ. eigenvalues --   -0.23177  -0.23065  -0.22333  -0.21168  -0.20054
 Alpha  occ. eigenvalues --   -0.19694  -0.17761  -0.12676   0.04821
 Alpha virt. eigenvalues --    0.07281   0.07630   0.07985   0.09467   0.09863
 Alpha virt. eigenvalues --    0.09931   0.10452   0.10507   0.12438   0.12700
 Alpha virt. eigenvalues --    0.13068   0.13126   0.13237   0.13569   0.14086

  Beta  occ. eigenvalues --  -14.18212 -10.08029 -10.06746 -10.06222 -10.06092
  Beta  occ. eigenvalues --  -10.05496 -10.05328 -10.05120 -10.05074 -10.04849
  Beta  occ. eigenvalues --  -10.04442  -0.79671  -0.73578  -0.66764  -0.64563
  Beta  occ. eigenvalues --   -0.60788  -0.58545  -0.54684  -0.52344  -0.48416
  Beta  occ. eigenvalues --   -0.43718  -0.40664  -0.39061  -0.36365  -0.35614
  Beta  occ. eigenvalues --   -0.34273  -0.31728  -0.31202  -0.30095  -0.29449
  Beta  occ. eigenvalues --   -0.29158  -0.28047  -0.27852  -0.25678  -0.24323
  Beta  occ. eigenvalues --   -0.23142  -0.23032  -0.22301  -0.21128  -0.20020
  Beta  occ. eigenvalues --   -0.19669  -0.17735  -0.12642
  Beta virt. eigenvalues --    0.07072   0.08125   0.08301   0.08677   0.10031
  Beta virt. eigenvalues --    0.10371   0.10528   0.10855   0.10998   0.12866
  Beta virt. eigenvalues --    0.13094   0.13385   0.13654   0.13686   0.13883

 Mulliken charges and spin densities:
               1          2
     1  C    1.918193  -2.681053
     2  C   -1.770278   1.800581
     3  C   -0.095154  -0.748148
     4  C   -1.098777   1.366213
     5  C    0.886761  -1.402527
     6  C   -0.123137  -0.650967
     7  C   -1.475361   2.285099
     8  C    0.466165  -1.186961
     9  N   -0.384393   0.054469
    10  C    2.992923  -3.107716
    11  C   -0.060690  -0.132920
    12  H   -0.125709   0.259625
    13  H   -0.171236   0.309217
    14  H   -0.239501   0.384431
    15  H   -0.314950   0.514909
    16  H   -0.078154   0.234682
    17  H   -0.046436   0.190364
    18  H   -0.109403   0.266212
    19  H    0.019796   0.129063
    20  H   -0.015355   0.174969
    21  H   -0.343090   0.506242
    22  H    0.065181   0.176045
    23  H   -0.239084   0.482342
    24  H   -0.032949   0.277783
    25  H   -0.123476   0.283471
    26  H   -0.245158   0.396446
    27  H   -0.320783   0.465239
    28  H    0.037207   0.093311
    29  H    0.054483   0.102991
    30  H   -0.027636   0.156588
 Sum of Mulliken charges =  -1.00000   1.00000

 Dipole moment (field-independent basis, Debye):
    X=              2.6497    Y=             -2.7669    Z=              0.2018  Tot=              3.8364
 Quadrupole moment (field-independent basis, Debye-Ang):
   XX=           -122.6669   YY=           -118.4717   ZZ=           -108.1814
   XY=             -3.5236   XZ=             -1.2611   YZ=              0.0203

 Summary of Natural Population Analysis:

                                       Natural Population
                Natural  -----------------------------------------------
    Atom  No    Charge         Core      Valence    Rydberg      Total
 -----------------------------------------------------------------------
      C    1   -0.28393      0.99964     2.27803    0.00625     3.28393
      C    2   -0.10785      0.99956     2.09659    0.01171     3.10785
      C    3   -0.18231      0.99959     2.17313    0.00959     3.18231
      C    4   -0.04175      0.99953     2.02773    0.01449     3.04175
      C    5   -0.19111      0.99960     2.18175    0.00976     3.19111
      C    6   -0.19667      0.99959     2.18659    0.01049     3.19667
      C    7   -0.04080      0.99951     2.02387    0.01741     3.04080
      C    8   -0.00338      0.99947     1.98887    0.01504     3.00338
      N    9   -0.42353      0.99976     2.91259    0.01118     3.92353
      C   10   -0.28754      0.99960     2.27957    0.00837     3.28754
      C   11   -0.28275      0.99961     2.27700    0.00613     3.28275
      H   12    0.09602      0.00000     0.40283    0.00114     0.40398
      H   13    0.09921      0.00000     0.39978    0.00101     0.40079
      H   14    0.10135      0.00000     0.39745    0.00121     0.39865
      H   15    0.09702      0.00000     0.40108    0.00190     0.40298
      H   16    0.09580      0.00000     0.40298    0.00123     0.40420
      H   17    0.09924      0.00000     0.39971    0.00106     0.40076
      H   18    0.09852      0.00000     0.40037    0.00111     0.40148
      H   19    0.09822      0.00000     0.40064    0.00114     0.40178
      H   20    0.10320      0.00000     0.39556    0.00124     0.39680
      H   21    0.10016      0.00000     0.39820    0.00164     0.39984
      H   22    0.09422      0.00000     0.40415    0.00163     0.40578
      H   23    0.17873      0.00000     0.31930    0.00197     0.32127
      H   24    0.17509      0.00000     0.32239    0.00252     0.32491
      H   25    0.10122      0.00000     0.39709    0.00169     0.39878
      H   26    0.10043      0.00000     0.39812    0.00146     0.39957
      H   27    0.10265      0.00000     0.39596    0.00139     0.39735
      H   28    0.09826      0.00000     0.40082    0.00092     0.40174
      H   29    0.10648      0.00000     0.39238    0.00114     0.39352
      H   30    0.09580      0.00000     0.40327    0.00092     0.40420
 =======================================================================
   * Total *   -0.00000     10.99546    31.85780    0.14674    43.00000

 Normal termination of Gaussian 16 at Tue Dec  8 20:17:48 2020.
