 Gaussian 16, Revision A.03,

 -----------------------------------------------------------
 # opt freq B3LYP/6-31G(d) empiricaldispersion=gd3bj scf=xqc
 -----------------------------------------------------------

 -------------------------------
 CID_106709254_JID_8705_neutraal
 -------------------------------
 Symbolic Z-matrix:
 Charge =  0 Multiplicity = 1

 SCF Done:  E(RB3LYP) =  -783.031773044     A.U. after   15 cycles
 SCF Done:  E(RB3LYP) =  -782.917681441     A.U. after   14 cycles
 SCF Done:  E(RB3LYP) =  -783.035886429     A.U. after   13 cycles
 SCF Done:  E(RB3LYP) =  -783.037786256     A.U. after   13 cycles
 SCF Done:  E(RB3LYP) =  -783.038357132     A.U. after   13 cycles
 SCF Done:  E(RB3LYP) =  -783.038333787     A.U. after   12 cycles
 SCF Done:  E(RB3LYP) =  -783.038747733     A.U. after   12 cycles
 SCF Done:  E(RB3LYP) =  -783.038923267     A.U. after   11 cycles
 SCF Done:  E(RB3LYP) =  -783.039074368     A.U. after   13 cycles
 SCF Done:  E(RB3LYP) =  -783.039298099     A.U. after   12 cycles
 SCF Done:  E(RB3LYP) =  -783.039543197     A.U. after    8 cycles
 SCF Done:  E(RB3LYP) =  -783.039544032     A.U. after   10 cycles
 SCF Done:  E(RB3LYP) =  -783.039544988     A.U. after    8 cycles
 SCF Done:  E(RB3LYP) =  -783.039545478     A.U. after    8 cycles
 SCF Done:  E(RB3LYP) =  -783.039545829     A.U. after    8 cycles
 SCF Done:  E(RB3LYP) =  -783.039546009     A.U. after    7 cycles
 Optimization completed.
    -- Stationary point found.
 Normal termination of Gaussian 16 at Fri Dec 11 22:28:28 2020.

 --------------------------------------------------------------------
 #N Geom=AllCheck Guess=TCheck SCRF=Check GenChk RB3LYP/6-31G(d) Freq
 --------------------------------------------------------------------

 Structure from the checkpoint file:  "JID_8705.chk"
 -------------------------------
 CID_106709254_JID_8705_neutraal
 -------------------------------
 Charge =  0 Multiplicity = 1

 SCF Done:  E(RB3LYP) =  -783.039546009     A.U. after    1 cycles

  Exact polarizability: 159.254  -3.326 157.857   8.193   1.431 150.921
 Approx polarizability: 209.462  -4.776 232.518  12.005   3.539 254.476

                      1                      2                      3
                      A                      A                      A
 Frequencies --     23.4306                31.2101                51.8235
 Red. masses --      4.8766                 4.3100                 4.6875
 Frc consts  --      0.0016                 0.0025                 0.0074
 IR Inten    --      3.2367                 1.9563                 1.0116

                      4                      5                      6
                      A                      A                      A
 Frequencies --     61.2044                89.2896               101.8915
 Red. masses --      3.9950                 4.2607                 2.9090
 Frc consts  --      0.0088                 0.0200                 0.0178
 IR Inten    --      0.6011                 1.6881                 8.0868

                      7                      8                      9
                      A                      A                      A
 Frequencies --    136.0642               155.4187               172.8386
 Red. masses --      4.4634                 3.3580                 1.2824
 Frc consts  --      0.0487                 0.0478                 0.0226
 IR Inten    --      4.1204                 1.8538                 1.9516

                     10                     11                     12
                      A                      A                      A
 Frequencies --    187.4233               194.1927               208.0718
 Red. masses --      2.6317                 3.2697                 2.4419
 Frc consts  --      0.0545                 0.0726                 0.0623
 IR Inten    --      4.5320                 7.6326                 4.3240

                     13                     14                     15
                      A                      A                      A
 Frequencies --    221.4315               229.9126               241.6471
 Red. masses --      2.9920                 2.8349                 1.1398
 Frc consts  --      0.0864                 0.0883                 0.0392
 IR Inten    --      0.0753                 3.8913                 0.0943

                     16                     17                     18
                      A                      A                      A
 Frequencies --    252.5686               270.8380               274.2625
 Red. masses --      2.2072                 1.3390                 1.2267
 Frc consts  --      0.0830                 0.0579                 0.0544
 IR Inten    --      0.9926                 0.0428                 0.3852

                     19                     20                     21
                      A                      A                      A
 Frequencies --    293.8232               316.8663               346.4220
 Red. masses --      1.9875                 2.2961                 2.5853
 Frc consts  --      0.1011                 0.1358                 0.1828
 IR Inten    --      1.4282                 0.1991                 0.5526

                     22                     23                     24
                      A                      A                      A
 Frequencies --    366.3152               392.0152               401.2486
 Red. masses --      2.4971                 2.4047                 2.7597
 Frc consts  --      0.1974                 0.2177                 0.2618
 IR Inten    --      0.2438                 1.1231                 2.8984

                     25                     26                     27
                      A                      A                      A
 Frequencies --    414.5813               439.3782               482.8304
 Red. masses --      3.3499                 2.8616                 3.5349
 Frc consts  --      0.3392                 0.3255                 0.4855
 IR Inten    --      2.2875                 3.8259                 3.9802

                     28                     29                     30
                      A                      A                      A
 Frequencies --    560.3699               588.3639               612.2260
 Red. masses --      2.5893                 5.3860                 4.6467
 Frc consts  --      0.4791                 1.0985                 1.0262
 IR Inten    --      6.1739                 0.5160                 0.6185

                     31                     32                     33
                      A                      A                      A
 Frequencies --    639.4540               673.4175               701.0577
 Red. masses --      1.8053                 4.9775                 4.4715
 Frc consts  --      0.4349                 1.3299                 1.2948
 IR Inten    --     63.7868                 5.7672                11.8823

                     34                     35                     36
                      A                      A                      A
 Frequencies --    703.4312               720.3417               746.1194
 Red. masses --      3.2768                 2.5094                 1.5245
 Frc consts  --      0.9553                 0.7672                 0.5000
 IR Inten    --      1.3009                23.3017                 5.8962

                     37                     38                     39
                      A                      A                      A
 Frequencies --    760.5598               808.7924               821.1844
 Red. masses --      4.3070                 1.4392                 1.7585
 Frc consts  --      1.4679                 0.5547                 0.6987
 IR Inten    --     22.8852                 8.8280                 7.7857

                     40                     41                     42
                      A                      A                      A
 Frequencies --    879.1261               891.7363               911.4542
 Red. masses --      2.3171                 2.1891                 1.8439
 Frc consts  --      1.0551                 1.0256                 0.9025
 IR Inten    --      8.4397                 1.5981                 0.1113

                     43                     44                     45
                      A                      A                      A
 Frequencies --    961.3349               967.4294               972.6806
 Red. masses --      1.9434                 1.5002                 6.1256
 Frc consts  --      1.0582                 0.8272                 3.4146
 IR Inten    --      4.9218                 0.8901                 1.9475

                     46                     47                     48
                      A                      A                      A
 Frequencies --    984.4859              1026.4756              1046.8318
 Red. masses --      1.7903                 1.7446                 1.5524
 Frc consts  --      1.0223                 1.0830                 1.0023
 IR Inten    --      0.7934                 7.0320                 0.3104

                     49                     50                     51
                      A                      A                      A
 Frequencies --   1055.6597              1064.3159              1089.3392
 Red. masses --      3.0827                 1.7555                 1.6340
 Frc consts  --      2.0241                 1.1716                 1.1424
 IR Inten    --      6.1436                11.9099                 8.3590

                     52                     53                     54
                      A                      A                      A
 Frequencies --   1090.7778              1096.2726              1103.6588
 Red. masses --      1.9251                 2.4869                 2.7619
 Frc consts  --      1.3495                 1.7609                 1.9821
 IR Inten    --      2.5597                 1.4671                 5.5528

                     55                     56                     57
                      A                      A                      A
 Frequencies --   1146.6926              1163.6093              1167.0890
 Red. masses --      1.7644                 2.5745                 1.3559
 Frc consts  --      1.3669                 2.0538                 1.0882
 IR Inten    --      1.2691                52.6742                 9.8199

                     58                     59                     60
                      A                      A                      A
 Frequencies --   1189.7022              1200.2316              1230.7311
 Red. masses --      2.3356                 2.0621                 1.8708
 Frc consts  --      1.9478                 1.7502                 1.6696
 IR Inten    --      5.6687                22.2050                12.8098

                     61                     62                     63
                      A                      A                      A
 Frequencies --   1238.7496              1254.3864              1269.5930
 Red. masses --      2.4019                 2.8565                 1.5437
 Frc consts  --      2.1716                 2.6482                 1.4660
 IR Inten    --      5.6810                 8.3755                 1.3852

                     64                     65                     66
                      A                      A                      A
 Frequencies --   1279.9132              1317.5988              1333.7586
 Red. masses --      1.4578                 1.4260                 1.6218
 Frc consts  --      1.4071                 1.4586                 1.6998
 IR Inten    --      3.0247                 6.9389                 5.4388

                     67                     68                     69
                      A                      A                      A
 Frequencies --   1346.9880              1361.2215              1375.4256
 Red. masses --      1.3679                 1.1692                 2.4754
 Frc consts  --      1.4622                 1.2764                 2.7591
 IR Inten    --      1.2411                 0.3243                 4.9305

                     70                     71                     72
                      A                      A                      A
 Frequencies --   1387.8916              1410.3597              1419.1689
 Red. masses --      1.4017                 1.3131                 1.3739
 Frc consts  --      1.5908                 1.5389                 1.6303
 IR Inten    --      7.4113                10.3634                 2.3755

                     73                     74                     75
                      A                      A                      A
 Frequencies --   1425.2610              1426.2753              1431.5485
 Red. masses --      1.6157                 2.0879                 1.2750
 Frc consts  --      1.9338                 2.5025                 1.5395
 IR Inten    --      3.4996                19.2439                 5.7966

                     76                     77                     78
                      A                      A                      A
 Frequencies --   1436.6898              1451.0302              1485.0955
 Red. masses --      1.4323                 1.2170                 1.4036
 Frc consts  --      1.7418                 1.5098                 1.8239
 IR Inten    --      4.3646                 2.5397                 5.1391

                     79                     80                     81
                      A                      A                      A
 Frequencies --   1504.3480              1512.5705              1513.6360
 Red. masses --      1.0807                 1.1076                 1.1390
 Frc consts  --      1.4410                 1.4930                 1.5376
 IR Inten    --      2.5378                 5.2948                 3.6471

                     82                     83                     84
                      A                      A                      A
 Frequencies --   1514.2572              1517.3850              1519.9903
 Red. masses --      1.1472                 1.0603                 1.1917
 Frc consts  --      1.5499                 1.4383                 1.6222
 IR Inten    --      1.1207                 0.7380                 6.9646

                     85                     86                     87
                      A                      A                      A
 Frequencies --   1521.9955              1522.9870              1530.0126
 Red. masses --      1.0774                 1.0671                 1.0617
 Frc consts  --      1.4705                 1.4583                 1.4643
 IR Inten    --     11.8105                 7.3428                 7.8046

                     88                     89                     90
                      A                      A                      A
 Frequencies --   1530.2981              1535.8893              1541.9206
 Red. masses --      1.0755                 1.3319                 1.0562
 Frc consts  --      1.4840                 1.8511                 1.4795
 IR Inten    --      1.6909                19.3000                 7.4773

                     91                     92                     93
                      A                      A                      A
 Frequencies --   1547.0988              1553.8946              1558.3871
 Red. masses --      1.1391                 1.9035                 2.5849
 Frc consts  --      1.6063                 2.7079                 3.6987
 IR Inten    --     16.0910                29.8688                31.9906

                     94                     95                     96
                      A                      A                      A
 Frequencies --   2348.1521              3025.5531              3037.8840
 Red. masses --     12.6845                 1.0677                 1.0632
 Frc consts  --     41.2074                 5.7586                 5.7812
 IR Inten    --     19.6215                16.2339                63.1138

                     97                     98                     99
                      A                      A                      A
 Frequencies --   3048.6022              3059.1742              3059.3494
 Red. masses --      1.0604                 1.0371                 1.0349
 Frc consts  --      5.8063                 5.7183                 5.7068
 IR Inten    --     35.5215                21.8055                13.7536

                    100                    101                    102
                      A                      A                      A
 Frequencies --   3063.8746              3068.0045              3070.5012
 Red. masses --      1.0364                 1.0869                 1.0772
 Frc consts  --      5.7323                 6.0277                 5.9839
 IR Inten    --     19.5367                26.2358                28.0729

                    103                    104                    105
                      A                      A                      A
 Frequencies --   3081.1490              3083.6943              3084.8406
 Red. masses --      1.0378                 1.0814                 1.1000
 Frc consts  --      5.8049                 6.0588                 6.1677
 IR Inten    --     33.9775                 4.8055                12.0713

                    106                    107                    108
                      A                      A                      A
 Frequencies --   3107.5641              3120.3389              3131.1828
 Red. masses --      1.1033                 1.0930                 1.1036
 Frc consts  --      6.2775                 6.2703                 6.3749
 IR Inten    --     31.0738                11.0840                 1.7116

                    109                    110                    111
                      A                      A                      A
 Frequencies --   3131.3461              3135.5510              3138.0494
 Red. masses --      1.1001                 1.1029                 1.1038
 Frc consts  --      6.3555                 6.3885                 6.4039
 IR Inten    --     27.8991                30.3553                21.8484

                    112                    113                    114
                      A                      A                      A
 Frequencies --   3144.7547              3149.8333              3155.7175
 Red. masses --      1.1022                 1.1026                 1.1043
 Frc consts  --      6.4222                 6.4452                 6.4792
 IR Inten    --     29.7305                15.6374                 7.3870

                    115                    116                    117
                      A                      A                      A
 Frequencies --   3178.6200              3268.7092              3529.2585
 Red. masses --      1.1049                 1.0978                 1.0748
 Frc consts  --      6.5772                 6.9108                 7.8875
 IR Inten    --      2.5979                 1.7372                11.9665

 - Thermochemistry -
 -------------------
 Temperature   298.150 Kelvin.  Pressure   1.00000 Atm.
 Atom     1 has atomic number  6 and mass  12.00000

 Molecular mass:   249.19535 amu.
 Principal axes and moments of inertia in atomic units:
                           1         2         3
     Eigenvalues --  3085.354615913.182966322.47347
           X            0.99932  -0.01585   0.03341
           Y            0.01356   0.99760   0.06789
           Z           -0.03440  -0.06739   0.99713
 This molecule is an asymmetric top.
 Rotational symmetry number  1.
 Warning -- assumption of classical behavior for rotation
           may cause significant error
 Rotational temperatures (Kelvin)      0.02807     0.01465     0.01370
 Rotational constants (GHZ):           0.58494     0.30521     0.28545
 Zero-point vibrational energy     949411.9 (Joules/Mol)
                                  226.91490 (Kcal/Mol)
 Warning -- explicit consideration of  30 degrees of freedom as
           vibrations may cause significant error
 Vibrational temperatures:     33.71    44.90    74.56    88.06   128.47
          (Kelvin)            146.60   195.77   223.61   248.68   269.66
                              279.40   299.37   318.59   330.79   347.68
                              363.39   389.68   394.60   422.75   455.90
                              498.42   527.05   564.02   577.31   596.49
                              632.17   694.69   806.25   846.52   880.86
                              920.03   968.90  1008.67  1012.08  1036.41
                             1073.50  1094.28  1163.67  1181.50  1264.87
                             1283.01  1311.38  1383.15  1391.92  1399.47
                             1416.46  1476.87  1506.16  1518.86  1531.31
                             1567.32  1569.39  1577.29  1587.92  1649.83
                             1674.17  1679.18  1711.72  1726.87  1770.75
                             1782.28  1804.78  1826.66  1841.51  1895.73
                             1918.98  1938.02  1958.49  1978.93  1996.87
                             2029.19  2041.87  2050.63  2052.09  2059.68
                             2067.08  2087.71  2136.72  2164.42  2176.25
                             2177.78  2178.68  2183.18  2186.93  2189.81
                             2191.24  2201.35  2201.76  2209.80  2218.48
                             2225.93  2235.71  2242.17  3378.47  4353.10
                             4370.84  4386.26  4401.47  4401.72  4408.23
                             4414.17  4417.77  4433.09  4436.75  4438.40
                             4471.09  4489.47  4505.07  4505.31  4511.36
                             4514.95  4524.60  4531.91  4540.37  4573.33
                             4702.94  5077.82

 Zero-point correction=                           0.361612 (Hartree/Particle)
 Thermal correction to Energy=                    0.381164
 Thermal correction to Enthalpy=                  0.382108
 Thermal correction to Gibbs Free Energy=         0.313530
 Sum of electronic and zero-point Energies=           -782.677934
 Sum of electronic and thermal Energies=              -782.658382
 Sum of electronic and thermal Enthalpies=            -782.657438
 Sum of electronic and thermal Free Energies=         -782.726016

                     E (Thermal)             CV                S
                      KCal/Mol        Cal/Mol-Kelvin    Cal/Mol-Kelvin
 Total                  239.184             73.383            144.335
 Electronic               0.000              0.000              0.000
 Translational            0.889              2.981             42.440
 Rotational               0.889              2.981             33.111
 Vibrational            237.407             67.421             68.784
 Vibration     1          0.593              1.985              6.320
 Vibration     2          0.594              1.983              5.751
 Vibration     3          0.596              1.977              4.747
 Vibration     4          0.597              1.973              4.418
 Vibration     5          0.602              1.957              3.676
 Vibration     6          0.604              1.948              3.418
 Vibration     7          0.614              1.917              2.858
 Vibration     8          0.620              1.897              2.605
 Vibration     9          0.626              1.876              2.404
 Vibration    10          0.632              1.857              2.253
 Vibration    11          0.635              1.848              2.187
 Vibration    12          0.641              1.828              2.061
 Vibration    13          0.648              1.808              1.947
 Vibration    14          0.652              1.795              1.880
 Vibration    15          0.658              1.777              1.791
 Vibration    16          0.664              1.758              1.713
 Vibration    17          0.675              1.727              1.591
 Vibration    18          0.677              1.721              1.569
 Vibration    19          0.689              1.685              1.452
 Vibration    20          0.704              1.641              1.326
 Vibration    21          0.724              1.583              1.182
 Vibration    22          0.739              1.542              1.095
 Vibration    23          0.759              1.487              0.992
 Vibration    24          0.767              1.467              0.958
 Vibration    25          0.778              1.439              0.911
 Vibration    26          0.799              1.384              0.829
 Vibration    27          0.839              1.288              0.702
 Vibration    28          0.916              1.117              0.523
 Vibration    29          0.946              1.057              0.470
 Vibration    30          0.971              1.006              0.429

 Optimization completed.
    -- Stationary point found.
 Normal termination of Gaussian 16 at Fri Dec 11 22:52:51 2020.

 ----------------------------------------------------------------------
 # B3LYP/6-311++G(d,p) empiricaldispersion=gd3bj scf=xqc pop=npa geom=c
 heck
 ----------------------------------------------------------------------

 ---------------------------------------
 CID_106709254_JID_8705_Energie_neutraal
 ---------------------------------------
 Structure from the checkpoint file:  "JID_8705.chk"
 Charge =  0 Multiplicity = 1

 SCF Done:  E(RB3LYP) =  -783.254624102     A.U. after   17 cycles
 Normal termination of Gaussian 16 at Fri Dec 11 23:05:19 2020.

 ----------------------------------------------------------------------
 # B3LYP/6-311++G(d,p) empiricaldispersion=gd3bj scf=xqc pop=npa geom=c
 heck
 ----------------------------------------------------------------------

 -------------------------------------
 CID_106709254_JID_8705_Energie_kation
 -------------------------------------
 Structure from the checkpoint file:  "JID_8705.chk"
 Charge =  1 Multiplicity = 2

 SCF Done:  E(UB3LYP) =  -782.960995032     A.U. after   25 cycles
 Normal termination of Gaussian 16 at Fri Dec 11 23:31:49 2020.
 Gaussian 16:  ES64L-G16RevA.03 25-Dec-2016

 ----------------------------------------------------------------------
 # B3LYP/6-311++G(d,p) empiricaldispersion=gd3bj scf=xqc pop=npa geom=c
 heck
 ----------------------------------------------------------------------

 ------------------------------------
 CID_106709254_JID_8705_Energie_anion
 ------------------------------------
 Structure from the checkpoint file:  "JID_8705.chk"
 Charge = -1 Multiplicity = 2

                         Standard orientation:
 ---------------------------------------------------------------------
 Center     Atomic      Atomic             Coordinates (Angstroms)
 Number     Number       Type             X           Y           Z
 ---------------------------------------------------------------------
      1          6           0       -3.244609    1.062942   -1.572595
      2          6           0       -2.283322    1.129352   -0.376949
      3          6           0       -2.137692   -0.190692    0.347364
      4          7           0       -2.224287   -0.317412    1.657322
      5          7           0       -1.936725   -1.628528    1.988118
      6          6           0       -1.692836   -2.253413    0.863444
      7          7           0       -1.801857   -1.407215   -0.209647
      8          6           0       -1.650380   -1.792072   -1.607769
      9          7           0       -1.019989    1.743269   -0.797106
     10          6           0       -0.290442    2.543162    0.185556
     11          6           0        0.169160    1.868141    1.495768
     12          6           0        1.012050    0.605711    1.287005
     13          6           0        2.415281    0.879053    0.722583
     14          6           0        2.994206   -0.277323   -0.136516
     15          6           0        4.402726    0.087203   -0.647664
     16          6           0        3.035918   -1.601158    0.654730
     17          6           0        2.097521   -0.438820   -1.297269
     18          7           0        1.363525   -0.523704   -2.193593
     19          1           0       -2.796430    0.531359   -2.417254
     20          1           0       -3.464678    2.079221   -1.909662
     21          1           0       -4.182714    0.563770   -1.303919
     22          1           0       -2.721365    1.793997    0.374899
     23          1           0       -1.441780   -3.299973    0.756778
     24          1           0       -2.616688   -1.782086   -2.118454
     25          1           0       -0.946537   -1.135310   -2.120086
     26          1           0       -1.245181   -2.805531   -1.638421
     27          1           0       -0.411947    1.077072   -1.265796
     28          1           0        0.573568    2.961825   -0.346125
     29          1           0       -0.925389    3.400040    0.447709
     30          1           0        0.736636    2.609155    2.077688
     31          1           0       -0.707732    1.597845    2.090482
     32          1           0        1.087245    0.057748    2.231898
     33          1           0        0.467698   -0.058135    0.606422
     34          1           0        3.125258    1.071499    1.536873
     35          1           0        2.407581    1.781325    0.099734
     36          1           0        5.072976    0.215456    0.208671
     37          1           0        4.808757   -0.701300   -1.288780
     38          1           0        4.385883    1.021822   -1.216567
     39          1           0        3.455312   -2.407963    0.045733
     40          1           0        3.670200   -1.468987    1.537733
     41          1           0        2.039188   -1.900235    0.988659
 ---------------------------------------------------------------------

 SCF Done:  E(UB3LYP) =  -783.245301404     A.U. after   31 cycles

 The electronic state is 2-A.
 Alpha  occ. eigenvalues --  -14.29528 -14.23242 -14.23025 -14.22776 -14.21368
 Alpha  occ. eigenvalues --  -10.14445 -10.14070 -10.13901 -10.13426 -10.12779
 Alpha  occ. eigenvalues --  -10.12715 -10.10775 -10.09056 -10.08349 -10.08341
 Alpha  occ. eigenvalues --  -10.08251 -10.07672 -10.07195  -0.97255  -0.83797
 Alpha  occ. eigenvalues --   -0.82951  -0.82611  -0.75636  -0.73071  -0.69761
 Alpha  occ. eigenvalues --   -0.66511  -0.64554  -0.61782  -0.61286  -0.57085
 Alpha  occ. eigenvalues --   -0.55396  -0.54039  -0.53531  -0.49272  -0.48211
 Alpha  occ. eigenvalues --   -0.44256  -0.41587  -0.40266  -0.39910  -0.38870
 Alpha  occ. eigenvalues --   -0.38259  -0.36982  -0.36453  -0.35875  -0.35427
 Alpha  occ. eigenvalues --   -0.33708  -0.32947  -0.32418  -0.31899  -0.31609
 Alpha  occ. eigenvalues --   -0.30949  -0.30560  -0.30368  -0.28766  -0.27817
 Alpha  occ. eigenvalues --   -0.27600  -0.27290  -0.26869  -0.25336  -0.25245
 Alpha  occ. eigenvalues --   -0.24577  -0.23509  -0.22906  -0.22354  -0.20146
 Alpha  occ. eigenvalues --   -0.17521  -0.17210  -0.13942   0.03827
 Alpha virt. eigenvalues --    0.05403   0.06300   0.07277   0.07547   0.07700
 Alpha virt. eigenvalues --    0.08778   0.09023   0.09303   0.09690   0.09969
 Alpha virt. eigenvalues --    0.10392   0.10497   0.10766   0.11283   0.11464

  Beta  occ. eigenvalues --  -14.29526 -14.23242 -14.23022 -14.22762 -14.21365
  Beta  occ. eigenvalues --  -10.14443 -10.14053 -10.13897 -10.13424 -10.12741
  Beta  occ. eigenvalues --  -10.12716 -10.10768 -10.09035 -10.08326 -10.08299
  Beta  occ. eigenvalues --  -10.08211 -10.07667 -10.07193  -0.97249  -0.83789
  Beta  occ. eigenvalues --   -0.82938  -0.82603  -0.75612  -0.73060  -0.69745
  Beta  occ. eigenvalues --   -0.66492  -0.64506  -0.61748  -0.61210  -0.57046
  Beta  occ. eigenvalues --   -0.55358  -0.54020  -0.53487  -0.49246  -0.48188
  Beta  occ. eigenvalues --   -0.44218  -0.41545  -0.40247  -0.39878  -0.38846
  Beta  occ. eigenvalues --   -0.38229  -0.36948  -0.36430  -0.35851  -0.35381
  Beta  occ. eigenvalues --   -0.33666  -0.32921  -0.32395  -0.31864  -0.31575
  Beta  occ. eigenvalues --   -0.30914  -0.30527  -0.30351  -0.28730  -0.27787
  Beta  occ. eigenvalues --   -0.27564  -0.27265  -0.26849  -0.25316  -0.25222
  Beta  occ. eigenvalues --   -0.24561  -0.23483  -0.22888  -0.22343  -0.20133
  Beta  occ. eigenvalues --   -0.17510  -0.17204  -0.13935
  Beta virt. eigenvalues --    0.05929   0.06437   0.06880   0.07787   0.08093
  Beta virt. eigenvalues --    0.08203   0.08942   0.09440   0.09602   0.09995
  Beta virt. eigenvalues --    0.10218   0.10511   0.10599   0.11043   0.11450

 Mulliken charges and spin densities:
               1          2
     1  C    0.326496  -0.919558
     2  C   -0.885301   0.183959
     3  C   -0.548522   0.153822
     4  N    0.082564   0.032489
     5  N   -0.057479  -0.030200
     6  C    0.277770  -0.200058
     7  N    0.018490   0.066910
     8  C    0.578485  -0.907204
     9  N    0.103010   0.029980
    10  C   -0.179002  -0.139914
    11  C   -0.368504   0.026370
    12  C   -0.072697   0.247413
    13  C    0.508893  -1.522892
    14  C   -1.916403   3.191731
    15  C    1.011379  -1.491722
    16  C    0.805539  -1.392623
    17  C    0.953361  -1.523967
    18  N   -0.286076   0.068663
    19  H    0.142295   0.010336
    20  H    0.108492   0.055808
    21  H   -0.063383   0.217341
    22  H    0.180284   0.033089
    23  H   -0.454903   0.642391
    24  H   -0.271113   0.457829
    25  H    0.183863   0.037780
    26  H   -0.349930   0.519739
    27  H    0.265007   0.008928
    28  H   -0.024317   0.197409
    29  H    0.124594   0.026512
    30  H   -0.036721   0.198738
    31  H    0.219617  -0.014432
    32  H    0.192307   0.036509
    33  H   -0.391154   0.141500
    34  H   -0.167758   0.370818
    35  H    0.304699  -0.163636
    36  H   -0.516182   0.686119
    37  H   -0.176980   0.348540
    38  H   -0.250303   0.411718
    39  H   -0.357284   0.540888
    40  H   -0.277558   0.454378
    41  H    0.264425  -0.091505
 Sum of Mulliken charges =  -1.00000   1.00000

 Dipole moment (field-independent basis, Debye):
    X=             -4.6597    Y=              4.4347    Z=             -0.2688  Tot=              6.4384
 Quadrupole moment (field-independent basis, Debye-Ang):
   XX=           -199.4555   YY=           -160.5051   ZZ=           -162.3360
   XY=             -2.7689   XZ=              2.3788   YZ=              0.0234

 Summary of Natural Population Analysis:

                                       Natural Population
                Natural  -----------------------------------------------
    Atom  No    Charge         Core      Valence    Rydberg      Total
 -----------------------------------------------------------------------
      C    1   -0.28335      0.99965     2.27765    0.00606     3.28335
      C    2   -0.03437      0.99956     2.02284    0.01198     3.03437
      C    3    0.18207      0.99956     1.79984    0.01853     2.81793
      N    4   -0.16892      0.99968     2.65733    0.01191     3.66892
      N    5   -0.16183      0.99973     2.64946    0.01265     3.66183
      C    6    0.09878      0.99962     1.88476    0.01684     2.90122
      N    7   -0.21563      0.99961     2.70366    0.01236     3.71563
      C    8   -0.17976      0.99962     2.17169    0.00845     3.17976
      N    9   -0.34461      0.99974     2.83403    0.01084     3.84461
      C   10   -0.08464      0.99962     2.07361    0.01141     3.08464
      C   11   -0.20395      0.99962     2.19710    0.00722     3.20395
      C   12   -0.20110      0.99962     2.19221    0.00927     3.20110
      C   13   -0.17947      0.99960     2.16988    0.00999     3.17947
      C   14   -0.09315      0.99949     2.07951    0.01415     3.09315
      C   15   -0.27436      0.99963     2.26696    0.00777     3.27436
      C   16   -0.27684      0.99963     2.26967    0.00754     3.27684
      C   17    0.18288      0.99961     1.79664    0.02088     2.81712
      N   18   -0.20391      0.99977     2.69202    0.01212     3.70391
      H   19    0.10013      0.00000     0.39867    0.00119     0.39987
      H   20    0.10356      0.00000     0.39558    0.00087     0.39644
      H   21    0.09914      0.00000     0.39999    0.00088     0.40086
      H   22    0.10662      0.00000     0.39178    0.00160     0.39338
      H   23    0.10030      0.00000     0.39812    0.00158     0.39970
      H   24    0.09968      0.00000     0.39889    0.00143     0.40032
      H   25    0.11402      0.00000     0.38398    0.00199     0.38598
      H   26    0.10710      0.00000     0.39105    0.00185     0.39290
      H   27    0.18326      0.00000     0.31347    0.00327     0.31674
      H   28    0.09337      0.00000     0.40568    0.00095     0.40663
      H   29    0.08976      0.00000     0.40936    0.00087     0.41024
      H   30    0.09461      0.00000     0.40446    0.00093     0.40539
      H   31    0.11147      0.00000     0.38715    0.00139     0.38853
      H   32    0.10451      0.00000     0.39442    0.00107     0.39549
      H   33    0.09710      0.00000     0.39980    0.00310     0.40290
      H   34    0.10457      0.00000     0.39424    0.00119     0.39543
      H   35    0.09914      0.00000     0.39917    0.00169     0.40086
      H   36    0.10684      0.00000     0.39096    0.00221     0.39316
      H   37    0.10570      0.00000     0.39260    0.00171     0.39430
      H   38    0.10390      0.00000     0.39457    0.00152     0.39610
      H   39    0.10660      0.00000     0.39170    0.00170     0.39340
      H   40    0.10520      0.00000     0.39343    0.00137     0.39480
      H   41    0.10559      0.00000     0.39245    0.00196     0.39441
 =======================================================================
   * Total *    0.00000     17.99335    49.76036    0.24629    68.00000

 Normal termination of Gaussian 16 at Sat Dec 12 00:04:17 2020.
