 Gaussian 16, Revision A.03,

 -----------------------------------------------------------
 # opt freq B3LYP/6-31G(d) empiricaldispersion=gd3bj scf=xqc
 -----------------------------------------------------------

 -------------------------------
 CID_142059946_JID_1985_neutraal
 -------------------------------
 Symbolic Z-matrix:
 Charge =  0 Multiplicity = 1

 SCF Done:  E(RB3LYP) =  -444.833963880     A.U. after   15 cycles
 SCF Done:  E(RB3LYP) =  -444.857028465     A.U. after   12 cycles
 SCF Done:  E(RB3LYP) =  -444.858169150     A.U. after   12 cycles
 SCF Done:  E(RB3LYP) =  -444.858382414     A.U. after   11 cycles
 SCF Done:  E(RB3LYP) =  -444.858397889     A.U. after   10 cycles
 SCF Done:  E(RB3LYP) =  -444.858409922     A.U. after    9 cycles
 SCF Done:  E(RB3LYP) =  -444.858412042     A.U. after    8 cycles
 SCF Done:  E(RB3LYP) =  -444.858412735     A.U. after    7 cycles
 SCF Done:  E(RB3LYP) =  -444.858413155     A.U. after    7 cycles
 SCF Done:  E(RB3LYP) =  -444.858413321     A.U. after    7 cycles
 Optimization completed.
    -- Stationary point found.
 Normal termination of Gaussian 16 at Tue Dec  8 21:49:23 2020.

 --------------------------------------------------------------------
 #N Geom=AllCheck Guess=TCheck SCRF=Check GenChk RB3LYP/6-31G(d) Freq
 --------------------------------------------------------------------

 Structure from the checkpoint file:  "JID_1985.chk"
 -------------------------------
 CID_142059946_JID_1985_neutraal
 -------------------------------
 Charge =  0 Multiplicity = 1

 SCF Done:  E(RB3LYP) =  -444.858413321     A.U. after    1 cycles

  Exact polarizability: 117.441  -4.605 100.973   1.384  -1.207  82.489
 Approx polarizability: 144.509 -15.542 150.323   2.556  -4.145 129.871

                      1                      2                      3
                      A                      A                      A
 Frequencies --     53.7670                80.0950               112.8414
 Red. masses --      3.4978                 2.9379                 3.0187
 Frc consts  --      0.0060                 0.0111                 0.0226
 IR Inten    --      2.0137                 1.1677                 1.6559

                      4                      5                      6
                      A                      A                      A
 Frequencies --    121.9254               204.5953               238.8516
 Red. masses --      3.1533                 2.2795                 1.7158
 Frc consts  --      0.0276                 0.0562                 0.0577
 IR Inten    --      3.3954                 1.4907                 0.6488

                      7                      8                      9
                      A                      A                      A
 Frequencies --    253.2173               312.6378               367.0191
 Red. masses --      1.9935                 2.4752                 2.5901
 Frc consts  --      0.0753                 0.1425                 0.2056
 IR Inten    --      1.4394                 0.6358                 0.6819

                     10                     11                     12
                      A                      A                      A
 Frequencies --    393.8471               405.8232               465.3685
 Red. masses --      2.5549                 3.0074                 3.2336
 Frc consts  --      0.2335                 0.2918                 0.4126
 IR Inten    --      0.1770                 0.6527                 0.9967

                     13                     14                     15
                      A                      A                      A
 Frequencies --    576.0786               603.2623               636.6039
 Red. masses --      4.1023                 3.5993                 3.5577
 Frc consts  --      0.8021                 0.7717                 0.8495
 IR Inten    --      0.5893                 0.6868                 0.2021

                     16                     17                     18
                      A                      A                      A
 Frequencies --    681.1034               776.2555               826.4309
 Red. masses --      2.0227                 1.4216                 2.3913
 Frc consts  --      0.5528                 0.5047                 0.9623
 IR Inten    --      2.6081                 0.3406                 0.6551

                     19                     20                     21
                      A                      A                      A
 Frequencies --    846.3783               869.5440               872.4939
 Red. masses --      2.5746                 1.5718                 2.4599
 Frc consts  --      1.0867                 0.7002                 1.1033
 IR Inten    --      0.3909                 0.2043                 0.8777

                     22                     23                     24
                      A                      A                      A
 Frequencies --    902.3072               939.2789               959.2398
 Red. masses --      2.5975                 1.7819                 2.2996
 Frc consts  --      1.2460                 0.9263                 1.2467
 IR Inten    --      0.2460                 0.4097                 0.9560

                     25                     26                     27
                      A                      A                      A
 Frequencies --    976.0140              1004.1544              1026.2343
 Red. masses --      1.5846                 1.8620                 1.5928
 Frc consts  --      0.8894                 1.1062                 0.9884
 IR Inten    --      1.8716                 0.2378                 0.2932

                     28                     29                     30
                      A                      A                      A
 Frequencies --   1040.7627              1069.2670              1079.5873
 Red. masses --      1.9941                 2.0706                 1.5255
 Frc consts  --      1.2727                 1.3949                 1.0476
 IR Inten    --      0.4808                 0.7591                 1.4912

                     31                     32                     33
                      A                      A                      A
 Frequencies --   1090.8474              1124.5453              1133.2048
 Red. masses --      2.2110                 3.1685                 1.8494
 Frc consts  --      1.5501                 2.3608                 1.3993
 IR Inten    --      0.2092                 0.3876                 4.2976

                     34                     35                     36
                      A                      A                      A
 Frequencies --   1172.9576              1207.5686              1216.7530
 Red. masses --      1.9631                 1.6171                 1.4851
 Frc consts  --      1.5913                 1.3893                 1.2954
 IR Inten    --      0.3777                 0.4007                 0.7244

                     37                     38                     39
                      A                      A                      A
 Frequencies --   1238.3370              1256.9034              1269.1912
 Red. masses --      1.3243                 1.3223                 1.3542
 Frc consts  --      1.1965                 1.2308                 1.2852
 IR Inten    --      1.5556                 2.7737                 0.4458

                     40                     41                     42
                      A                      A                      A
 Frequencies --   1282.7097              1295.5595              1297.9931
 Red. masses --      1.3706                 1.3699                 1.4564
 Frc consts  --      1.3286                 1.3548                 1.4457
 IR Inten    --      0.5441                 1.1914                 0.2678

                     43                     44                     45
                      A                      A                      A
 Frequencies --   1312.9189              1339.1222              1348.0742
 Red. masses --      1.3483                 1.3439                 1.3696
 Frc consts  --      1.3693                 1.4199                 1.4665
 IR Inten    --      0.7159                 0.6239                 3.3697

                     46                     47                     48
                      A                      A                      A
 Frequencies --   1353.2435              1370.2711              1375.4847
 Red. masses --      1.3384                 1.3556                 1.5042
 Frc consts  --      1.4441                 1.4996                 1.6768
 IR Inten    --      3.2625                 2.1827                 1.1185

                     49                     50                     51
                      A                      A                      A
 Frequencies --   1403.2172              1439.4980              1509.9986
 Red. masses --      1.4925                 1.2145                 1.0830
 Frc consts  --      1.7315                 1.4828                 1.4549
 IR Inten    --      1.2487                 3.2819                 0.5371

                     52                     53                     54
                      A                      A                      A
 Frequencies --   1519.6884              1524.9702              1526.7332
 Red. masses --      1.0867                 1.1089                 1.0507
 Frc consts  --      1.4787                 1.5193                 1.4429
 IR Inten    --      1.4439                 2.0301                 3.7426

                     55                     56                     57
                      A                      A                      A
 Frequencies --   1529.3554              1536.2612              2362.3680
 Red. masses --      1.0515                 1.0958                12.6534
 Frc consts  --      1.4490                 1.5237                41.6057
 IR Inten    --      6.7978                 4.8522                 9.8124

                     58                     59                     60
                      A                      A                      A
 Frequencies --   3021.2777              3026.5043              3031.0492
 Red. masses --      1.0790                 1.0745                 1.0727
 Frc consts  --      5.8032                 5.7986                 5.8067
 IR Inten    --      1.3200                 6.4757                14.9736

                     61                     62                     63
                      A                      A                      A
 Frequencies --   3043.6439              3064.9961              3066.4431
 Red. masses --      1.0781                 1.0585                 1.0350
 Frc consts  --      5.8844                 5.8588                 5.7342
 IR Inten    --     36.7501                38.6153                17.1377

                     64                     65                     66
                      A                      A                      A
 Frequencies --   3069.1934              3076.2784              3088.0435
 Red. masses --      1.0670                 1.0808                 1.0898
 Frc consts  --      5.9221                 6.0260                 6.1232
 IR Inten    --     55.2971                16.7052                18.5581

                     67                     68                     69
                      A                      A                      A
 Frequencies --   3103.7497              3110.9209              3117.1153
 Red. masses --      1.0980                 1.1045                 1.0955
 Frc consts  --      6.2320                 6.2981                 6.2713
 IR Inten    --     42.2176                 7.1779                33.3933

                     70                     71                     72
                      A                      A                      A
 Frequencies --   3127.7366              3138.8070              3146.8651
 Red. masses --      1.1056                 1.1033                 1.1034
 Frc consts  --      6.3727                 6.4040                 6.4381
 IR Inten    --     75.7273                19.5222                20.9439

 - Thermochemistry -
 -------------------
 Temperature   298.150 Kelvin.  Pressure   1.00000 Atm.
 Atom     1 has atomic number  6 and mass  12.00000

 Molecular mass:   149.12045 amu.
 Principal axes and moments of inertia in atomic units:
                           1         2         3
     Eigenvalues --   791.617782724.720373253.40636
           X            0.99944   0.03339   0.00333
           Y           -0.03339   0.99944  -0.00124
           Z           -0.00337   0.00113   0.99999
 This molecule is an asymmetric top.
 Rotational symmetry number  1.
 Warning -- assumption of classical behavior for rotation
           may cause significant error
 Rotational temperatures (Kelvin)      0.10941     0.03179     0.02662
 Rotational constants (GHZ):           2.27981     0.66236     0.55472
 Zero-point vibrational energy     609888.4 (Joules/Mol)
                                  145.76684 (Kcal/Mol)
 Warning -- explicit consideration of  14 degrees of freedom as
           vibrations may cause significant error
 Vibrational temperatures:     77.36   115.24   162.35   175.42   294.37
          (Kelvin)            343.65   364.32   449.82   528.06   566.66
                              583.89   669.56   828.85   867.96   915.93
                              979.96  1116.86  1189.05  1217.75  1251.08
                             1255.32  1298.22  1351.41  1380.13  1404.27
                             1444.75  1476.52  1497.43  1538.44  1553.29
                             1569.49  1617.97  1630.43  1687.62  1737.42
                             1750.64  1781.69  1808.40  1826.08  1845.53
                             1864.02  1867.52  1889.00  1926.70  1939.58
                             1947.02  1971.51  1979.02  2018.92  2071.12
                             2172.55  2186.49  2194.09  2196.63  2200.40
                             2210.34  3398.92  4346.94  4354.46  4361.00
                             4379.12  4409.85  4411.93  4415.88  4426.08
                             4443.01  4465.60  4475.92  4484.83  4500.12
                             4516.04  4527.64

 Zero-point correction=                           0.232294 (Hartree/Particle)
 Thermal correction to Energy=                    0.242854
 Thermal correction to Enthalpy=                  0.243798
 Thermal correction to Gibbs Free Energy=         0.195831
 Sum of electronic and zero-point Energies=           -444.626119
 Sum of electronic and thermal Energies=              -444.615559
 Sum of electronic and thermal Enthalpies=            -444.614615
 Sum of electronic and thermal Free Energies=         -444.662583

                     E (Thermal)             CV                S
                      KCal/Mol        Cal/Mol-Kelvin    Cal/Mol-Kelvin
 Total                  152.393             40.680            100.956
 Electronic               0.000              0.000              0.000
 Translational            0.889              2.981             40.909
 Rotational               0.889              2.981             30.330
 Vibrational            150.616             34.718             29.717
 Vibration     1          0.596              1.976              4.674
 Vibration     2          0.600              1.963              3.889
 Vibration     3          0.607              1.939              3.219
 Vibration     4          0.609              1.931              3.070
 Vibration     5          0.640              1.833              2.091
 Vibration     6          0.657              1.781              1.811
 Vibration     7          0.664              1.757              1.708
 Vibration     8          0.701              1.650              1.348
 Vibration     9          0.740              1.540              1.092
 Vibration    10          0.761              1.483              0.986
 Vibration    11          0.771              1.458              0.941
 Vibration    12          0.823              1.327              0.751
 Vibration    13          0.932              1.083              0.493
 Vibration    14          0.962              1.025              0.444

 Optimization completed.
    -- Stationary point found.
 Normal termination of Gaussian 16 at Tue Dec  8 21:55:42 2020.

 ----------------------------------------------------------------------
 # B3LYP/6-311++G(d,p) empiricaldispersion=gd3bj scf=xqc pop=npa geom=c
 heck
 ----------------------------------------------------------------------

 ---------------------------------------
 CID_142059946_JID_1985_Energie_neutraal
 ---------------------------------------
 Structure from the checkpoint file:  "JID_1985.chk"
 Charge =  0 Multiplicity = 1

 SCF Done:  E(RB3LYP) =  -444.976902062     A.U. after   14 cycles
 Normal termination of Gaussian 16 at Tue Dec  8 21:58:28 2020.

 ----------------------------------------------------------------------
 # B3LYP/6-311++G(d,p) empiricaldispersion=gd3bj scf=xqc pop=npa geom=c
 heck
 ----------------------------------------------------------------------

 -------------------------------------
 CID_142059946_JID_1985_Energie_kation
 -------------------------------------
 Structure from the checkpoint file:  "JID_1985.chk"
 Charge =  1 Multiplicity = 2

 SCF Done:  E(UB3LYP) =  -444.607946497     A.U. after   33 cycles
 SCF Done:  E(UB3LYP) =  -444.607946497     a.u. after    1 cycles
 Normal termination of Gaussian 16 at Tue Dec  8 22:06:56 2020.
 Gaussian 16:  ES64L-G16RevA.03 25-Dec-2016

 ----------------------------------------------------------------------
 # B3LYP/6-311++G(d,p) empiricaldispersion=gd3bj scf=xqc pop=npa geom=c
 heck
 ----------------------------------------------------------------------

 ------------------------------------
 CID_142059946_JID_1985_Energie_anion
 ------------------------------------
 Structure from the checkpoint file:  "JID_1985.chk"
 Charge = -1 Multiplicity = 2

                         Standard orientation:
 ---------------------------------------------------------------------
 Center     Atomic      Atomic             Coordinates (Angstroms)
 Number     Number       Type             X           Y           Z
 ---------------------------------------------------------------------
      1          6           0        2.598974    1.617262   -0.031177
      2          6           0        1.811276    0.344029   -0.393167
      3          6           0        2.654676   -0.843491   -0.190596
      4          7           0        3.317186   -1.779265   -0.007937
      5          6           0        0.494361    0.202546    0.397846
      6          6           0       -0.498539    1.366825    0.160772
      7          6           0       -1.885434    0.766454    0.471910
      8          6           0       -2.865754    0.482563   -0.706457
      9          6           0       -2.929633   -1.010383   -0.280373
     10          6           0       -1.710485   -0.776530    0.648485
     11          6           0       -0.321979   -1.057660    0.052995
     12          1           0        2.841374    1.628400    1.036365
     13          1           0        2.000414    2.503294   -0.259935
     14          1           0        3.534251    1.675517   -0.595145
     15          1           0        1.558037    0.377575   -1.462807
     16          1           0        0.746683    0.168886    1.467183
     17          1           0       -0.263183    2.238986    0.778451
     18          1           0       -0.446424    1.693640   -0.887163
     19          1           0       -2.379541    1.261442    1.312670
     20          1           0       -2.391866    0.629172   -1.683090
     21          1           0       -3.811054    1.033419   -0.700976
     22          1           0       -2.810290   -1.762372   -1.067427
     23          1           0       -3.840178   -1.241117    0.280949
     24          1           0       -1.792344   -1.171350    1.666540
     25          1           0       -0.389158   -1.154411   -1.040554
     26          1           0        0.138198   -1.975924    0.429070
 ---------------------------------------------------------------------

 SCF Done:  E(UB3LYP) =  -444.964108485     A.U. after   31 cycles

 The electronic state is 2-A.
 Alpha  occ. eigenvalues --  -14.21216 -10.11984 -10.11100 -10.08583 -10.07543
 Alpha  occ. eigenvalues --  -10.06917 -10.06817 -10.06674 -10.06637 -10.06393
 Alpha  occ. eigenvalues --  -10.06365  -0.81124  -0.76948  -0.72444  -0.66006
 Alpha  occ. eigenvalues --   -0.61879  -0.57445  -0.53690  -0.52405  -0.47720
 Alpha  occ. eigenvalues --   -0.42807  -0.41785  -0.40008  -0.37476  -0.35033
 Alpha  occ. eigenvalues --   -0.33457  -0.32716  -0.31314  -0.29989  -0.28615
 Alpha  occ. eigenvalues --   -0.27144  -0.26892  -0.26325  -0.25337  -0.24209
 Alpha  occ. eigenvalues --   -0.22868  -0.22149  -0.21429  -0.21259  -0.19744
 Alpha  occ. eigenvalues --   -0.19057   0.04439
 Alpha virt. eigenvalues --    0.06538   0.07296   0.08101   0.08914   0.09434
 Alpha virt. eigenvalues --    0.09818   0.10554   0.10903   0.11423   0.12254
 Alpha virt. eigenvalues --    0.12682   0.12791   0.13231   0.13570   0.14028

  Beta  occ. eigenvalues --  -14.21195 -10.11969 -10.11098 -10.08573 -10.07496
  Beta  occ. eigenvalues --  -10.06907 -10.06810 -10.06657 -10.06624 -10.06373
  Beta  occ. eigenvalues --  -10.06335  -0.81090  -0.76915  -0.72406  -0.65966
  Beta  occ. eigenvalues --   -0.61835  -0.57370  -0.53633  -0.52351  -0.47657
  Beta  occ. eigenvalues --   -0.42766  -0.41728  -0.39947  -0.37423  -0.34993
  Beta  occ. eigenvalues --   -0.33412  -0.32661  -0.31269  -0.29944  -0.28567
  Beta  occ. eigenvalues --   -0.27107  -0.26857  -0.26284  -0.25302  -0.24169
  Beta  occ. eigenvalues --   -0.22800  -0.22107  -0.21403  -0.21221  -0.19707
  Beta  occ. eigenvalues --   -0.19018
  Beta virt. eigenvalues --    0.06877   0.07569   0.07932   0.08671   0.09489
  Beta virt. eigenvalues --    0.10005   0.10405   0.11081   0.11229   0.11859
  Beta virt. eigenvalues --    0.12481   0.12849   0.13024   0.13699   0.14069

 Mulliken charges and spin densities:
               1          2
     1  C    1.352618  -2.035402
     2  C   -0.892291   1.859207
     3  C   -0.046112  -0.564201
     4  N   -0.306728   0.013253
     5  C   -0.616009   0.888796
     6  C    1.743632  -2.558491
     7  C   -1.190880   1.471046
     8  C    1.249978  -1.783214
     9  C   -0.266166  -0.232016
    10  C    0.454664  -0.073502
    11  C    0.571841  -1.566311
    12  H   -0.133198   0.289739
    13  H   -0.458017   0.635924
    14  H   -0.353126   0.520317
    15  H   -0.201388   0.385702
    16  H   -0.205041   0.415810
    17  H   -0.008460   0.162250
    18  H   -0.343861   0.524769
    19  H   -0.878512   1.109989
    20  H   -0.142006   0.264648
    21  H   -0.157039   0.303839
    22  H    0.094110   0.015351
    23  H   -0.257512   0.397002
    24  H   -0.243110   0.457456
    25  H   -0.074410   0.251726
    26  H    0.307022  -0.153686
 Sum of Mulliken charges =  -1.00000   1.00000

 Dipole moment (field-independent basis, Debye):
    X=             -0.3779    Y=             -3.3276    Z=             -1.1919  Tot=              3.5548
 Quadrupole moment (field-independent basis, Debye-Ang):
   XX=           -139.7766   YY=           -116.0610   ZZ=           -102.3999
   XY=              6.1420   XZ=              6.5284   YZ=              0.8660

 Summary of Natural Population Analysis:

                                       Natural Population
                Natural  -----------------------------------------------
    Atom  No    Charge         Core      Valence    Rydberg      Total
 -----------------------------------------------------------------------
      C    1   -0.27561      0.99965     2.26943    0.00652     3.27561
      C    2   -0.16128      0.99950     2.15133    0.01045     3.16128
      C    3    0.17024      0.99965     1.81111    0.01900     2.82976
      N    4   -0.19099      0.99979     2.67988    0.01133     3.69099
      C    5   -0.09854      0.99958     2.08836    0.01060     3.09854
      C    6   -0.19242      0.99961     2.18316    0.00966     3.19242
      C    7   -0.10400      0.99960     2.09297    0.01143     3.10400
      C    8   -0.18596      0.99963     2.17802    0.00830     3.18596
      C    9   -0.18809      0.99963     2.18001    0.00845     3.18809
      C   10   -0.10379      0.99960     2.09349    0.01071     3.10379
      C   11   -0.19196      0.99960     2.18431    0.00804     3.19196
      H   12    0.10148      0.00000     0.39702    0.00150     0.39852
      H   13    0.10871      0.00000     0.38929    0.00200     0.39129
      H   14    0.10354      0.00000     0.39510    0.00135     0.39646
      H   15    0.11741      0.00000     0.38018    0.00241     0.38259
      H   16    0.09831      0.00000     0.39974    0.00195     0.40169
      H   17    0.10762      0.00000     0.39038    0.00200     0.39238
      H   18    0.09697      0.00000     0.40094    0.00209     0.40303
      H   19    0.10445      0.00000     0.39291    0.00264     0.39555
      H   20    0.09449      0.00000     0.40401    0.00150     0.40551
      H   21    0.09912      0.00000     0.39943    0.00146     0.40088
      H   22    0.09246      0.00000     0.40667    0.00086     0.40754
      H   23    0.09855      0.00000     0.40022    0.00122     0.40145
      H   24    0.09879      0.00000     0.39995    0.00126     0.40121
      H   25    0.09391      0.00000     0.40420    0.00189     0.40609
      H   26    0.10659      0.00000     0.39243    0.00098     0.39341
 =======================================================================
   * Total *   -0.00000     10.99584    29.86455    0.13961    41.00000

 Normal termination of Gaussian 16 at Tue Dec  8 22:14:35 2020.
