 Gaussian 16, Revision A.03,

 -----------------------------------------------------------
 # opt freq B3LYP/6-31G(d) empiricaldispersion=gd3bj scf=xqc
 -----------------------------------------------------------

 --------------------------------
 CID_107767330_JID_10107_neutraal
 --------------------------------
 Symbolic Z-matrix:
 Charge =  0 Multiplicity = 1

 SCF Done:  E(RB3LYP) =  -1262.83127808     A.U. after   16 cycles
 SCF Done:  E(RB3LYP) =  -1262.86133932     A.U. after   13 cycles
 SCF Done:  E(RB3LYP) =  -1262.86401670     A.U. after   15 cycles
 SCF Done:  E(RB3LYP) =  -1262.85949441     A.U. after   13 cycles
 SCF Done:  E(RB3LYP) =  -1262.86395114     A.U. after   13 cycles
 SCF Done:  E(RB3LYP) =  -1262.86470877     A.U. after   10 cycles
 SCF Done:  E(RB3LYP) =  -1262.86494808     A.U. after   13 cycles
 SCF Done:  E(RB3LYP) =  -1262.86529136     A.U. after   12 cycles
 SCF Done:  E(RB3LYP) =  -1262.86548933     A.U. after   12 cycles
 SCF Done:  E(RB3LYP) =  -1262.86565081     A.U. after   12 cycles
 SCF Done:  E(RB3LYP) =  -1262.86730851     A.U. after    9 cycles
 SCF Done:  E(RB3LYP) =  -1262.86730873     A.U. after   10 cycles
 SCF Done:  E(RB3LYP) =  -1262.86730894     A.U. after    8 cycles
 SCF Done:  E(RB3LYP) =  -1262.86730910     A.U. after    8 cycles
 SCF Done:  E(RB3LYP) =  -1262.86730913     A.U. after    7 cycles
 Optimization completed.
    -- Stationary point found.
 Normal termination of Gaussian 16 at Sat Dec 12 15:30:51 2020.

 --------------------------------------------------------------------
 #N Geom=AllCheck Guess=TCheck SCRF=Check GenChk RB3LYP/6-31G(d) Freq
 --------------------------------------------------------------------

 Structure from the checkpoint file:  "JID_10107.chk"
 --------------------------------
 CID_107767330_JID_10107_neutraal
 --------------------------------
 Charge =  0 Multiplicity = 1

 SCF Done:  E(RB3LYP) =  -1262.86730913     A.U. after    1 cycles

  Exact polarizability: 230.565  12.034 169.418 -13.687  13.299 148.169
 Approx polarizability: 307.385  27.303 270.631 -23.882  37.913 233.717

                      1                      2                      3
                      A                      A                      A
 Frequencies --     10.1654                20.5015                35.9460
 Red. masses --      7.0895                 4.3941                 3.8940
 Frc consts  --      0.0004                 0.0011                 0.0030
 IR Inten    --      3.2660                 4.6287                 1.6288

                      4                      5                      6
                      A                      A                      A
 Frequencies --     45.6848                63.8239                77.1112
 Red. masses --      3.9419                 6.0571                 3.6055
 Frc consts  --      0.0048                 0.0145                 0.0126
 IR Inten    --      0.4130                 4.2028                 2.1730

                      7                      8                      9
                      A                      A                      A
 Frequencies --     95.0438               103.0339               113.8908
 Red. masses --      3.7694                 5.0605                 4.0319
 Frc consts  --      0.0201                 0.0317                 0.0308
 IR Inten    --      1.1458                 4.1577                 4.5071

                     10                     11                     12
                      A                      A                      A
 Frequencies --    145.6527               162.5239               191.5041
 Red. masses --      6.6371                 4.8124                 3.9525
 Frc consts  --      0.0830                 0.0749                 0.0854
 IR Inten    --      3.5961                 2.6454                 4.7542

                     13                     14                     15
                      A                      A                      A
 Frequencies --    214.2199               235.8686               251.4950
 Red. masses --      2.5316                 1.1467                 3.2699
 Frc consts  --      0.0684                 0.0376                 0.1219
 IR Inten    --      1.6971                 0.1214                 1.2504

                     16                     17                     18
                      A                      A                      A
 Frequencies --    265.6264               272.3366               300.7456
 Red. masses --      2.2112                 1.9832                 1.7781
 Frc consts  --      0.0919                 0.0867                 0.0948
 IR Inten    --      1.1773                 4.0861                 0.7983

                     19                     20                     21
                      A                      A                      A
 Frequencies --    311.4186               312.3356               348.8549
 Red. masses --      2.8778                 4.1384                 3.1013
 Frc consts  --      0.1644                 0.2379                 0.2224
 IR Inten    --      2.7790                 3.9080                 0.3669

                     22                     23                     24
                      A                      A                      A
 Frequencies --    371.1589               387.7683               401.8214
 Red. masses --      4.9948                 2.6896                 3.6928
 Frc consts  --      0.4054                 0.2383                 0.3513
 IR Inten    --      1.8670                 3.2584                 6.7450

                     25                     26                     27
                      A                      A                      A
 Frequencies --    415.5270               426.2455               428.0787
 Red. masses --      2.1746                 3.2059                 3.2464
 Frc consts  --      0.2212                 0.3432                 0.3505
 IR Inten    --      4.3097                 1.2493                17.7071

                     28                     29                     30
                      A                      A                      A
 Frequencies --    455.3968               461.8462               503.6877
 Red. masses --      4.3144                 4.8116                 3.3545
 Frc consts  --      0.5272                 0.6047                 0.5014
 IR Inten    --      9.2484                22.4462                 4.5005

                     31                     32                     33
                      A                      A                      A
 Frequencies --    544.7474               550.0837               606.8193
 Red. masses --      2.9829                 3.6424                 4.8638
 Frc consts  --      0.5215                 0.6494                 1.0552
 IR Inten    --      8.4293                 3.6922                 8.9732

                     34                     35                     36
                      A                      A                      A
 Frequencies --    624.1816               652.8099               696.1326
 Red. masses --      4.7854                 7.0356                 2.7146
 Frc consts  --      1.0985                 1.7666                 0.7751
 IR Inten    --     11.3129                 0.8331                24.8926

                     37                     38                     39
                      A                      A                      A
 Frequencies --    723.9816               752.5561               771.0262
 Red. masses --      3.6544                 3.5793                 2.5867
 Frc consts  --      1.1286                 1.1943                 0.9060
 IR Inten    --      1.0669                10.1975                 9.5770

                     40                     41                     42
                      A                      A                      A
 Frequencies --    839.0230               847.9154               856.4185
 Red. masses --      3.9261                 1.5054                 1.3032
 Frc consts  --      1.6284                 0.6377                 0.5631
 IR Inten    --      2.5310                21.5903                13.9725

                     43                     44                     45
                      A                      A                      A
 Frequencies --    882.0098               894.1228               911.5807
 Red. masses --      1.5169                 2.7990                 2.1864
 Frc consts  --      0.6953                 1.3184                 1.0704
 IR Inten    --      6.8661                25.7911                 4.8535

                     46                     47                     48
                      A                      A                      A
 Frequencies --    948.8587               950.7733               962.1435
 Red. masses --      1.2096                 1.5796                 4.0194
 Frc consts  --      0.6416                 0.8413                 2.1922
 IR Inten    --      1.0821                10.6189                 2.0875

                     49                     50                     51
                      A                      A                      A
 Frequencies --    970.8790               975.3083               978.1682
 Red. masses --      1.7477                 1.4638                 1.4741
 Frc consts  --      0.9706                 0.8204                 0.8310
 IR Inten    --      2.7818                 3.6719                 7.4113

                     52                     53                     54
                      A                      A                      A
 Frequencies --    985.8725               987.8998              1040.0029
 Red. masses --      1.7029                 1.4371                 2.8115
 Frc consts  --      0.9752                 0.8264                 1.7917
 IR Inten    --      3.7949                 2.2861                10.1181

                     55                     56                     57
                      A                      A                      A
 Frequencies --   1042.7512              1049.0286              1091.4451
 Red. masses --      2.3423                 1.9587                 4.2405
 Frc consts  --      1.5005                 1.2700                 2.9762
 IR Inten    --     40.2578                 1.4232               126.7848

                     58                     59                     60
                      A                      A                      A
 Frequencies --   1100.2136              1135.1526              1150.4244
 Red. masses --      3.1504                 1.8369                 1.3242
 Frc consts  --      2.2468                 1.3946                 1.0326
 IR Inten    --     44.5634                24.4040                11.3501

                     61                     62                     63
                      A                      A                      A
 Frequencies --   1152.9841              1205.0187              1216.0195
 Red. masses --      1.8884                 1.6189                 1.3018
 Frc consts  --      1.4791                 1.3850                 1.1342
 IR Inten    --      4.1143                19.3355                37.6237

                     64                     65                     66
                      A                      A                      A
 Frequencies --   1218.5353              1220.3561              1232.6004
 Red. masses --      2.0538                 1.4045                 1.2972
 Frc consts  --      1.7968                 1.2323                 1.1612
 IR Inten    --      0.1132                 3.6823                 3.9137

                     67                     68                     69
                      A                      A                      A
 Frequencies --   1247.4676              1254.1662              1273.0211
 Red. masses --      1.1468                 1.7654                 2.2350
 Frc consts  --      1.0515                 1.6361                 2.1340
 IR Inten    --      1.6673                66.6037               187.9034

                     70                     71                     72
                      A                      A                      A
 Frequencies --   1292.8331              1305.2049              1318.7367
 Red. masses --      2.1791                 2.2170                 2.1669
 Frc consts  --      2.1459                 2.2252                 2.2202
 IR Inten    --    209.9465                20.6389                 3.5542

                     73                     74                     75
                      A                      A                      A
 Frequencies --   1339.8455              1346.9877              1353.7863
 Red. masses --      1.4210                 1.8309                 1.3464
 Frc consts  --      1.5030                 1.9573                 1.4538
 IR Inten    --     20.2297                 4.0011                12.6837

                     76                     77                     78
                      A                      A                      A
 Frequencies --   1370.4963              1379.4413              1394.0219
 Red. masses --      1.2643                 1.9721                 1.3423
 Frc consts  --      1.3991                 2.2110                 1.5368
 IR Inten    --     15.0396                 4.2274                 2.4057

                     79                     80                     81
                      A                      A                      A
 Frequencies --   1418.5519              1425.9150              1434.2566
 Red. masses --      1.4755                 1.3218                 1.2561
 Frc consts  --      1.7494                 1.5835                 1.5224
 IR Inten    --      2.0994                32.7978                 3.5032

                     82                     83                     84
                      A                      A                      A
 Frequencies --   1455.8895              1470.2659              1471.8918
 Red. masses --      1.2292                 2.3708                 1.1802
 Frc consts  --      1.5350                 3.0195                 1.5065
 IR Inten    --      5.2940                 3.5461                10.3466

                     85                     86                     87
                      A                      A                      A
 Frequencies --   1484.7984              1491.2877              1503.8635
 Red. masses --      1.0867                 1.0900                 1.0874
 Frc consts  --      1.4115                 1.4283                 1.4489
 IR Inten    --      3.3930                 7.3707                 3.8068

                     88                     89                     90
                      A                      A                      A
 Frequencies --   1523.9675              1526.7040              1534.3576
 Red. masses --      1.0494                 1.0477                 1.0837
 Frc consts  --      1.4359                 1.4387                 1.5032
 IR Inten    --      3.3100                 4.3977                10.1490

                     91                     92                     93
                      A                      A                      A
 Frequencies --   1539.3353              1551.7591              1565.3806
 Red. masses --      1.0583                 1.0476                 2.4137
 Frc consts  --      1.4774                 1.4862                 3.4847
 IR Inten    --      2.8458                 6.9056               145.1940

                     94                     95                     96
                      A                      A                      A
 Frequencies --   1641.5987              1673.5157              2374.8644
 Red. masses --      6.6359                 5.6454                12.6147
 Frc consts  --     10.5362                 9.3155                41.9183
 IR Inten    --      3.7941                33.4220                 8.3172

                     97                     98                     99
                      A                      A                      A
 Frequencies --   3028.7495              3037.8256              3039.1837
 Red. masses --      1.0772                 1.0653                 1.0577
 Frc consts  --      5.8219                 5.7923                 5.7563
 IR Inten    --      1.6595                 8.2595                10.0766

                    100                    101                    102
                      A                      A                      A
 Frequencies --   3040.6059              3045.7018              3047.8867
 Red. masses --      1.0414                 1.0682                 1.0484
 Frc consts  --      5.6726                 5.8382                 5.7384
 IR Inten    --     21.5214                57.6925                48.5707

                    103                    104                    105
                      A                      A                      A
 Frequencies --   3083.6215              3095.3476              3101.1446
 Red. masses --      1.0955                 1.0647                 1.0633
 Frc consts  --      6.1372                 6.0105                 6.0251
 IR Inten    --      2.9098                 3.0032                 1.9226

                    106                    107                    108
                      A                      A                      A
 Frequencies --   3101.9833              3102.8260              3110.5316
 Red. masses --      1.0952                 1.1000                 1.0999
 Frc consts  --      6.2090                 6.2393                 6.2700
 IR Inten    --      2.9979                 4.9942                60.1177

                    109                    110                    111
                      A                      A                      A
 Frequencies --   3118.9550              3128.5787              3135.5789
 Red. masses --      1.1026                 1.1004                 1.0968
 Frc consts  --      6.3197                 6.3460                 6.3536
 IR Inten    --     31.5629                18.4779                 4.2208

                    112                    113                    114
                      A                      A                      A
 Frequencies --   3169.1998              3169.9405              3183.2954
 Red. masses --      1.1001                 1.1020                 1.0895
 Frc consts  --      6.5099                 6.5243                 6.5050
 IR Inten    --      0.1024                 1.4289                13.0147

                    115                    116                    117
                      A                      A                      A
 Frequencies --   3202.7545              3214.3693              3221.0405
 Red. masses --      1.0887                 1.0939                 1.0942
 Frc consts  --      6.5794                 6.6593                 6.6885
 IR Inten    --      3.2325                 9.4660                 4.4186

 - Thermochemistry -
 -------------------
 Temperature   298.150 Kelvin.  Pressure   1.00000 Atm.
 Atom     1 has atomic number  6 and mass  12.00000

 Molecular mass:   295.12422 amu.
 Principal axes and moments of inertia in atomic units:
                           1         2         3
     Eigenvalues --  3308.37850********************
           X            0.99959  -0.02851  -0.00078
           Y            0.02851   0.99956  -0.00772
           Z            0.00100   0.00769   0.99997
 This molecule is an asymmetric top.
 Rotational symmetry number  1.
 Warning -- assumption of classical behavior for rotation
           may cause significant error
 Rotational temperatures (Kelvin)      0.02618     0.00683     0.00616
 Rotational constants (GHZ):           0.54551     0.14222     0.12833
 Zero-point vibrational energy     900432.1 (Joules/Mol)
                                  215.20844 (Kcal/Mol)
 Warning -- explicit consideration of  33 degrees of freedom as
           vibrations may cause significant error
 Vibrational temperatures:     14.63    29.50    51.72    65.73    91.83
          (Kelvin)            110.95   136.75   148.24   163.86   209.56
                              233.84   275.53   308.21   339.36   361.85
                              382.18   391.83   432.71   448.06   449.38
                              501.92   534.01   557.91   578.13   597.85
                              613.27   615.91   655.21   664.49   724.69
                              783.77   791.45   873.08   898.06   939.25
                             1001.58  1041.65  1082.76  1109.33  1207.17
                             1219.96  1232.20  1269.02  1286.44  1311.56
                             1365.20  1367.95  1384.31  1396.88  1403.25
                             1407.37  1418.45  1421.37  1496.33  1500.29
                             1509.32  1570.35  1582.96  1633.23  1655.20
                             1658.89  1733.75  1749.58  1753.20  1755.82
                             1773.44  1794.83  1804.47  1831.59  1860.10
                             1877.90  1897.37  1927.74  1938.01  1947.80
                             1971.84  1984.71  2005.69  2040.98  2051.57
                             2063.58  2094.70  2115.38  2117.72  2136.29
                             2145.63  2163.72  2192.65  2196.59  2207.60
                             2214.76  2232.64  2252.23  2361.89  2407.82
                             3416.90  4357.69  4370.75  4372.71  4374.75
                             4382.09  4385.23  4436.64  4453.51  4461.86
                             4463.06  4464.27  4475.36  4487.48  4501.33
                             4511.40  4559.77  4560.84  4580.05  4608.05
                             4624.76  4634.36

 Zero-point correction=                           0.342956 (Hartree/Particle)
 Thermal correction to Energy=                    0.363940
 Thermal correction to Enthalpy=                  0.364884
 Thermal correction to Gibbs Free Energy=         0.290322
 Sum of electronic and zero-point Energies=          -1262.524353
 Sum of electronic and thermal Energies=             -1262.503369
 Sum of electronic and thermal Enthalpies=           -1262.502425
 Sum of electronic and thermal Free Energies=        -1262.576987

                     E (Thermal)             CV                S
                      KCal/Mol        Cal/Mol-Kelvin    Cal/Mol-Kelvin
 Total                  228.376             78.347            156.930
 Electronic               0.000              0.000              0.000
 Translational            0.889              2.981             42.944
 Rotational               0.889              2.981             34.734
 Vibrational            226.598             72.385             79.252
 Vibration     1          0.593              1.987              7.978
 Vibration     2          0.593              1.986              6.585
 Vibration     3          0.594              1.982              5.471
 Vibration     4          0.595              1.979              4.996
 Vibration     5          0.597              1.972              4.335
 Vibration     6          0.599              1.964              3.963
 Vibration     7          0.603              1.953              3.553
 Vibration     8          0.605              1.947              3.396
 Vibration     9          0.607              1.938              3.201
 Vibration    10          0.617              1.907              2.728
 Vibration    11          0.623              1.888              2.520
 Vibration    12          0.634              1.852              2.213
 Vibration    13          0.644              1.819              2.007
 Vibration    14          0.655              1.786              1.834
 Vibration    15          0.663              1.760              1.720
 Vibration    16          0.671              1.736              1.624
 Vibration    17          0.675              1.724              1.581
 Vibration    18          0.693              1.672              1.413
 Vibration    19          0.700              1.652              1.355
 Vibration    20          0.701              1.650              1.350
 Vibration    21          0.726              1.578              1.171
 Vibration    22          0.743              1.531              1.075
 Vibration    23          0.756              1.496              1.009
 Vibration    24          0.767              1.466              0.956
 Vibration    25          0.779              1.437              0.907
 Vibration    26          0.788              1.413              0.871
 Vibration    27          0.790              1.409              0.865
 Vibration    28          0.814              1.349              0.780
 Vibration    29          0.820              1.335              0.761
 Vibration    30          0.859              1.242              0.649
 Vibration    31          0.900              1.151              0.555
 Vibration    32          0.905              1.140              0.544
 Vibration    33          0.966              1.017              0.438

 Optimization completed.
    -- Stationary point found.
 Normal termination of Gaussian 16 at Sat Dec 12 15:52:16 2020.

 ----------------------------------------------------------------------
 # B3LYP/6-311++G(d,p) empiricaldispersion=gd3bj scf=xqc pop=npa geom=c
 heck
 ----------------------------------------------------------------------

 ----------------------------------------
 CID_107767330_JID_10107_Energie_neutraal
 ----------------------------------------
 Structure from the checkpoint file:  "JID_10107.chk"
 Charge =  0 Multiplicity = 1

 SCF Done:  E(RB3LYP) =  -1263.13515471     A.U. after   16 cycles
 Normal termination of Gaussian 16 at Sat Dec 12 16:03:26 2020.

 ----------------------------------------------------------------------
 # B3LYP/6-311++G(d,p) empiricaldispersion=gd3bj scf=xqc pop=npa geom=c
 heck
 ----------------------------------------------------------------------

 --------------------------------------
 CID_107767330_JID_10107_Energie_kation
 --------------------------------------
 Structure from the checkpoint file:  "JID_10107.chk"
 Charge =  1 Multiplicity = 2

 SCF Done:  E(UB3LYP) =  -1262.81841479     A.U. after   23 cycles
 Normal termination of Gaussian 16 at Sat Dec 12 16:26:39 2020.
 Gaussian 16:  ES64L-G16RevA.03 25-Dec-2016

 ----------------------------------------------------------------------
 # B3LYP/6-311++G(d,p) empiricaldispersion=gd3bj scf=xqc pop=npa geom=c
 heck
 ----------------------------------------------------------------------

 -------------------------------------
 CID_107767330_JID_10107_Energie_anion
 -------------------------------------
 Structure from the checkpoint file:  "JID_10107.chk"
 Charge = -1 Multiplicity = 2

                         Standard orientation:
 ---------------------------------------------------------------------
 Center     Atomic      Atomic             Coordinates (Angstroms)
 Number     Number       Type             X           Y           Z
 ---------------------------------------------------------------------
      1          6           0       -2.366756    2.545157    0.678892
      2          6           0       -3.487074    1.809714   -0.068296
      3          6           0       -4.637028    2.768483   -0.401391
      4          6           0       -2.991693    1.138124   -1.360206
      5          6           0       -1.872908    0.106842   -1.221756
      6         16           0       -2.362077   -1.440011   -0.388884
      7          8           0       -3.803966   -1.657423   -0.594893
      8          8           0       -1.385179   -2.472221   -0.798243
      9          6           0       -2.117887   -1.194331    1.405245
     10          6           0       -0.664278   -1.253807    1.833940
     11          8           0        0.011775   -0.075125    1.387615
     12          6           0        1.287237   -0.203046    0.874315
     13          6           0        2.239494    0.719262    1.306814
     14          6           0        3.525189    0.691090    0.771223
     15          6           0        3.872269   -0.259835   -0.192070
     16          6           0        2.902710   -1.171286   -0.621474
     17          6           0        1.610081   -1.150408   -0.102110
     18          6           0        5.281873   -0.354217   -0.759811
     19          6           0        6.026167    0.906306   -0.705104
     20          7           0        6.606176    1.909115   -0.640217
     21          1           0       -1.925314    3.320545    0.039392
     22          1           0       -1.559360    1.878422    0.997783
     23          1           0       -2.760366    3.041703    1.573182
     24          1           0       -3.899026    1.026942    0.583558
     25          1           0       -4.292069    3.575558   -1.060407
     26          1           0       -5.456075    2.246299   -0.908363
     27          1           0       -5.040071    3.229919    0.506903
     28          1           0       -3.837672    0.659517   -1.864398
     29          1           0       -2.616547    1.917171   -2.038875
     30          1           0       -1.551104   -0.256352   -2.202993
     31          1           0       -0.993368    0.472524   -0.689086
     32          1           0       -2.592638   -0.253193    1.688281
     33          1           0       -2.685271   -2.019306    1.847742
     34          1           0       -0.612634   -1.289289    2.930088
     35          1           0       -0.192626   -2.153952    1.433791
     36          1           0        1.959236    1.452771    2.055557
     37          1           0        4.260434    1.417808    1.103616
     38          1           0        3.151761   -1.903839   -1.385445
     39          1           0        0.856006   -1.837630   -0.472617
     40          1           0        5.864782   -1.110710   -0.215693
     41          1           0        5.246510   -0.688666   -1.803441
 ---------------------------------------------------------------------

 SCF Done:  E(UB3LYP) =  -1263.12903234     A.U. after   33 cycles
 SCF Done:  E(UB3LYP) =  -1263.12903235     a.u. after    3 cycles

 The electronic state is 2-A.
 Alpha  occ. eigenvalues --  -88.96074 -19.07079 -19.03201 -19.03116 -14.23605
 Alpha  occ. eigenvalues --  -10.15817 -10.15071 -10.14197 -10.13679 -10.13243
 Alpha  occ. eigenvalues --  -10.12821 -10.10906 -10.10173 -10.10001 -10.09557
 Alpha  occ. eigenvalues --  -10.09328 -10.08948 -10.08807 -10.08247 -10.07483
 Alpha  occ. eigenvalues --   -8.02602  -5.98863  -5.98751  -5.98693  -1.02234
 Alpha  occ. eigenvalues --   -0.98601  -0.91973  -0.83407  -0.78358  -0.75098
 Alpha  occ. eigenvalues --   -0.73237  -0.71080  -0.69001  -0.67066  -0.64077
 Alpha  occ. eigenvalues --   -0.60785  -0.60439  -0.57679  -0.53973  -0.51829
 Alpha  occ. eigenvalues --   -0.50599  -0.48351  -0.46339  -0.44465  -0.43420
 Alpha  occ. eigenvalues --   -0.41453  -0.40785  -0.40107  -0.39573  -0.39121
 Alpha  occ. eigenvalues --   -0.38130  -0.37415  -0.36865  -0.36326  -0.35174
 Alpha  occ. eigenvalues --   -0.34777  -0.34433  -0.33771  -0.32013  -0.31528
 Alpha  occ. eigenvalues --   -0.30988  -0.30579  -0.29644  -0.29245  -0.28896
 Alpha  occ. eigenvalues --   -0.27856  -0.26873  -0.26032  -0.25567  -0.25460
 Alpha  occ. eigenvalues --   -0.25288  -0.25095  -0.24465  -0.23837  -0.22302
 Alpha  occ. eigenvalues --   -0.22104  -0.20611  -0.17811  -0.15279   0.03550
 Alpha virt. eigenvalues --    0.04989   0.05643   0.05748   0.06447   0.07123
 Alpha virt. eigenvalues --    0.07284   0.08039   0.08438   0.08695   0.09018
 Alpha virt. eigenvalues --    0.09367   0.09858   0.10095   0.10350   0.10541

  Beta  occ. eigenvalues --  -88.96073 -19.07080 -19.03199 -19.03111 -14.23599
  Beta  occ. eigenvalues --  -10.15787 -10.15067 -10.14167 -10.13677 -10.13218
  Beta  occ. eigenvalues --  -10.12814 -10.10895 -10.10164 -10.09996 -10.09548
  Beta  occ. eigenvalues --  -10.09252 -10.08935 -10.08726 -10.08230 -10.07460
  Beta  occ. eigenvalues --   -8.02600  -5.98862  -5.98750  -5.98692  -1.02226
  Beta  occ. eigenvalues --   -0.98592  -0.91965  -0.83391  -0.78280  -0.75082
  Beta  occ. eigenvalues --   -0.73193  -0.71027  -0.68977  -0.66946  -0.64012
  Beta  occ. eigenvalues --   -0.60742  -0.60396  -0.57629  -0.53851  -0.51775
  Beta  occ. eigenvalues --   -0.50553  -0.48316  -0.46298  -0.44420  -0.43396
  Beta  occ. eigenvalues --   -0.41418  -0.40739  -0.40077  -0.39530  -0.39081
  Beta  occ. eigenvalues --   -0.38095  -0.37358  -0.36828  -0.36287  -0.35146
  Beta  occ. eigenvalues --   -0.34746  -0.34392  -0.33716  -0.31986  -0.31499
  Beta  occ. eigenvalues --   -0.30956  -0.30537  -0.29577  -0.29225  -0.28830
  Beta  occ. eigenvalues --   -0.27820  -0.26804  -0.26005  -0.25543  -0.25443
  Beta  occ. eigenvalues --   -0.25269  -0.25040  -0.24446  -0.23824  -0.22285
  Beta  occ. eigenvalues --   -0.22075  -0.20586  -0.17480  -0.15092
  Beta virt. eigenvalues --    0.05544   0.05741   0.06216   0.06502   0.06696
  Beta virt. eigenvalues --    0.07405   0.07497   0.08352   0.08589   0.08791
  Beta virt. eigenvalues --    0.09307   0.09695   0.09994   0.10164   0.10558

 Mulliken charges and spin densities:
               1          2
     1  C   -0.042246  -0.523470
     2  C   -0.627989   1.030903
     3  C    0.322894  -0.938875
     4  C   -0.232334  -0.725164
     5  C   -0.397026   0.261124
     6  S    0.214649   0.025989
     7  O   -0.089948   0.004141
     8  O   -0.139999  -0.006995
     9  C   -0.029092  -0.631813
    10  C    0.406700  -0.598402
    11  O    0.033745  -0.027148
    12  C   -0.728692   0.193389
    13  C   -0.375268   0.318249
    14  C   -1.130488   0.519735
    15  C    1.115126  -0.182675
    16  C    0.582393  -0.533821
    17  C   -0.669375   0.401429
    18  C    1.080332  -1.389706
    19  C    0.136148  -0.311857
    20  N   -0.311082   0.011028
    21  H   -0.027010   0.171717
    22  H    0.506850  -0.364624
    23  H   -0.300651   0.446571
    24  H    0.087117   0.047371
    25  H    0.075919   0.054489
    26  H   -0.007631   0.148771
    27  H   -0.071279   0.219640
    28  H    0.237737  -0.023858
    29  H   -0.023540   0.180025
    30  H    0.041863   0.231605
    31  H    0.446176  -0.198393
    32  H   -0.019245   0.323982
    33  H   -0.223936   0.497088
    34  H   -0.688607   0.897901
    35  H    0.185747   0.009270
    36  H   -0.065187   0.237550
    37  H    0.066095   0.084181
    38  H   -0.437702   0.626075
    39  H    0.312986  -0.075403
    40  H    0.148323   0.044335
    41  H   -0.362475   0.545644
 Sum of Mulliken charges =  -1.00000   1.00000

 Dipole moment (field-independent basis, Debye):
    X=             -1.6341    Y=             -0.4456    Z=             -0.7391  Tot=              1.8481
 Quadrupole moment (field-independent basis, Debye-Ang):
   XX=           -243.2165   YY=           -180.1353   ZZ=           -174.7311
   XY=            -17.0367   XZ=             18.3999   YZ=             -3.5738

 Summary of Natural Population Analysis:

                                       Natural Population
                Natural  -----------------------------------------------
    Atom  No    Charge         Core      Valence    Rydberg      Total
 -----------------------------------------------------------------------
      C    1   -0.29390      0.99965     2.28749    0.00677     3.29390
      C    2   -0.11986      0.99961     2.11064    0.00961     3.11986
      C    3   -0.28040      0.99965     2.27593    0.00482     3.28040
      C    4   -0.19763      0.99960     2.18924    0.00879     3.19763
      C    5   -0.28876      0.99956     2.27766    0.01154     3.28876
      S    6    1.01403      4.99927     1.89363    0.09308     6.98597
      O    7   -0.46922      0.99991     3.46383    0.00548     4.46922
      O    8   -0.47523      0.99991     3.46978    0.00554     4.47523
      C    9   -0.29828      0.99956     2.28600    0.01272     3.29828
      C   10   -0.01789      0.99953     2.00541    0.01295     3.01789
      O   11   -0.29806      0.99986     3.28623    0.01198     4.29806
      C   12    0.15478      0.99936     1.83361    0.01225     2.84522
      C   13   -0.10028      0.99951     2.09170    0.00906     3.10028
      C   14   -0.09513      0.99952     2.08777    0.00785     3.09513
      C   15   -0.02689      0.99950     2.01694    0.01045     3.02689
      C   16   -0.08028      0.99952     2.07103    0.00973     3.08028
      C   17   -0.13034      0.99950     2.12276    0.00808     3.13034
      C   18   -0.24982      0.99951     2.24261    0.00770     3.24982
      C   19    0.16464      0.99967     1.81883    0.01686     2.83536
      N   20   -0.18591      0.99979     2.67485    0.01127     3.68591
      H   21    0.09645      0.00000     0.40257    0.00098     0.40355
      H   22    0.10685      0.00000     0.39135    0.00180     0.39315
      H   23    0.10216      0.00000     0.39678    0.00106     0.39784
      H   24    0.09466      0.00000     0.40307    0.00227     0.40534
      H   25    0.09534      0.00000     0.40374    0.00093     0.40466
      H   26    0.09916      0.00000     0.39998    0.00086     0.40084
      H   27    0.10105      0.00000     0.39803    0.00092     0.39895
      H   28    0.10944      0.00000     0.38930    0.00126     0.39056
      H   29    0.10273      0.00000     0.39621    0.00106     0.39727
      H   30    0.11942      0.00000     0.37947    0.00112     0.38058
      H   31    0.12348      0.00000     0.37448    0.00204     0.37652
      H   32    0.11851      0.00000     0.37936    0.00214     0.38149
      H   33    0.12389      0.00000     0.37472    0.00140     0.37611
      H   34    0.09670      0.00000     0.40106    0.00224     0.40330
      H   35    0.10079      0.00000     0.39729    0.00193     0.39921
      H   36    0.10680      0.00000     0.39215    0.00106     0.39320
      H   37    0.10544      0.00000     0.39331    0.00125     0.39456
      H   38    0.10177      0.00000     0.39700    0.00123     0.39823
      H   39    0.11923      0.00000     0.37871    0.00206     0.38077
      H   40    0.12180      0.00000     0.37693    0.00126     0.37820
      H   41    0.12877      0.00000     0.36812    0.00311     0.37123
 =======================================================================
   * Total *    0.00000     23.99198    54.69956    0.30846    79.00000

 Normal termination of Gaussian 16 at Sat Dec 12 19:21:25 2020.
