 Gaussian 16, Revision A.03,

 -----------------------------------------------------------
 # opt freq B3LYP/6-31G(d) empiricaldispersion=gd3bj scf=xqc
 -----------------------------------------------------------

 --------------------------------
 CID_152631435_JID_10654_neutraal
 --------------------------------
 Symbolic Z-matrix:
 Charge =  0 Multiplicity = 1

 SCF Done:  E(RB3LYP) =  -837.051250695     A.U. after   16 cycles
 SCF Done:  E(RB3LYP) =  -837.071146987     A.U. after   15 cycles
 SCF Done:  E(RB3LYP) =  -837.072062699     A.U. after   15 cycles
 SCF Done:  E(RB3LYP) =  -837.068682464     A.U. after   16 cycles
 SCF Done:  E(RB3LYP) =  -837.073234667     A.U. after   14 cycles
 SCF Done:  E(RB3LYP) =  -837.073791665     A.U. after   13 cycles
 SCF Done:  E(RB3LYP) =  -837.072616717     A.U. after   17 cycles
 SCF Done:  E(RB3LYP) =  -837.074626047     A.U. after   14 cycles
 SCF Done:  E(RB3LYP) =  -837.074860738     A.U. after   14 cycles
 SCF Done:  E(RB3LYP) =  -837.075010724     A.U. after   13 cycles
 SCF Done:  E(RB3LYP) =  -837.076370889     A.U. after   10 cycles
 SCF Done:  E(RB3LYP) =  -837.076371985     A.U. after   12 cycles
 SCF Done:  E(RB3LYP) =  -837.076373394     A.U. after   11 cycles
 SCF Done:  E(RB3LYP) =  -837.076374162     A.U. after   11 cycles
 SCF Done:  E(RB3LYP) =  -837.076374220     A.U. after    8 cycles
 Optimization completed.
    -- Stationary point found.
 Normal termination of Gaussian 16 at Sun Dec 13 13:26:18 2020.

 --------------------------------------------------------------------
 #N Geom=AllCheck Guess=TCheck SCRF=Check GenChk RB3LYP/6-31G(d) Freq
 --------------------------------------------------------------------

 Structure from the checkpoint file:  "JID_10654.chk"
 --------------------------------
 CID_152631435_JID_10654_neutraal
 --------------------------------
 Charge =  0 Multiplicity = 1

 SCF Done:  E(RB3LYP) =  -837.076374220     A.U. after    1 cycles

  Exact polarizability: 293.330  -8.554 189.522  -2.025  -8.346 109.016
 Approx polarizability: 385.909 -23.180 362.291  -1.746 -18.478 180.021

                      1                      2                      3
                      A                      A                      A
 Frequencies --     10.9419                22.1975                25.3055
 Red. masses --      7.7018                 4.3479                 6.5203
 Frc consts  --      0.0005                 0.0013                 0.0025
 IR Inten    --      0.7169                 0.0426                 0.4131

                      4                      5                      6
                      A                      A                      A
 Frequencies --     31.5366                41.6455                64.5511
 Red. masses --      4.6947                 6.3266                 7.2585
 Frc consts  --      0.0028                 0.0065                 0.0178
 IR Inten    --      0.1139                 0.6573                 2.2448

                      7                      8                      9
                      A                      A                      A
 Frequencies --     79.9578               104.9906               108.1711
 Red. masses --      4.4459                 3.4864                 3.8201
 Frc consts  --      0.0167                 0.0226                 0.0263
 IR Inten    --      0.9980                 2.4652                 4.1355

                     10                     11                     12
                      A                      A                      A
 Frequencies --    171.8926               225.9769               235.2918
 Red. masses --      6.8371                 3.4833                 4.0744
 Frc consts  --      0.1190                 0.1048                 0.1329
 IR Inten    --      0.6644                 3.4693                 1.5653

                     13                     14                     15
                      A                      A                      A
 Frequencies --    238.0725               246.4321               330.3372
 Red. masses --      5.5703                 4.4047                 3.1465
 Frc consts  --      0.1860                 0.1576                 0.2023
 IR Inten    --      2.2383                 0.4523                 1.1801

                     16                     17                     18
                      A                      A                      A
 Frequencies --    378.3207               389.6249               406.5188
 Red. masses --      5.9040                 5.1451                 3.4063
 Frc consts  --      0.4979                 0.4602                 0.3317
 IR Inten    --      2.7256                 8.8683                27.4588

                     19                     20                     21
                      A                      A                      A
 Frequencies --    417.1124               466.3608               483.8857
 Red. masses --      3.0182                 2.7290                 3.0236
 Frc consts  --      0.3094                 0.3497                 0.4171
 IR Inten    --      0.0109                32.8301                39.0941

                     22                     23                     24
                      A                      A                      A
 Frequencies --    503.6988               544.5443               550.1299
 Red. masses --      5.4355                 5.8824                 3.2865
 Frc consts  --      0.8125                 1.0277                 0.5860
 IR Inten    --     18.5762                 1.1506                59.1016

                     25                     26                     27
                      A                      A                      A
 Frequencies --    567.1492               579.7082               627.2213
 Red. masses --     12.5680                 2.9727                 5.1442
 Frc consts  --      2.3818                 0.5886                 1.1924
 IR Inten    --     15.9726                34.7941                 3.5424

                     28                     29                     30
                      A                      A                      A
 Frequencies --    636.1774               647.7346               695.4827
 Red. masses --      6.2775                 4.7126                 7.0074
 Frc consts  --      1.4969                 1.1650                 1.9970
 IR Inten    --      0.0787                 4.8606                 5.5395

                     31                     32                     33
                      A                      A                      A
 Frequencies --    700.4415               715.1094               745.6289
 Red. masses --      2.1701                 2.0292                 4.8516
 Frc consts  --      0.6273                 0.6114                 1.5892
 IR Inten    --      7.8136                15.9395                26.8734

                     34                     35                     36
                      A                      A                      A
 Frequencies --    767.0232               793.9846               841.6596
 Red. masses --      1.8442                 1.4542                 4.1741
 Frc consts  --      0.6393                 0.5401                 1.7421
 IR Inten    --     20.0488                37.5669                 7.5953

                     37                     38                     39
                      A                      A                      A
 Frequencies --    859.6971               863.9937               870.2215
 Red. masses --      1.6095                 1.2475                 6.5067
 Frc consts  --      0.7009                 0.5487                 2.9031
 IR Inten    --     18.0494                 0.0519                30.5903

                     40                     41                     42
                      A                      A                      A
 Frequencies --    883.4575               924.2279               939.7498
 Red. masses --      1.3907                 1.6016                 2.7602
 Frc consts  --      0.6395                 0.8061                 1.4362
 IR Inten    --      1.2017                 2.5466                 4.3888

                     43                     44                     45
                      A                      A                      A
 Frequencies --    966.8471               971.1832               990.7370
 Red. masses --      1.2582                 1.3492                 1.7207
 Frc consts  --      0.6930                 0.7498                 0.9951
 IR Inten    --      0.2718                 0.1609                 6.4931

                     46                     47                     48
                      A                      A                      A
 Frequencies --    998.2589              1011.1971              1016.7892
 Red. masses --      1.2538                 4.6923                 2.3413
 Frc consts  --      0.7362                 2.8269                 1.4262
 IR Inten    --      1.1332                 6.5872                 3.7438

                     49                     50                     51
                      A                      A                      A
 Frequencies --   1024.5852              1056.0554              1060.6473
 Red. masses --      3.7735                 2.5326                 2.1906
 Frc consts  --      2.3339                 1.6641                 1.4519
 IR Inten    --      5.7752                13.0198                 5.0746

                     52                     53                     54
                      A                      A                      A
 Frequencies --   1105.9232              1119.7366              1144.8994
 Red. masses --      2.5205                 1.5901                 2.1171
 Frc consts  --      1.8163                 1.1747                 1.6351
 IR Inten    --     14.8598                 2.6506                14.1362

                     55                     56                     57
                      A                      A                      A
 Frequencies --   1194.4936              1205.4681              1213.5496
 Red. masses --      1.1000                 1.1133                 1.1305
 Frc consts  --      0.9247                 0.9531                 0.9810
 IR Inten    --      0.1407                 6.8120                 2.2492

                     58                     59                     60
                      A                      A                      A
 Frequencies --   1237.7295              1246.9110              1248.9929
 Red. masses --      2.1980                 1.1368                 1.2928
 Frc consts  --      1.9839                 1.0414                 1.1883
 IR Inten    --      9.0756                10.3184                 3.0205

                     61                     62                     63
                      A                      A                      A
 Frequencies --   1264.0643              1298.5895              1309.7361
 Red. masses --      1.8860                 2.7720                 2.3551
 Frc consts  --      1.7755                 2.7541                 2.3802
 IR Inten    --     35.5906               182.0210                17.4911

                     64                     65                     66
                      A                      A                      A
 Frequencies --   1345.7087              1357.1707              1368.0394
 Red. masses --      1.7521                 2.7039                 1.8253
 Frc consts  --      1.8694                 2.9343                 2.0127
 IR Inten    --     19.4598                 6.4478                 0.7669

                     67                     68                     69
                      A                      A                      A
 Frequencies --   1377.8959              1398.0303              1410.1779
 Red. masses --      3.0621                 1.8121                 1.6290
 Frc consts  --      3.4254                 2.0867                 1.9086
 IR Inten    --     25.5644                43.8684                 7.5925

                     70                     71                     72
                      A                      A                      A
 Frequencies --   1473.4022              1503.5909              1515.1724
 Red. masses --      3.3626                 2.1702                 1.0973
 Frc consts  --      4.3010                 2.8908                 1.4842
 IR Inten    --    115.8482                 7.7208                 1.9711

                     73                     74                     75
                      A                      A                      A
 Frequencies --   1520.2037              1545.6478              1551.5681
 Red. masses --      1.8042                 1.4074                 1.5943
 Frc consts  --      2.4566                 1.9811                 2.2613
 IR Inten    --      0.8524                46.8987                13.5152

                     76                     77                     78
                      A                      A                      A
 Frequencies --   1559.6654              1637.2633              1648.4345
 Red. masses --      2.0503                 4.9949                 5.5953
 Frc consts  --      2.9386                 7.8889                 8.9582
 IR Inten    --    129.1910                61.2427                 4.3272

                     79                     80                     81
                      A                      A                      A
 Frequencies --   1662.9642              1670.2866              2266.3285
 Red. masses --      5.4872                 5.6050                13.7140
 Frc consts  --      8.9405                 9.2132                41.5013
 IR Inten    --    208.2922                 0.0034               341.8483

                     82                     83                     84
                      A                      A                      A
 Frequencies --   2348.1701              2985.0049              3029.5595
 Red. masses --     11.9059                 1.0694                 1.0705
 Frc consts  --     38.6787                 5.6143                 5.7891
 IR Inten    --     18.4986                43.3827                37.1507

                     85                     86                     87
                      A                      A                      A
 Frequencies --   3040.9357              3100.1669              3176.9795
 Red. masses --      1.0918                 1.0923                 1.0876
 Frc consts  --      5.9487                 6.1854                 6.4677
 IR Inten    --     22.6108                11.6734                10.9305

                     88                     89                     90
                      A                      A                      A
 Frequencies --   3180.0398              3186.5834              3195.9807
 Red. masses --      1.0860                 1.0870                 1.0906
 Frc consts  --      6.4707                 6.5034                 6.5632
 IR Inten    --      6.1772                 0.1396                17.9643

                     91                     92                     93
                      A                      A                      A
 Frequencies --   3199.2994              3204.1155              3212.7150
 Red. masses --      1.0918                 1.0940                 1.0981
 Frc consts  --      6.5839                 6.6176                 6.6775
 IR Inten    --     20.4266                33.2872                19.6108

                     94                     95                     96
                      A                      A                      A
 Frequencies --   3223.7605              3232.2101              3581.5020
 Red. masses --      1.0944                 1.0899                 1.0759
 Frc consts  --      6.7010                 6.7088                 8.1309
 IR Inten    --      7.3965                 8.2660                18.0940

 - Thermochemistry -
 -------------------
 Temperature   298.150 Kelvin.  Pressure   1.00000 Atm.
 Atom     1 has atomic number  6 and mass  12.00000

 Molecular mass:   262.12185 amu.
 Principal axes and moments of inertia in atomic units:
                           1         2         3
     Eigenvalues --  1985.30597********************
           X            1.00000   0.00029  -0.00115
           Y           -0.00029   1.00000  -0.00283
           Z            0.00115   0.00283   1.00000
 This molecule is an asymmetric top.
 Rotational symmetry number  1.
 Warning -- assumption of classical behavior for rotation
           may cause significant error
 Rotational temperatures (Kelvin)      0.04363     0.00504     0.00465
 Rotational constants (GHZ):           0.90905     0.10509     0.09691
 Zero-point vibrational energy     706581.1 (Joules/Mol)
                                  168.87693 (Kcal/Mol)
 Warning -- explicit consideration of  26 degrees of freedom as
           vibrations may cause significant error
 Vibrational temperatures:     15.74    31.94    36.41    45.37    59.92
          (Kelvin)             92.87   115.04   151.06   155.63   247.32
                              325.13   338.53   342.53   354.56   475.28
                              544.32   560.58   584.89   600.13   670.99
                              696.20   724.71   783.48   791.51   816.00
                              834.07   902.43   915.32   931.95  1000.64
                             1007.78  1028.88  1072.79  1103.58  1142.37
                             1210.96  1236.91  1243.09  1252.05  1271.10
                             1329.76  1352.09  1391.08  1397.32  1425.45
                             1436.27  1454.89  1462.93  1474.15  1519.43
                             1526.03  1591.18  1611.05  1647.25  1718.61
                             1734.40  1746.03  1780.82  1794.03  1797.02
                             1818.71  1868.38  1884.42  1936.17  1952.67
                             1968.30  1982.48  2011.45  2028.93  2119.90
                             2163.33  2180.00  2187.23  2223.84  2232.36
                             2244.01  2355.66  2371.73  2392.63  2403.17
                             3260.74  3378.49  4294.76  4358.86  4375.23
                             4460.45  4570.96  4575.37  4584.78  4598.30
                             4603.08  4610.01  4622.38  4638.27  4650.43
                             5152.98

 Zero-point correction=                           0.269123 (Hartree/Particle)
 Thermal correction to Energy=                    0.287139
 Thermal correction to Enthalpy=                  0.288083
 Thermal correction to Gibbs Free Energy=         0.217754
 Sum of electronic and zero-point Energies=           -836.807252
 Sum of electronic and thermal Energies=              -836.789235
 Sum of electronic and thermal Enthalpies=            -836.788291
 Sum of electronic and thermal Free Energies=         -836.858620

                     E (Thermal)             CV                S
                      KCal/Mol        Cal/Mol-Kelvin    Cal/Mol-Kelvin
 Total                  180.183             66.707            148.021
 Electronic               0.000              0.000              0.000
 Translational            0.889              2.981             42.590
 Rotational               0.889              2.981             34.806
 Vibrational            178.405             60.745             70.624
 Vibration     1          0.593              1.987              7.832
 Vibration     2          0.593              1.985              6.427
 Vibration     3          0.593              1.985              6.167
 Vibration     4          0.594              1.983              5.730
 Vibration     5          0.594              1.981              5.179
 Vibration     6          0.597              1.971              4.313
 Vibration     7          0.600              1.963              3.892
 Vibration     8          0.605              1.945              3.359
 Vibration     9          0.606              1.943              3.301
 Vibration    10          0.626              1.877              2.415
 Vibration    11          0.650              1.801              1.911
 Vibration    12          0.655              1.787              1.838
 Vibration    13          0.656              1.782              1.817
 Vibration    14          0.661              1.769              1.756
 Vibration    15          0.713              1.615              1.258
 Vibration    16          0.749              1.516              1.046
 Vibration    17          0.758              1.492              1.002
 Vibration    18          0.771              1.456              0.939
 Vibration    19          0.780              1.433              0.902
 Vibration    20          0.824              1.325              0.748
 Vibration    21          0.840              1.286              0.700
 Vibration    22          0.859              1.242              0.649
 Vibration    23          0.900              1.152              0.556
 Vibration    24          0.905              1.139              0.544
 Vibration    25          0.923              1.102              0.510
 Vibration    26          0.936              1.075              0.486

                           ! Non-Optimized Parameters !
 Normal termination of Gaussian 16 at Sun Dec 13 13:39:15 2020.

 ----------------------------------------------------------------------
 # B3LYP/6-311++G(d,p) empiricaldispersion=gd3bj scf=xqc pop=npa geom=c
 heck
 ----------------------------------------------------------------------

 ----------------------------------------
 CID_152631435_JID_10654_Energie_neutraal
 ----------------------------------------
 Structure from the checkpoint file:  "JID_10654.chk"
 Charge =  0 Multiplicity = 1

 SCF Done:  E(RB3LYP) =  -837.297785106     A.U. after   16 cycles
 Normal termination of Gaussian 16 at Sun Dec 13 13:44:42 2020.

 ----------------------------------------------------------------------
 # B3LYP/6-311++G(d,p) empiricaldispersion=gd3bj scf=xqc pop=npa geom=c
 heck
 ----------------------------------------------------------------------

 --------------------------------------
 CID_152631435_JID_10654_Energie_kation
 --------------------------------------
 Structure from the checkpoint file:  "JID_10654.chk"
 Charge =  1 Multiplicity = 2

 SCF Done:  E(UB3LYP) =  -837.024355039     A.U. after   28 cycles
 Normal termination of Gaussian 16 at Sun Dec 13 13:57:19 2020.
 Gaussian 16:  ES64L-G16RevA.03 25-Dec-2016

 ----------------------------------------------------------------------
 # B3LYP/6-311++G(d,p) empiricaldispersion=gd3bj scf=xqc pop=npa geom=c
 heck
 ----------------------------------------------------------------------

 -------------------------------------
 CID_152631435_JID_10654_Energie_anion
 -------------------------------------
 Structure from the checkpoint file:  "JID_10654.chk"
 Charge = -1 Multiplicity = 2

                         Standard orientation:
 ---------------------------------------------------------------------
 Center     Atomic      Atomic             Coordinates (Angstroms)
 Number     Number       Type             X           Y           Z
 ---------------------------------------------------------------------
      1          6           0       -6.600792   -0.650964   -0.100071
      2          6           0       -5.931224   -1.255170    0.963409
      3          6           0       -4.537299   -1.210683    1.027357
      4          6           0       -3.798928   -0.570909    0.028257
      5          6           0       -4.479202    0.034686   -1.036679
      6          6           0       -5.870632   -0.003811   -1.099920
      7          6           0       -2.289727   -0.529054    0.087526
      8          7           0       -1.813619    0.841845   -0.034884
      9          6           0       -0.460170    1.147891    0.050330
     10          6           0       -0.066631    2.489010    0.233749
     11          6           0        1.278172    2.833538    0.281970
     12          6           0        2.272104    1.865043    0.147188
     13          6           0        1.893979    0.525129   -0.032451
     14          6           0        0.535157    0.168089   -0.073640
     15          6           0        2.899851   -0.479150   -0.164202
     16          6           0        3.755474   -1.330007   -0.276295
     17          6           0        4.900159   -2.223901   -0.390130
     18          7           0        6.168689   -1.659373    0.165119
     19          7           0        6.269260   -0.431108    0.095229
     20          7           0        6.458120    0.694751    0.097799
     21          1           0       -7.685517   -0.681760   -0.150210
     22          1           0       -6.491937   -1.756507    1.747293
     23          1           0       -4.017383   -1.676285    1.861008
     24          1           0       -3.907829    0.539420   -1.810638
     25          1           0       -6.386687    0.468562   -1.931187
     26          1           0       -1.935959   -1.009363    1.014982
     27          1           0       -1.871694   -1.110672   -0.745192
     28          1           0       -2.421279    1.517594    0.411252
     29          1           0       -0.831210    3.256137    0.331264
     30          1           0        1.556544    3.873636    0.426108
     31          1           0        3.323777    2.126577    0.184037
     32          1           0        0.275054   -0.875226   -0.201997
     33          1           0        4.739227   -3.154816    0.161945
     34          1           0        5.076001   -2.498520   -1.439888
 ---------------------------------------------------------------------

 SCF Done:  E(UB3LYP) =  -837.298220221     A.U. after   33 cycles
 SCF Done:  E(UB3LYP) =  -837.298220221     a.u. after    2 cycles

 The electronic state is 2-A.
 Alpha  occ. eigenvalues --  -14.35080 -14.25393 -14.24453 -14.22748 -10.13331
 Alpha  occ. eigenvalues --  -10.11788 -10.11060 -10.09634 -10.09205 -10.09135
 Alpha  occ. eigenvalues --  -10.08919 -10.08841 -10.08556 -10.08217 -10.06904
 Alpha  occ. eigenvalues --  -10.06294 -10.06221 -10.05990 -10.05873 -10.05715
 Alpha  occ. eigenvalues --   -1.01926  -0.86350  -0.84383  -0.77403  -0.74634
 Alpha  occ. eigenvalues --   -0.69230  -0.68259  -0.66357  -0.65862  -0.63236
 Alpha  occ. eigenvalues --   -0.60666  -0.58405  -0.52541  -0.52420  -0.50481
 Alpha  occ. eigenvalues --   -0.48914  -0.46121  -0.44172  -0.42875  -0.41031
 Alpha  occ. eigenvalues --   -0.40154  -0.39812  -0.38440  -0.37621  -0.36906
 Alpha  occ. eigenvalues --   -0.36018  -0.34823  -0.34228  -0.34105  -0.33203
 Alpha  occ. eigenvalues --   -0.33079  -0.32497  -0.32165  -0.31282  -0.28493
 Alpha  occ. eigenvalues --   -0.27673  -0.26428  -0.26106  -0.25820  -0.24738
 Alpha  occ. eigenvalues --   -0.22272  -0.20657  -0.18394  -0.17406  -0.16828
 Alpha  occ. eigenvalues --   -0.16606  -0.14492  -0.13039  -0.10476   0.03758
 Alpha virt. eigenvalues --    0.04962   0.05918   0.06455   0.06758   0.06850
 Alpha virt. eigenvalues --    0.07273   0.08078   0.08116   0.09284   0.09290
 Alpha virt. eigenvalues --    0.09766   0.10176   0.10390   0.11116   0.11466

  Beta  occ. eigenvalues --  -14.34872 -14.25080 -14.24487 -14.22746 -10.13259
  Beta  occ. eigenvalues --  -10.11787 -10.11076 -10.09593 -10.09213 -10.09145
  Beta  occ. eigenvalues --  -10.08863 -10.08791 -10.08499 -10.08094 -10.06897
  Beta  occ. eigenvalues --  -10.06284 -10.06161 -10.05842 -10.05839 -10.05611
  Beta  occ. eigenvalues --   -1.01506  -0.86128  -0.84359  -0.77316  -0.74466
  Beta  occ. eigenvalues --   -0.69042  -0.68097  -0.66271  -0.65617  -0.63113
  Beta  occ. eigenvalues --   -0.60531  -0.58305  -0.52458  -0.52176  -0.50372
  Beta  occ. eigenvalues --   -0.48842  -0.45965  -0.44035  -0.42799  -0.40437
  Beta  occ. eigenvalues --   -0.39869  -0.39756  -0.38357  -0.37509  -0.36828
  Beta  occ. eigenvalues --   -0.35814  -0.34490  -0.34062  -0.33854  -0.33163
  Beta  occ. eigenvalues --   -0.32973  -0.32404  -0.31615  -0.31226  -0.28252
  Beta  occ. eigenvalues --   -0.27376  -0.26342  -0.26030  -0.25764  -0.24670
  Beta  occ. eigenvalues --   -0.21861  -0.20100  -0.18021  -0.17231  -0.16671
  Beta  occ. eigenvalues --   -0.16318  -0.14349  -0.12531  -0.10017
  Beta virt. eigenvalues --    0.05528   0.06572   0.06849   0.06912   0.07037
  Beta virt. eigenvalues --    0.07417   0.07491   0.08167   0.08929   0.09367
  Beta virt. eigenvalues --    0.09576   0.09820   0.10224   0.10467   0.11096

 Mulliken charges and spin densities:
               1          2
     1  C   -0.061771  -0.312702
     2  C    0.356369  -0.583816
     3  C   -1.180862   0.618073
     4  C    0.465245   0.018466
     5  C   -0.860306   0.712358
     6  C    0.194056  -0.397524
     7  C    0.744763  -0.932809
     8  N    0.108168  -0.005490
     9  C   -0.251493  -0.218427
    10  C   -0.103270   0.004530
    11  C   -0.593565   0.013290
    12  C   -0.959574   0.043101
    13  C    0.509183   0.248213
    14  C    0.196362   0.158743
    15  C    0.276882  -0.010957
    16  C   -0.101631   0.344886
    17  C   -0.195079  -0.407851
    18  N   -0.303491   0.043696
    19  N    0.365784   0.049929
    20  N   -0.250139   0.161647
    21  H   -0.304459   0.455903
    22  H   -0.145257   0.301571
    23  H    0.027053   0.119012
    24  H    0.140102   0.045310
    25  H   -0.043247   0.201617
    26  H    0.139950   0.010979
    27  H    0.050568   0.116308
    28  H    0.210598  -0.004756
    29  H    0.078678   0.013237
    30  H    0.140246  -0.001079
    31  H    0.111527  -0.003025
    32  H    0.050867   0.014662
    33  H    0.053721   0.153908
    34  H    0.134024   0.028997
 Sum of Mulliken charges =  -1.00000   1.00000

 Dipole moment (field-independent basis, Debye):
    X=             -3.1228    Y=              0.5165    Z=             -0.2743  Tot=              3.1771
 Quadrupole moment (field-independent basis, Debye-Ang):
   XX=           -271.3324   YY=           -137.5715   ZZ=           -131.5752
   XY=             -6.3004   XZ=             -4.1271   YZ=              1.2339

 Summary of Natural Population Analysis:

                                       Natural Population
                Natural  -----------------------------------------------
    Atom  No    Charge         Core      Valence    Rydberg      Total
 -----------------------------------------------------------------------
      C    1   -0.09956      0.99957     2.08988    0.01011     3.09956
      C    2   -0.09321      0.99957     2.08345    0.01019     3.09321
      C    3   -0.10387      0.99951     2.09499    0.00936     3.10387
      C    4   -0.01700      0.99951     2.00799    0.00951     3.01700
      C    5   -0.09165      0.99951     2.08307    0.00907     3.09165
      C    6   -0.10325      0.99957     2.09373    0.00995     3.10325
      C    7   -0.09187      0.99959     2.08210    0.01018     3.09187
      N    8   -0.31277      0.99967     2.80389    0.00920     3.81277
      C    9    0.08583      0.99950     1.90433    0.01034     2.91417
      C   10   -0.09780      0.99954     2.08903    0.00923     3.09780
      C   11   -0.09723      0.99958     2.08867    0.00899     3.09723
      C   12   -0.11998      0.99959     2.10343    0.01696     3.11998
      C   13    0.01559      0.99951     1.97249    0.01241     2.98441
      C   14   -0.12953      0.99955     2.11298    0.01700     3.12953
      C   15    0.03640      0.99933     1.95155    0.01272     2.96360
      C   16   -0.03311      0.99934     2.02200    0.01177     3.03311
      C   17   -0.11976      0.99954     2.10847    0.01174     3.11976
      N   18   -0.20517      0.99972     2.69016    0.01528     3.70517
      N   19    0.12839      0.99971     2.35494    0.01696     3.37161
      N   20   -0.01303      0.99982     2.50053    0.01268     3.51303
      H   21    0.09988      0.00000     0.39907    0.00105     0.40012
      H   22    0.09919      0.00000     0.39986    0.00095     0.40081
      H   23    0.09973      0.00000     0.39923    0.00104     0.40027
      H   24    0.10507      0.00000     0.39379    0.00114     0.39493
      H   25    0.09922      0.00000     0.39992    0.00086     0.40078
      H   26    0.08560      0.00000     0.41093    0.00347     0.41440
      H   27    0.10078      0.00000     0.39787    0.00135     0.39922
      H   28    0.18343      0.00000     0.31412    0.00245     0.31657
      H   29    0.09214      0.00000     0.40653    0.00133     0.40786
      H   30    0.09515      0.00000     0.40386    0.00099     0.40485
      H   31    0.10366      0.00000     0.39455    0.00178     0.39634
      H   32    0.10153      0.00000     0.39698    0.00149     0.39847
      H   33    0.10748      0.00000     0.39051    0.00202     0.39252
      H   34    0.10008      0.00000     0.39838    0.00154     0.39992
 =======================================================================
   * Total *    0.01037     19.99122    48.74328    0.25513    68.98963

 Normal termination of Gaussian 16 at Sun Dec 13 14:31:03 2020.
