 Gaussian 16, Revision A.03,

 -----------------------------------------------------------
 # opt freq B3LYP/6-31G(d) empiricaldispersion=gd3bj scf=xqc
 -----------------------------------------------------------

 ------------------------------
 CID_57075576_JID_5990_neutraal
 ------------------------------
 Symbolic Z-matrix:
 Charge =  0 Multiplicity = 1

 SCF Done:  E(RB3LYP) =  -969.789050154     A.U. after   15 cycles
 SCF Done:  E(RB3LYP) =  -969.797796396     A.U. after   13 cycles
 SCF Done:  E(RB3LYP) =  -969.799028547     A.U. after   13 cycles
 SCF Done:  E(RB3LYP) =  -969.799353547     A.U. after   12 cycles
 SCF Done:  E(RB3LYP) =  -969.799417459     A.U. after   12 cycles
 SCF Done:  E(RB3LYP) =  -969.799492506     A.U. after   11 cycles
 SCF Done:  E(RB3LYP) =  -969.799503897     A.U. after    9 cycles
 SCF Done:  E(RB3LYP) =  -969.799504454     A.U. after    8 cycles
 SCF Done:  E(RB3LYP) =  -969.799504592     A.U. after    7 cycles
 Optimization completed.
    -- Stationary point found.
 Normal termination of Gaussian 16 at Thu Dec 10 17:41:05 2020.

 --------------------------------------------------------------------
 #N Geom=AllCheck Guess=TCheck SCRF=Check GenChk RB3LYP/6-31G(d) Freq
 --------------------------------------------------------------------

 Structure from the checkpoint file:  "JID_5990.chk"
 ------------------------------
 CID_57075576_JID_5990_neutraal
 ------------------------------
 Charge =  0 Multiplicity = 1

 SCF Done:  E(RB3LYP) =  -969.799504592     A.U. after    1 cycles

  Exact polarizability: 274.929  -5.985 144.788   1.515  -2.308  58.422
 Approx polarizability: 424.515 -32.605 289.926   3.947  -4.430  96.720

                      1                      2                      3
                      A                      A                      A
 Frequencies --     46.9383                64.3446               103.1140
 Red. masses --      5.5494                 5.0429                 6.5486
 Frc consts  --      0.0072                 0.0123                 0.0410
 IR Inten    --      0.8638                 1.7418                 1.3879

                      4                      5                      6
                      A                      A                      A
 Frequencies --    172.0754               186.2204               266.1974
 Red. masses --      5.9479                 4.8513                 9.9459
 Frc consts  --      0.1038                 0.0991                 0.4152
 IR Inten    --      0.7636                 2.2380                 0.1366

                      7                      8                      9
                      A                      A                      A
 Frequencies --    300.5088               332.1862               401.4208
 Red. masses --      5.6942                 5.3585                 3.9982
 Frc consts  --      0.3030                 0.3484                 0.3796
 IR Inten    --      4.0685                 1.9140                 0.2310

                     10                     11                     12
                      A                      A                      A
 Frequencies --    451.2296               473.6120               482.6209
 Red. masses --      4.7216                 4.3095                 3.0041
 Frc consts  --      0.5664                 0.5695                 0.4123
 IR Inten    --      0.8711                 1.1893                 0.6088

                     13                     14                     15
                      A                      A                      A
 Frequencies --    528.4841               551.1482               591.3089
 Red. masses --      7.7985                 5.0356                 9.2985
 Frc consts  --      1.2833                 0.9012                 1.9155
 IR Inten    --      1.5462                 8.0994                 3.5608

                     16                     17                     18
                      A                      A                      A
 Frequencies --    644.0663               652.5302               664.0725
 Red. masses --      3.7939                 6.7494                 6.7796
 Frc consts  --      0.9273                 1.6932                 1.7615
 IR Inten    --      3.6687                 1.1107                 1.8567

                     19                     20                     21
                      A                      A                      A
 Frequencies --    686.9271               692.1434               789.8027
 Red. masses --      1.2965                 2.5052                 1.6753
 Frc consts  --      0.3605                 0.7071                 0.6157
 IR Inten    --      3.1633                 4.1872                63.2639

                     22                     23                     24
                      A                      A                      A
 Frequencies --    796.8181               801.7510               806.6275
 Red. masses --      3.6457                 3.5056                 5.2523
 Frc consts  --      1.3638                 1.3277                 2.0135
 IR Inten    --     15.9693                 1.9355                 0.9739

                     25                     26                     27
                      A                      A                      A
 Frequencies --    825.9762               859.7299               876.6177
 Red. masses --      1.5646                 5.0620                 1.6197
 Frc consts  --      0.6289                 2.2044                 0.7334
 IR Inten    --      4.2190                50.2256                29.4759

                     28                     29                     30
                      A                      A                      A
 Frequencies --    889.2121               897.3455               930.0871
 Red. masses --      3.6184                 1.3320                 1.5235
 Frc consts  --      1.6857                 0.6320                 0.7765
 IR Inten    --      2.8370                 0.6382                12.8023

                     31                     32                     33
                      A                      A                      A
 Frequencies --    945.8180               975.3513               983.0831
 Red. masses --      4.3655                 1.3046                 4.6973
 Frc consts  --      2.3009                 0.7312                 2.6747
 IR Inten    --      0.8633                 0.0530                 0.0333

                     34                     35                     36
                      A                      A                      A
 Frequencies --    985.4091              1063.2083              1065.3140
 Red. masses --      1.3426                 2.9709                 2.1139
 Frc consts  --      0.7681                 1.9787                 1.4135
 IR Inten    --      0.7390                 0.7558                 1.5695

                     37                     38                     39
                      A                      A                      A
 Frequencies --   1126.3753              1160.3585              1185.1925
 Red. masses --      1.1160                 2.4083                 1.5024
 Frc consts  --      0.8342                 1.9105                 1.2434
 IR Inten    --      5.1952                10.1354                 8.1970

                     40                     41                     42
                      A                      A                      A
 Frequencies --   1212.9694              1234.0702              1271.7747
 Red. masses --      1.8864                 1.5091                 1.6310
 Frc consts  --      1.6353                 1.3540                 1.5542
 IR Inten    --     20.7584                 1.0990                 5.2568

                     43                     44                     45
                      A                      A                      A
 Frequencies --   1291.5073              1311.4064              1328.4300
 Red. masses --      1.7278                 2.3191                 2.3735
 Frc consts  --      1.6980                 2.3499                 2.4679
 IR Inten    --      2.9616                 6.4757                 0.4965

                     46                     47                     48
                      A                      A                      A
 Frequencies --   1401.6862              1429.0816              1448.4212
 Red. masses --      5.6318                 4.7024                 2.7086
 Frc consts  --      6.5193                 5.6583                 3.3480
 IR Inten    --     11.5574                17.6612                24.9161

                     49                     50                     51
                      A                      A                      A
 Frequencies --   1479.6763              1492.9048              1547.4756
 Red. masses --      5.7312                 2.6697                 3.5692
 Frc consts  --      7.3931                 3.5057                 5.0358
 IR Inten    --      1.9146                16.5971                16.5598

                     52                     53                     54
                      A                      A                      A
 Frequencies --   1572.2576              1605.4542              1635.6611
 Red. masses --      5.8540                 6.7304                 5.7680
 Frc consts  --      8.5261                10.2209                 9.0920
 IR Inten    --      2.0069                 3.9903                12.6594

                     55                     56                     57
                      A                      A                      A
 Frequencies --   1680.5981              3188.3077              3191.9070
 Red. masses --      6.2663                 1.0881                 1.0888
 Frc consts  --     10.4277                 6.5169                 6.5356
 IR Inten    --     41.4997                 4.1411                 8.6554

                     58                     59                     60
                      A                      A                      A
 Frequencies --   3211.2030              3215.8897              3223.0098
 Red. masses --      1.0939                 1.0956                 1.0910
 Frc consts  --      6.6463                 6.6759                 6.6771
 IR Inten    --     13.1223                28.0654                 2.5846

                     61                     62                     63
                      A                      A                      A
 Frequencies --   3232.8640              3272.1489              3275.8503
 Red. masses --      1.0903                 1.0927                 1.0978
 Frc consts  --      6.7138                 6.8933                 6.9408
 IR Inten    --      1.7563                 1.1835                 0.6611

 - Thermochemistry -
 -------------------
 Temperature   298.150 Kelvin.  Pressure   1.00000 Atm.
 Atom     1 has atomic number  6 and mass  12.00000

 Molecular mass:   212.04082 amu.
 Principal axes and moments of inertia in atomic units:
                           1         2         3
     Eigenvalues --   933.119877119.235517970.59476
           X            0.99994   0.01098  -0.00078
           Y           -0.01099   0.99992  -0.00685
           Z            0.00071   0.00686   0.99998
 This molecule is an asymmetric top.
 Rotational symmetry number  1.
 Warning -- assumption of classical behavior for rotation
           may cause significant error
 Rotational temperatures (Kelvin)      0.09282     0.01217     0.01087
 Rotational constants (GHZ):           1.93409     0.25350     0.22642
 Zero-point vibrational energy     448658.1 (Joules/Mol)
                                  107.23187 (Kcal/Mol)
 Warning -- explicit consideration of  15 degrees of freedom as
           vibrations may cause significant error
 Vibrational temperatures:     67.53    92.58   148.36   247.58   267.93
          (Kelvin)            383.00   432.37   477.94   577.56   649.22
                              681.42   694.38   760.37   792.98   850.76
                              926.67   938.85   955.45   988.33   995.84
                             1136.35  1146.44  1153.54  1160.56  1188.40
                             1236.96  1261.26  1279.38  1291.08  1338.19
                             1360.82  1403.31  1414.44  1417.78  1529.72
                             1532.75  1620.60  1669.50  1705.23  1745.19
                             1775.55  1829.80  1858.19  1886.82  1911.31
                             2016.71  2056.13  2083.96  2128.92  2147.96
                             2226.47  2262.13  2309.89  2353.35  2418.01
                             4587.26  4592.44  4620.20  4626.95  4637.19
                             4651.37  4707.89  4713.22

 Zero-point correction=                           0.170885 (Hartree/Particle)
 Thermal correction to Energy=                    0.181859
 Thermal correction to Enthalpy=                  0.182803
 Thermal correction to Gibbs Free Energy=         0.132827
 Sum of electronic and zero-point Energies=           -969.628620
 Sum of electronic and thermal Energies=              -969.617646
 Sum of electronic and thermal Enthalpies=            -969.616702
 Sum of electronic and thermal Free Energies=         -969.666678

                     E (Thermal)             CV                S
                      KCal/Mol        Cal/Mol-Kelvin    Cal/Mol-Kelvin
 Total                  114.118             44.303            105.184
 Electronic               0.000              0.000              0.000
 Translational            0.889              2.981             41.958
 Rotational               0.889              2.981             32.338
 Vibrational            112.341             38.342             30.888
 Vibration     1          0.595              1.979              4.942
 Vibration     2          0.597              1.971              4.319
 Vibration     3          0.605              1.947              3.395
 Vibration     4          0.626              1.877              2.413
 Vibration     5          0.632              1.859              2.265
 Vibration     6          0.672              1.735              1.621
 Vibration     7          0.693              1.673              1.414
 Vibration     8          0.714              1.611              1.249
 Vibration     9          0.767              1.467              0.957
 Vibration    10          0.810              1.358              0.792
 Vibration    11          0.830              1.309              0.728
 Vibration    12          0.839              1.289              0.703
 Vibration    13          0.883              1.187              0.591
 Vibration    14          0.906              1.137              0.542
 Vibration    15          0.949              1.050              0.465

 Optimization completed.
    -- Stationary point found.
 Normal termination of Gaussian 16 at Thu Dec 10 17:47:32 2020.

 ----------------------------------------------------------------------
 # B3LYP/6-311++G(d,p) empiricaldispersion=gd3bj scf=xqc pop=npa geom=c
 heck
 ----------------------------------------------------------------------

 --------------------------------------
 CID_57075576_JID_5990_Energie_neutraal
 --------------------------------------
 Structure from the checkpoint file:  "JID_5990.chk"
 Charge =  0 Multiplicity = 1

 SCF Done:  E(RB3LYP) =  -969.965675456     A.U. after   16 cycles
 Normal termination of Gaussian 16 at Thu Dec 10 17:50:37 2020.

 ----------------------------------------------------------------------
 # B3LYP/6-311++G(d,p) empiricaldispersion=gd3bj scf=xqc pop=npa geom=c
 heck
 ----------------------------------------------------------------------

 ------------------------------------
 CID_57075576_JID_5990_Energie_kation
 ------------------------------------
 Structure from the checkpoint file:  "JID_5990.chk"
 Charge =  1 Multiplicity = 2

 SCF Done:  E(UB3LYP) =  -969.670791111     A.U. after   31 cycles
 Normal termination of Gaussian 16 at Thu Dec 10 17:58:40 2020.
 Gaussian 16:  ES64L-G16RevA.03 25-Dec-2016

 ----------------------------------------------------------------------
 # B3LYP/6-311++G(d,p) empiricaldispersion=gd3bj scf=xqc pop=npa geom=c
 heck
 ----------------------------------------------------------------------

 -----------------------------------
 CID_57075576_JID_5990_Energie_anion
 -----------------------------------
 Structure from the checkpoint file:  "JID_5990.chk"
 Charge = -1 Multiplicity = 2

                         Standard orientation:
 ---------------------------------------------------------------------
 Center     Atomic      Atomic             Coordinates (Angstroms)
 Number     Number       Type             X           Y           Z
 ---------------------------------------------------------------------
      1          6           0        1.439943    1.858236    0.220747
      2          6           0        0.097391    1.579207    0.214331
      3          6           0       -0.393635    0.244258    0.062061
      4          6           0        0.520275   -0.784132   -0.072689
      5          6           0        1.912873   -0.526749   -0.062607
      6          6           0        2.387172    0.809794    0.082245
      7          6           0        3.784742    0.969653    0.079489
      8          6           0        4.557007   -0.160913   -0.064611
      9          7           0        4.045972   -1.416679   -0.202679
     10          7           0        2.753196   -1.597758   -0.201959
     11          6           0       -1.842766   -0.016977    0.049590
     12          6           0       -2.795805    0.896708   -0.340284
     13         16           0       -4.399777    0.255659   -0.250811
     14          6           0       -3.801228   -1.268191    0.328909
     15          6           0       -2.441682   -1.266971    0.434878
     16          1           0        1.792463    2.878809    0.344149
     17          1           0       -0.617361    2.384455    0.352119
     18          1           0        0.207499   -1.813219   -0.211057
     19          1           0        4.235337    1.952827    0.186802
     20          1           0        5.641686   -0.115278   -0.077320
     21          1           0       -2.639415    1.898513   -0.714893
     22          1           0       -4.490024   -2.065863    0.570419
     23          1           0       -1.873646   -2.113265    0.802873
 ---------------------------------------------------------------------

 SCF Done:  E(UB3LYP) =  -969.994295804     A.U. after   27 cycles

 The electronic state is 2-A.
 Alpha  occ. eigenvalues --  -88.77385 -14.16993 -14.15857 -10.09945 -10.08309
 Alpha  occ. eigenvalues --  -10.07395 -10.07351 -10.05507 -10.04865 -10.04677
 Alpha  occ. eigenvalues --  -10.04517 -10.03895 -10.03154 -10.02512 -10.01867
 Alpha  occ. eigenvalues --   -7.86019  -5.82301  -5.81941  -5.81631  -0.84974
 Alpha  occ. eigenvalues --   -0.77888  -0.72163  -0.66893  -0.65586  -0.62982
 Alpha  occ. eigenvalues --   -0.61603  -0.59237  -0.51951  -0.49876  -0.47392
 Alpha  occ. eigenvalues --   -0.45538  -0.44181  -0.41449  -0.38046  -0.35822
 Alpha  occ. eigenvalues --   -0.35083  -0.31730  -0.30178  -0.30072  -0.29614
 Alpha  occ. eigenvalues --   -0.28686  -0.27646  -0.27343  -0.26908  -0.24930
 Alpha  occ. eigenvalues --   -0.23139  -0.22050  -0.21587  -0.17558  -0.15545
 Alpha  occ. eigenvalues --   -0.15314  -0.14419  -0.11729  -0.09392  -0.06829
 Alpha  occ. eigenvalues --    0.02951
 Alpha virt. eigenvalues --    0.07461   0.07587   0.08479   0.09381   0.10490
 Alpha virt. eigenvalues --    0.10569   0.10739   0.11966   0.12409   0.12549
 Alpha virt. eigenvalues --    0.13055   0.13758   0.14063   0.14830   0.15014

  Beta  occ. eigenvalues --  -88.77378 -14.16755 -14.15238 -10.09959 -10.08204
  Beta  occ. eigenvalues --  -10.07393 -10.07353 -10.05602 -10.04871 -10.04749
  Beta  occ. eigenvalues --  -10.04460 -10.03833 -10.02957 -10.02174 -10.01537
  Beta  occ. eigenvalues --   -7.86013  -5.82296  -5.81939  -5.81610  -0.84164
  Beta  occ. eigenvalues --   -0.77829  -0.71854  -0.66453  -0.65187  -0.62874
  Beta  occ. eigenvalues --   -0.61344  -0.58809  -0.51262  -0.49748  -0.47198
  Beta  occ. eigenvalues --   -0.45280  -0.44054  -0.41282  -0.37779  -0.35644
  Beta  occ. eigenvalues --   -0.34885  -0.31644  -0.29982  -0.29944  -0.29544
  Beta  occ. eigenvalues --   -0.28398  -0.27262  -0.26775  -0.26461  -0.24818
  Beta  occ. eigenvalues --   -0.22954  -0.21462  -0.20810  -0.16497  -0.15046
  Beta  occ. eigenvalues --   -0.14624  -0.13845  -0.10767  -0.07673  -0.06245
  Beta virt. eigenvalues --    0.07566   0.07738   0.08461   0.09188   0.09395
  Beta virt. eigenvalues --    0.10506   0.10658   0.10867   0.11968   0.12439
  Beta virt. eigenvalues --    0.12634   0.13534   0.13918   0.14288   0.14924

 Mulliken charges and spin densities:
               1          2
     1  C   -0.451054   0.149854
     2  C   -0.280922   0.043254
     3  C    0.422476   0.058348
     4  C   -1.099175   0.245629
     5  C   -2.058064  -0.138326
     6  C    2.350571  -0.023598
     7  C   -0.166894   0.270208
     8  C   -0.263792  -0.007437
     9  N   -0.139708   0.112945
    10  N    0.005888   0.270438
    11  C   -0.131660  -0.001022
    12  C    0.984701   0.063122
    13  S   -0.604293   0.015257
    14  C   -0.179026   0.000705
    15  C   -0.506848  -0.000151
    16  H    0.088141  -0.011278
    17  H    0.058499  -0.004521
    18  H    0.108936  -0.018294
    19  H    0.084644  -0.020444
    20  H    0.136136  -0.003221
    21  H    0.258474  -0.002116
    22  H    0.235981   0.001092
    23  H    0.146989  -0.000445
 Sum of Mulliken charges =  -1.00000   1.00000

 Dipole moment (field-independent basis, Debye):
    X=             -7.4090    Y=              3.4938    Z=              0.6769  Tot=              8.2194
 Quadrupole moment (field-independent basis, Debye-Ang):
   XX=           -150.1490   YY=           -107.4063   ZZ=           -104.3439
   XY=             18.2760   XZ=              1.5056   YZ=             -3.3372

 Summary of Natural Population Analysis:

                                       Natural Population
                Natural  -----------------------------------------------
    Atom  No    Charge         Core      Valence    Rydberg      Total
 -----------------------------------------------------------------------
      C    1   -0.06819      0.99954     2.05962    0.00903     3.06819
      C    2   -0.08177      0.99955     2.07420    0.00802     3.08177
      C    3   -0.03722      0.99949     2.02877    0.00896     3.03722
      C    4   -0.01394      0.99942     2.00376    0.01076     3.01394
      C    5    0.04809      0.99948     1.93975    0.01268     2.95191
      C    6   -0.04672      0.99948     2.03924    0.00800     3.04672
      C    7   -0.04930      0.99952     2.04136    0.00841     3.04930
      C    8   -0.01528      0.99959     2.00046    0.01524     3.01528
      N    9   -0.10543      0.99975     2.58686    0.01882     3.60543
      N   10   -0.03813      0.99970     2.51992    0.01850     3.53813
      C   11   -0.04162      0.99949     2.03187    0.01026     3.04162
      C   12   -0.17245      0.99942     2.16256    0.01047     3.17245
      S   13    0.18040      4.99947     2.79424    0.02589     7.81960
      C   14   -0.20651      0.99955     2.19573    0.01123     3.20651
      C   15   -0.11366      0.99950     2.10532    0.00883     3.11366
      H   16    0.08749      0.00000     0.41048    0.00203     0.41251
      H   17    0.08970      0.00000     0.40874    0.00155     0.41030
      H   18    0.09438      0.00000     0.40284    0.00279     0.40562
      H   19    0.08687      0.00000     0.41091    0.00222     0.41313
      H   20    0.08162      0.00000     0.41694    0.00144     0.41838
      H   21    0.10749      0.00000     0.39146    0.00104     0.39251
      H   22    0.10455      0.00000     0.39452    0.00092     0.39545
      H   23    0.10964      0.00000     0.38921    0.00115     0.39036
 =======================================================================
   * Total *    0.00004     18.99296    35.80876    0.19824    54.99996

 Normal termination of Gaussian 16 at Thu Dec 10 18:06:00 2020.
