 Gaussian 16, Revision A.03,

 -----------------------------------------------------------
 # opt freq B3LYP/6-31G(d) empiricaldispersion=gd3bj scf=xqc
 -----------------------------------------------------------

 -------------------------------
 CID_104500063_JID_5233_neutraal
 -------------------------------
 Symbolic Z-matrix:
 Charge =  0 Multiplicity = 1

 SCF Done:  E(RB3LYP) =  -739.584754711     A.U. after   14 cycles
 SCF Done:  E(RB3LYP) =  -739.589631907     A.U. after   13 cycles
 SCF Done:  E(RB3LYP) =  -739.591394781     A.U. after   13 cycles
 SCF Done:  E(RB3LYP) =  -739.592091299     A.U. after   12 cycles
 SCF Done:  E(RB3LYP) =  -739.591968163     A.U. after   13 cycles
 SCF Done:  E(RB3LYP) =  -739.592373862     A.U. after   11 cycles
 SCF Done:  E(RB3LYP) =  -739.592429257     A.U. after   12 cycles
 SCF Done:  E(RB3LYP) =  -739.592447841     A.U. after   11 cycles
 SCF Done:  E(RB3LYP) =  -739.592451660     A.U. after   10 cycles
 SCF Done:  E(RB3LYP) =  -739.592454828     A.U. after    8 cycles
 SCF Done:  E(RB3LYP) =  -739.592455393     A.U. after    8 cycles
 SCF Done:  E(RB3LYP) =  -739.592455551     A.U. after    8 cycles
 SCF Done:  E(RB3LYP) =  -739.592455650     A.U. after    8 cycles
 SCF Done:  E(RB3LYP) =  -739.592455688     A.U. after    7 cycles
 Optimization completed.
    -- Stationary point found.
 Normal termination of Gaussian 16 at Thu Dec 10 14:51:24 2020.

 --------------------------------------------------------------------
 #N Geom=AllCheck Guess=TCheck SCRF=Check GenChk RB3LYP/6-31G(d) Freq
 --------------------------------------------------------------------

 Structure from the checkpoint file:  "JID_5233.chk"
 -------------------------------
 CID_104500063_JID_5233_neutraal
 -------------------------------
 Charge =  0 Multiplicity = 1

 SCF Done:  E(RB3LYP) =  -739.592455688     A.U. after    1 cycles

  Exact polarizability: 184.346  -1.767 129.543  10.977   4.548  66.817
 Approx polarizability: 260.937  -1.965 228.552  22.353  16.288 103.019

                      1                      2                      3
                      A                      A                      A
 Frequencies --     37.3362                45.4303                57.7604
 Red. masses --      7.4623                 7.5350                 5.0460
 Frc consts  --      0.0061                 0.0092                 0.0099
 IR Inten    --      1.8073                 1.5004                 1.0395

                      4                      5                      6
                      A                      A                      A
 Frequencies --     70.2066               103.8984               177.9438
 Red. masses --      7.6274                 5.5545                 4.6155
 Frc consts  --      0.0222                 0.0353                 0.0861
 IR Inten    --      1.0585                 1.3883                 0.8474

                      7                      8                      9
                      A                      A                      A
 Frequencies --    202.2626               247.9579               290.3493
 Red. masses --      4.3255                 3.8136                 4.6825
 Frc consts  --      0.1043                 0.1381                 0.2326
 IR Inten    --      4.5231                10.2600                 1.9396

                     10                     11                     12
                      A                      A                      A
 Frequencies --    305.0484               327.9985               371.0262
 Red. masses --      4.6416                 4.2661                 2.2631
 Frc consts  --      0.2545                 0.2704                 0.1836
 IR Inten    --      4.4691                 6.2308                30.1970

                     13                     14                     15
                      A                      A                      A
 Frequencies --    388.3494               402.2615               413.5096
 Red. masses --      1.5275                 2.3595                 1.6803
 Frc consts  --      0.1357                 0.2250                 0.1693
 IR Inten    --     94.9782                59.4006               115.8671

                     16                     17                     18
                      A                      A                      A
 Frequencies --    457.8951               491.5182               504.7132
 Red. masses --      2.4901                 1.3416                 1.3141
 Frc consts  --      0.3076                 0.1910                 0.1972
 IR Inten    --     48.1312               277.6730               108.4464

                     19                     20                     21
                      A                      A                      A
 Frequencies --    514.4140               520.9867               553.9634
 Red. masses --      2.2981                 2.8035                 2.8702
 Frc consts  --      0.3583                 0.4483                 0.5190
 IR Inten    --     67.7873                19.4726                15.5634

                     22                     23                     24
                      A                      A                      A
 Frequencies --    579.9656               584.4393               604.7626
 Red. masses --      1.6411                 2.5771                 3.5644
 Frc consts  --      0.3252                 0.5186                 0.7681
 IR Inten    --     75.4618                25.8442                16.4089

                     25                     26                     27
                      A                      A                      A
 Frequencies --    658.1608               671.2472               684.9977
 Red. masses --      3.8800                 3.0832                 1.7363
 Frc consts  --      0.9903                 0.8185                 0.4800
 IR Inten    --      9.5814                14.4613                15.7743

                     28                     29                     30
                      A                      A                      A
 Frequencies --    707.4122               733.3499               765.3949
 Red. masses --      2.6484                 3.7271                 3.5283
 Frc consts  --      0.7809                 1.1810                 1.2178
 IR Inten    --     17.3755                14.3531                35.3427

                     31                     32                     33
                      A                      A                      A
 Frequencies --    769.5786               813.3362               821.6269
 Red. masses --      4.5779                 1.8526                 1.6994
 Frc consts  --      1.5974                 0.7221                 0.6759
 IR Inten    --      8.1366                 8.7910                43.8333

                     34                     35                     36
                      A                      A                      A
 Frequencies --    866.0436               977.4972               984.0848
 Red. masses --      3.8996                 3.3879                 1.3007
 Frc consts  --      1.7232                 1.9072                 0.7421
 IR Inten    --      8.4026                 4.5451                 0.7223

                     37                     38                     39
                      A                      A                      A
 Frequencies --   1022.4531              1076.8645              1110.9929
 Red. masses --      2.3248                 3.5942                 1.8107
 Frc consts  --      1.4319                 2.4557                 1.3168
 IR Inten    --      7.2572                57.8317                16.7719

                     40                     41                     42
                      A                      A                      A
 Frequencies --   1113.1207              1148.2546              1180.2206
 Red. masses --      2.8861                 1.8012                 1.4405
 Frc consts  --      2.1069                 1.3992                 1.1822
 IR Inten    --    129.2104                23.6417               226.6412

                     43                     44                     45
                      A                      A                      A
 Frequencies --   1235.0307              1262.4438              1276.1030
 Red. masses --      1.5817                 1.8345                 1.2151
 Frc consts  --      1.4214                 1.7226                 1.1658
 IR Inten    --    128.3519                70.4537                 6.8481

                     46                     47                     48
                      A                      A                      A
 Frequencies --   1316.4368              1353.0959              1365.3592
 Red. masses --      1.7432                 2.0466                 2.1601
 Frc consts  --      1.7799                 2.2077                 2.3726
 IR Inten    --     87.0032               251.4606                23.4322

                     49                     50                     51
                      A                      A                      A
 Frequencies --   1376.3386              1394.2912              1399.2916
 Red. masses --      2.7944                 2.2247                 3.2069
 Frc consts  --      3.1189                 2.5482                 3.6996
 IR Inten    --     85.1812                11.2618                 9.9304

                     52                     53                     54
                      A                      A                      A
 Frequencies --   1470.9728              1499.3420              1551.4160
 Red. masses --      2.0785                 1.1438                 2.3351
 Frc consts  --      2.6498                 1.5150                 3.3114
 IR Inten    --     98.2295                 7.3735                63.0653

                     55                     56                     57
                      A                      A                      A
 Frequencies --   1565.0457              1615.7130              1624.0199
 Red. masses --      2.9181                 2.0563                 1.9924
 Frc consts  --      4.2112                 3.1627                 3.0961
 IR Inten    --     29.2466                96.7745                74.5865

                     58                     59                     60
                      A                      A                      A
 Frequencies --   1678.5530              1689.9918              1805.4727
 Red. masses --      3.1204                 1.4615                 9.0087
 Frc consts  --      5.1800                 2.4594                17.3019
 IR Inten    --    425.1686               286.8562               371.3349

                     61                     62                     63
                      A                      A                      A
 Frequencies --   1819.3982              3059.7891              3115.0817
 Red. masses --      9.3760                 1.0627                 1.1021
 Frc consts  --     18.2863                 5.8618                 6.3013
 IR Inten    --    316.2726                30.9935                 8.7358

                     64                     65                     66
                      A                      A                      A
 Frequencies --   3159.0498              3222.3503              3236.4884
 Red. masses --      1.0893                 1.0875                 1.0943
 Frc consts  --      6.4048                 6.6531                 6.7535
 IR Inten    --     21.4185                 0.5224                 4.3670

                     67                     68                     69
                      A                      A                      A
 Frequencies --   3584.9347              3586.3885              3600.4582
 Red. masses --      1.0445                 1.0461                 1.0764
 Frc consts  --      7.9093                 7.9276                 8.2216
 IR Inten    --     31.4804                67.9107                19.3521

                     70                     71                     72
                      A                      A                      A
 Frequencies --   3696.2887              3702.0035              3711.0200
 Red. masses --      1.0748                 1.0908                 1.1047
 Frc consts  --      8.6521                 8.8076                 8.9632
 IR Inten    --    136.9269                 5.1398                62.4379

 - Thermochemistry -
 -------------------
 Temperature   298.150 Kelvin.  Pressure   1.00000 Atm.
 Atom     1 has atomic number  6 and mass  12.00000

 Molecular mass:   209.08004 amu.
 Principal axes and moments of inertia in atomic units:
                           1         2         3
     Eigenvalues --  1322.854736357.666427273.19982
           X            1.00000   0.00183  -0.00052
           Y           -0.00183   0.99998  -0.00669
           Z            0.00051   0.00669   0.99998
 This molecule is an asymmetric top.
 Rotational symmetry number  1.
 Warning -- assumption of classical behavior for rotation
           may cause significant error
 Rotational temperatures (Kelvin)      0.06548     0.01362     0.01191
 Rotational constants (GHZ):           1.36428     0.28387     0.24814
 Zero-point vibrational energy     540298.2 (Joules/Mol)
                                  129.13437 (Kcal/Mol)
 Warning -- explicit consideration of  24 degrees of freedom as
           vibrations may cause significant error
 Vibrational temperatures:     53.72    65.36    83.10   101.01   149.49
          (Kelvin)            256.02   291.01   356.76   417.75   438.90
                              471.92   533.82   558.75   578.76   594.95
                              658.81   707.19   726.17   740.13   749.58
                              797.03   834.44   840.88   870.12   946.95
                              965.78   985.56  1017.81  1055.13  1101.23
                             1107.25  1170.21  1182.14  1246.04  1406.40
                             1415.88  1471.08  1549.37  1598.47  1601.53
                             1652.08  1698.07  1776.93  1816.38  1836.03
                             1894.06  1946.80  1964.45  1980.24  2006.07
                             2013.27  2116.40  2157.22  2232.14  2251.75
                             2324.65  2336.60  2415.06  2431.52  2597.67
                             2617.71  4402.35  4481.91  4545.17  4636.24
                             4656.58  5157.92  5160.01  5180.26  5318.14
                             5326.36  5339.33

 Zero-point correction=                           0.205789 (Hartree/Particle)
 Thermal correction to Energy=                    0.219939
 Thermal correction to Enthalpy=                  0.220883
 Thermal correction to Gibbs Free Energy=         0.163916
 Sum of electronic and zero-point Energies=           -739.386667
 Sum of electronic and thermal Energies=              -739.372517
 Sum of electronic and thermal Enthalpies=            -739.371573
 Sum of electronic and thermal Free Energies=         -739.428539

                     E (Thermal)             CV                S
                      KCal/Mol        Cal/Mol-Kelvin    Cal/Mol-Kelvin
 Total                  138.014             54.376            119.896
 Electronic               0.000              0.000              0.000
 Translational            0.889              2.981             41.916
 Rotational               0.889              2.981             32.481
 Vibrational            136.236             48.415             45.498
 Vibration     1          0.594              1.982              5.396
 Vibration     2          0.595              1.979              5.007
 Vibration     3          0.596              1.974              4.532
 Vibration     4          0.598              1.968              4.148
 Vibration     5          0.605              1.946              3.380
 Vibration     6          0.628              1.869              2.350
 Vibration     7          0.639              1.837              2.112
 Vibration     8          0.662              1.766              1.745
 Vibration     9          0.686              1.692              1.472
 Vibration    10          0.696              1.664              1.389
 Vibration    11          0.711              1.620              1.270
 Vibration    12          0.743              1.532              1.076
 Vibration    13          0.757              1.495              1.006
 Vibration    14          0.768              1.465              0.954
 Vibration    15          0.777              1.441              0.914
 Vibration    16          0.816              1.343              0.772
 Vibration    17          0.847              1.269              0.680
 Vibration    18          0.860              1.240              0.646
 Vibration    19          0.869              1.218              0.623
 Vibration    20          0.876              1.204              0.608
 Vibration    21          0.909              1.131              0.536
 Vibration    22          0.937              1.075              0.485
 Vibration    23          0.941              1.065              0.477
 Vibration    24          0.963              1.022              0.442

 Optimization completed.
    -- Stationary point found.
 Normal termination of Gaussian 16 at Thu Dec 10 14:59:00 2020.

 ----------------------------------------------------------------------
 # B3LYP/6-311++G(d,p) empiricaldispersion=gd3bj scf=xqc pop=npa geom=c
 heck
 ----------------------------------------------------------------------

 ---------------------------------------
 CID_104500063_JID_5233_Energie_neutraal
 ---------------------------------------
 Structure from the checkpoint file:  "JID_5233.chk"
 Charge =  0 Multiplicity = 1

 SCF Done:  E(RB3LYP) =  -739.830257178     A.U. after   15 cycles
 Normal termination of Gaussian 16 at Thu Dec 10 15:02:31 2020.

 ----------------------------------------------------------------------
 # B3LYP/6-311++G(d,p) empiricaldispersion=gd3bj scf=xqc pop=npa geom=c
 heck
 ----------------------------------------------------------------------

 -------------------------------------
 CID_104500063_JID_5233_Energie_kation
 -------------------------------------
 Structure from the checkpoint file:  "JID_5233.chk"
 Charge =  1 Multiplicity = 2

 SCF Done:  E(UB3LYP) =  -739.543758601     A.U. after   24 cycles
 Normal termination of Gaussian 16 at Thu Dec 10 15:10:36 2020.
 Gaussian 16:  ES64L-G16RevA.03 25-Dec-2016

 ----------------------------------------------------------------------
 # B3LYP/6-311++G(d,p) empiricaldispersion=gd3bj scf=xqc pop=npa geom=c
 heck
 ----------------------------------------------------------------------

 ------------------------------------
 CID_104500063_JID_5233_Energie_anion
 ------------------------------------
 Structure from the checkpoint file:  "JID_5233.chk"
 Charge = -1 Multiplicity = 2

                         Standard orientation:
 ---------------------------------------------------------------------
 Center     Atomic      Atomic             Coordinates (Angstroms)
 Number     Number       Type             X           Y           Z
 ---------------------------------------------------------------------
      1          6           0       -0.515173   -0.652898   -0.322493
      2          6           0        0.774194   -1.135486   -0.223868
      3          6           0        1.893185   -0.303034   -0.038465
      4          6           0        1.681308    1.104117    0.061199
      5          6           0        0.367794    1.589154   -0.047364
      6          6           0       -0.725853    0.740602   -0.234416
      7          7           0       -2.007781    1.281850   -0.284892
      8          6           0       -3.121971    0.528809   -0.837139
      9          6           0       -3.752994   -0.479943    0.135938
     10          8           0       -4.433545   -1.405801   -0.277989
     11          7           0       -3.537928   -0.207966    1.451544
     12          7           0        2.694628    2.001601    0.305101
     13          6           0        3.190323   -0.987731    0.016709
     14          8           0        3.358739   -2.192760   -0.029828
     15          8           0        4.279768   -0.154646    0.117214
     16          1           0       -1.341983   -1.337552   -0.466358
     17          1           0        0.962288   -2.201063   -0.296064
     18          1           0        0.200876    2.661718    0.034987
     19          1           0       -2.029913    2.275228   -0.470821
     20          1           0       -3.908419    1.238040   -1.113746
     21          1           0       -2.851316   -0.028627   -1.742035
     22          1           0       -2.823690    0.460540    1.704031
     23          1           0       -3.835331   -0.893487    2.130927
     24          1           0        3.642102    1.685096    0.159864
     25          1           0        2.509302    2.968877    0.084357
     26          1           0        5.049075   -0.753048    0.136820
 ---------------------------------------------------------------------

 SCF Done:  E(UB3LYP) =  -739.828626875     A.U. after   33 cycles
 SCF Done:  E(UB3LYP) =  -739.828626875     a.u. after    1 cycles

 The electronic state is 2-A.
 Alpha  occ. eigenvalues --  -19.06134 -18.99541 -18.98605 -14.23861 -14.22142
 Alpha  occ. eigenvalues --  -14.21096 -10.17758 -10.17745 -10.11438 -10.11088
 Alpha  occ. eigenvalues --  -10.10090 -10.05833 -10.05490 -10.04917 -10.04776
 Alpha  occ. eigenvalues --   -0.99441  -0.94507  -0.89841  -0.83995  -0.81753
 Alpha  occ. eigenvalues --   -0.80827  -0.72247  -0.65564  -0.62236  -0.60786
 Alpha  occ. eigenvalues --   -0.54206  -0.50507  -0.49362  -0.47799  -0.45082
 Alpha  occ. eigenvalues --   -0.44217  -0.42130  -0.39560  -0.39463  -0.37394
 Alpha  occ. eigenvalues --   -0.36223  -0.34842  -0.33955  -0.33592  -0.32172
 Alpha  occ. eigenvalues --   -0.31471  -0.30972  -0.30021  -0.28813  -0.27264
 Alpha  occ. eigenvalues --   -0.26101  -0.24040  -0.23030  -0.22022  -0.18500
 Alpha  occ. eigenvalues --   -0.18456  -0.16908  -0.16379  -0.10866  -0.10048
 Alpha  occ. eigenvalues --    0.04200
 Alpha virt. eigenvalues --    0.06195   0.06939   0.07662   0.08067   0.09882
 Alpha virt. eigenvalues --    0.10040   0.10784   0.11418   0.11950   0.12506
 Alpha virt. eigenvalues --    0.12797   0.13665   0.14622   0.14823   0.15649

  Beta  occ. eigenvalues --  -19.06096 -18.99530 -18.98502 -14.23850 -14.22062
  Beta  occ. eigenvalues --  -14.21075 -10.17734 -10.17588 -10.11418 -10.11070
  Beta  occ. eigenvalues --  -10.09926 -10.05828 -10.05316 -10.04969 -10.04762
  Beta  occ. eigenvalues --   -0.99294  -0.94476  -0.89673  -0.83854  -0.81700
  Beta  occ. eigenvalues --   -0.80771  -0.72089  -0.65371  -0.62119  -0.60654
  Beta  occ. eigenvalues --   -0.53906  -0.50422  -0.49286  -0.47686  -0.45045
  Beta  occ. eigenvalues --   -0.44126  -0.42043  -0.39473  -0.39293  -0.37307
  Beta  occ. eigenvalues --   -0.36113  -0.34757  -0.33533  -0.33356  -0.32065
  Beta  occ. eigenvalues --   -0.31399  -0.30869  -0.29923  -0.28605  -0.27097
  Beta  occ. eigenvalues --   -0.26004  -0.23940  -0.22728  -0.21552  -0.18430
  Beta  occ. eigenvalues --   -0.18087  -0.16805  -0.16208  -0.10537  -0.09784
  Beta virt. eigenvalues --    0.06879   0.07243   0.07930   0.08247   0.08717
  Beta virt. eigenvalues --    0.09996   0.10402   0.11133   0.11560   0.12165
  Beta virt. eigenvalues --    0.12646   0.13306   0.13767   0.14606   0.14821

 Mulliken charges and spin densities:
               1          2
     1  C    0.730823  -0.452935
     2  C   -0.353215   0.254391
     3  C    1.339805  -0.309265
     4  C   -1.189408   0.455235
     5  C   -1.010866   0.110108
     6  C    0.608610  -0.825957
     7  N   -0.218805   0.110078
     8  C    0.401313  -0.757515
     9  C   -0.400655   0.293835
    10  O   -0.324645   0.005633
    11  N   -0.287132  -0.024233
    12  N   -0.354219   0.010654
    13  C    0.782620  -0.536264
    14  O   -0.393078   0.038697
    15  O   -0.292541   0.007463
    16  H    0.186286  -0.037870
    17  H    0.160484   0.019515
    18  H   -0.744483   0.879061
    19  H   -0.331141   0.650293
    20  H   -0.582762   0.779351
    21  H    0.278632  -0.054128
    22  H    0.274479   0.004978
    23  H    0.216030   0.057704
    24  H    0.232205   0.052315
    25  H   -0.024174   0.265150
    26  H    0.295840   0.003708
 Sum of Mulliken charges =  -1.00000   1.00000

 Dipole moment (field-independent basis, Debye):
    X=              3.6806    Y=             -2.5051    Z=              2.5236  Tot=              5.1177
 Quadrupole moment (field-independent basis, Debye-Ang):
   XX=           -146.6129   YY=           -139.9034   ZZ=           -101.5790
   XY=             10.5100   XZ=             -9.5784   YZ=              1.5120

 Summary of Natural Population Analysis:

                                       Natural Population
                Natural  -----------------------------------------------
    Atom  No    Charge         Core      Valence    Rydberg      Total
 -----------------------------------------------------------------------
      C    1   -0.16973      0.99952     2.16072    0.00949     3.16973
      C    2   -0.02178      0.99956     2.01390    0.00833     3.02178
      C    3   -0.13560      0.99942     2.12599    0.01019     3.13560
      C    4    0.11966      0.99950     1.86950    0.01134     2.88034
      C    5   -0.15776      0.99949     2.14806    0.01020     3.15776
      C    6    0.13333      0.99949     1.85548    0.01169     2.86667
      N    7   -0.31898      0.99967     2.80573    0.01358     3.81898
      C    8   -0.13069      0.99958     2.11845    0.01265     3.13069
      C    9    0.33489      0.99971     1.64065    0.02475     2.66511
      O   10   -0.32521      0.99987     3.31950    0.00584     4.32521
      N   11   -0.40438      0.99969     2.89784    0.00684     3.90438
      N   12   -0.39461      0.99970     2.88627    0.00864     3.89461
      C   13    0.41297      0.99964     1.56311    0.02428     2.58703
      O   14   -0.32071      0.99987     3.31501    0.00583     4.32071
      O   15   -0.36706      0.99987     3.36071    0.00648     4.36706
      H   16    0.10283      0.00000     0.39584    0.00133     0.39717
      H   17    0.10683      0.00000     0.39230    0.00087     0.39317
      H   18    0.09944      0.00000     0.39809    0.00248     0.40056
      H   19    0.19768      0.00000     0.28595    0.01637     0.30232
      H   20    0.11464      0.00000     0.38370    0.00166     0.38536
      H   21    0.10292      0.00000     0.39574    0.00134     0.39708
      H   22    0.20461      0.00000     0.29349    0.00190     0.29539
      H   23    0.19207      0.00000     0.30636    0.00157     0.30793
      H   24    0.20102      0.00000     0.29695    0.00203     0.29898
      H   25    0.18644      0.00000     0.31198    0.00158     0.31356
      H   26    0.23718      0.00000     0.25887    0.00395     0.26282
 =======================================================================
   * Total *   -0.00000     14.99461    39.80020    0.20520    55.00000

 Normal termination of Gaussian 16 at Thu Dec 10 15:21:49 2020.
