 Gaussian 16, Revision A.03,

 -----------------------------------------------------------
 # opt freq B3LYP/6-31G(d) empiricaldispersion=gd3bj scf=xqc
 -----------------------------------------------------------

 ------------------------------
 CID_65081736_JID_8656_neutraal
 ------------------------------
 Symbolic Z-matrix:
 Charge =  0 Multiplicity = 1

 SCF Done:  E(RB3LYP) =  -805.551897729     A.U. after   15 cycles
 SCF Done:  E(RB3LYP) =  -805.555740930     A.U. after   13 cycles
 SCF Done:  E(RB3LYP) =  -805.555608145     A.U. after   12 cycles
 SCF Done:  E(RB3LYP) =  -805.556545146     A.U. after   12 cycles
 SCF Done:  E(RB3LYP) =  -805.557258393     A.U. after   11 cycles
 SCF Done:  E(RB3LYP) =  -805.557381779     A.U. after   12 cycles
 SCF Done:  E(RB3LYP) =  -805.557443170     A.U. after   12 cycles
 SCF Done:  E(RB3LYP) =  -805.557576876     A.U. after   11 cycles
 SCF Done:  E(RB3LYP) =  -805.557658861     A.U. after   11 cycles
 SCF Done:  E(RB3LYP) =  -805.557674536     A.U. after   11 cycles
 SCF Done:  E(RB3LYP) =  -805.557683184     A.U. after    9 cycles
 SCF Done:  E(RB3LYP) =  -805.557683555     A.U. after    8 cycles
 SCF Done:  E(RB3LYP) =  -805.557683811     A.U. after    7 cycles
 SCF Done:  E(RB3LYP) =  -805.557683886     A.U. after    7 cycles
 SCF Done:  E(RB3LYP) =  -805.557683916     A.U. after    7 cycles
 Optimization completed.
    -- Stationary point found.
 Normal termination of Gaussian 16 at Fri Dec 11 20:18:12 2020.

 --------------------------------------------------------------------
 #N Geom=AllCheck Guess=TCheck SCRF=Check GenChk RB3LYP/6-31G(d) Freq
 --------------------------------------------------------------------

 Structure from the checkpoint file:  "JID_8656.chk"
 ------------------------------
 CID_65081736_JID_8656_neutraal
 ------------------------------
 Charge =  0 Multiplicity = 1

 SCF Done:  E(RB3LYP) =  -805.557683916     A.U. after    1 cycles

  Exact polarizability: 223.755   5.313 159.633   7.236  -3.899 113.269
 Approx polarizability: 288.059  16.617 275.012  17.148  -6.822 169.377

                      1                      2                      3
                      A                      A                      A
 Frequencies --     21.7770                43.8389                52.7129
 Red. masses --      4.7830                 4.4479                 5.2571
 Frc consts  --      0.0013                 0.0050                 0.0086
 IR Inten    --      0.6335                 0.4316                 4.5025

                      4                      5                      6
                      A                      A                      A
 Frequencies --     81.2842                91.8010               144.3285
 Red. masses --      3.7303                 3.9321                 3.3702
 Frc consts  --      0.0145                 0.0195                 0.0414
 IR Inten    --      1.2869                 2.3681                 1.4196

                      7                      8                      9
                      A                      A                      A
 Frequencies --    152.0075               186.9502               209.3357
 Red. masses --      3.1827                 3.3025                 2.9217
 Frc consts  --      0.0433                 0.0680                 0.0754
 IR Inten    --      1.6556                 1.9672                 5.9454

                     10                     11                     12
                      A                      A                      A
 Frequencies --    218.3371               251.1232               263.3041
 Red. masses --      1.4321                 2.8208                 2.7607
 Frc consts  --      0.0402                 0.1048                 0.1128
 IR Inten    --      5.2034                 1.1372                 2.1273

                     13                     14                     15
                      A                      A                      A
 Frequencies --    272.4721               295.4996               353.1405
 Red. masses --      2.6262                 2.7741                 2.8585
 Frc consts  --      0.1149                 0.1427                 0.2100
 IR Inten    --      1.4578                 6.7042                 1.5559

                     16                     17                     18
                      A                      A                      A
 Frequencies --    355.6593               375.2762               381.1363
 Red. masses --      3.9938                 3.0584                 2.6490
 Frc consts  --      0.2976                 0.2538                 0.2267
 IR Inten    --      2.4098                26.4820                 3.6781

                     19                     20                     21
                      A                      A                      A
 Frequencies --    406.5750               419.8426               444.7581
 Red. masses --      1.4557                 2.8030                 1.5234
 Frc consts  --      0.1418                 0.2911                 0.1775
 IR Inten    --     46.0387                32.1735               134.3417

                     22                     23                     24
                      A                      A                      A
 Frequencies --    455.0264               482.1099               528.0595
 Red. masses --      1.8913                 2.6980                 3.8316
 Frc consts  --      0.2307                 0.3695                 0.6295
 IR Inten    --     46.7150                10.2838                 0.2828

                     25                     26                     27
                      A                      A                      A
 Frequencies --    534.0516               556.6850               572.3549
 Red. masses --      2.9252                 1.5954                 2.1924
 Frc consts  --      0.4916                 0.2913                 0.4232
 IR Inten    --      7.3119                14.0490                 5.0205

                     28                     29                     30
                      A                      A                      A
 Frequencies --    593.1541               614.3554               682.0778
 Red. masses --      3.6766                 2.8048                 4.3273
 Frc consts  --      0.7621                 0.6237                 1.1861
 IR Inten    --     17.4499                 9.8803                14.8588

                     31                     32                     33
                      A                      A                      A
 Frequencies --    721.4087               734.7344               773.1138
 Red. masses --      3.3730                 2.7441                 2.4790
 Frc consts  --      1.0343                 0.8728                 0.8730
 IR Inten    --      1.5128                 4.4733                44.5904

                     34                     35                     36
                      A                      A                      A
 Frequencies --    778.3603               817.6619               823.5294
 Red. masses --      2.0413                 2.4968                 4.9222
 Frc consts  --      0.7286                 0.9835                 1.9668
 IR Inten    --      4.6326                11.3981                 4.3563

                     37                     38                     39
                      A                      A                      A
 Frequencies --    845.2211               858.6604               883.2738
 Red. masses --      2.2998                 2.0132                 2.4551
 Frc consts  --      0.9680                 0.8745                 1.1285
 IR Inten    --      4.6754                 2.9827                 0.0960

                     40                     41                     42
                      A                      A                      A
 Frequencies --    895.1541               902.1773               920.0987
 Red. masses --      1.4936                 2.1301                 2.1261
 Frc consts  --      0.7052                 1.0215                 1.0605
 IR Inten    --      1.5294                 3.5788                 3.3509

                     43                     44                     45
                      A                      A                      A
 Frequencies --    967.7174               972.7241              1028.5499
 Red. masses --      1.2988                 1.8534                 2.3774
 Frc consts  --      0.7166                 1.0332                 1.4819
 IR Inten    --      0.2915                 7.2857                 6.5304

                     46                     47                     48
                      A                      A                      A
 Frequencies --   1043.6793              1059.4263              1070.0651
 Red. masses --      1.6827                 1.7240                 1.4775
 Frc consts  --      1.0799                 1.1401                 0.9968
 IR Inten    --      9.7152                11.0513                 0.4698

                     49                     50                     51
                      A                      A                      A
 Frequencies --   1086.7928              1106.9770              1116.1323
 Red. masses --      1.9850                 2.0430                 3.1837
 Frc consts  --      1.3813                 1.4750                 2.3367
 IR Inten    --      4.8756                13.1526                36.7708

                     52                     53                     54
                      A                      A                      A
 Frequencies --   1123.8365              1140.7700              1153.4726
 Red. masses --      2.1431                 2.3772                 2.8216
 Frc consts  --      1.5947                 1.8227                 2.2118
 IR Inten    --      2.5812                25.4570                 4.0791

                     55                     56                     57
                      A                      A                      A
 Frequencies --   1171.7552              1194.6863              1216.8695
 Red. masses --      3.5141                 1.5592                 1.8542
 Frc consts  --      2.8427                 1.3111                 1.6177
 IR Inten    --    133.6739                 6.2892                 0.4846

                     58                     59                     60
                      A                      A                      A
 Frequencies --   1237.3601              1245.2571              1268.9075
 Red. masses --      1.4451                 1.7729                 1.3776
 Frc consts  --      1.3036                 1.6197                 1.3069
 IR Inten    --      7.8851                 6.3721                32.0054

                     61                     62                     63
                      A                      A                      A
 Frequencies --   1278.3107              1316.5767              1323.1171
 Red. masses --      1.3526                 1.4689                 1.6440
 Frc consts  --      1.3023                 1.5001                 1.6957
 IR Inten    --     28.4558                35.1346                43.7964

                     64                     65                     66
                      A                      A                      A
 Frequencies --   1334.0219              1342.8642              1361.4871
 Red. masses --      1.5614                 2.1583                 1.2697
 Frc consts  --      1.6371                 2.2931                 1.3866
 IR Inten    --      4.6609                 2.8036                 1.6121

                     67                     68                     69
                      A                      A                      A
 Frequencies --   1369.5306              1391.0728              1403.6635
 Red. masses --      2.5551                 1.6613                 1.3840
 Frc consts  --      2.8236                 1.8941                 1.6066
 IR Inten    --    222.9750               111.4049                 6.2181

                     70                     71                     72
                      A                      A                      A
 Frequencies --   1409.5124              1418.7791              1435.2868
 Red. masses --      1.3638                 1.2886                 1.4094
 Frc consts  --      1.5964                 1.5283                 1.7106
 IR Inten    --     27.3713                29.1562                 1.8300

                     73                     74                     75
                      A                      A                      A
 Frequencies --   1441.9730              1448.0559              1480.3665
 Red. masses --      1.3109                 1.3037                 2.2164
 Frc consts  --      1.6059                 1.6106                 2.8618
 IR Inten    --     13.5422                 4.1643                 8.0234

                     76                     77                     78
                      A                      A                      A
 Frequencies --   1508.6662              1510.1211              1519.1047
 Red. masses --      1.0966                 1.7996                 1.0975
 Frc consts  --      1.4705                 2.4180                 1.4922
 IR Inten    --      1.6450                16.0712                 5.2425

                     79                     80                     81
                      A                      A                      A
 Frequencies --   1522.4907              1531.6139              1532.3104
 Red. masses --      1.1024                 1.0824                 1.0498
 Frc consts  --      1.5056                 1.4961                 1.4522
 IR Inten    --      2.7716                 1.3265                10.5170

                     82                     83                     84
                      A                      A                      A
 Frequencies --   1536.0728              1542.6835              1576.7719
 Red. masses --      1.4540                 1.0979                 1.4987
 Frc consts  --      2.0214                 1.5395                 2.1953
 IR Inten    --     35.9226                 2.5524                62.4873

                     85                     86                     87
                      A                      A                      A
 Frequencies --   1639.6692              1647.3326              1652.2343
 Red. masses --      1.2492                 5.0259                 4.4803
 Frc consts  --      1.9787                 8.0358                 7.2061
 IR Inten    --    108.2913               109.2919                41.6604

                     88                     89                     90
                      A                      A                      A
 Frequencies --   1787.3311              2988.6934              3009.8537
 Red. masses --      8.9361                 1.0719                 1.0671
 Frc consts  --     16.8192                 5.6413                 5.6958
 IR Inten    --    282.7087                89.8833                44.8012

                     91                     92                     93
                      A                      A                      A
 Frequencies --   3012.8917              3022.0847              3039.4341
 Red. masses --      1.0454                 1.0845                 1.0647
 Frc consts  --      5.5913                 5.8358                 5.7954
 IR Inten    --     34.2742                19.8907                60.0462

                     94                     95                     96
                      A                      A                      A
 Frequencies --   3046.3492              3051.6213              3066.0988
 Red. masses --      1.0697                 1.0997                 1.0833
 Frc consts  --      5.8489                 6.0337                 6.0000
 IR Inten    --     31.7391                26.6432                 9.0434

                     97                     98                     99
                      A                      A                      A
 Frequencies --   3077.4530              3081.3951              3097.5096
 Red. masses --      1.0772                 1.0968                 1.0950
 Frc consts  --      6.0108                 6.1361                 6.1901
 IR Inten    --     33.7668                46.5512                51.7213

                    100                    101                    102
                      A                      A                      A
 Frequencies --   3118.8796              3121.9522              3180.1341
 Red. masses --      1.0978                 1.0962                 1.0918
 Frc consts  --      6.2918                 6.2951                 6.5057
 IR Inten    --      2.0014                45.5895                 2.6473

                    103                    104                    105
                      A                      A                      A
 Frequencies --   3193.3034              3230.1625              3254.2789
 Red. masses --      1.0888                 1.0926                 1.0899
 Frc consts  --      6.5415                 6.7171                 6.8008
 IR Inten    --     13.5446                 4.6938                12.4922

                    106                    107                    108
                      A                      A                      A
 Frequencies --   3568.7746              3638.2801              3692.5797
 Red. masses --      1.0456                 1.0750                 1.1031
 Frc consts  --      7.8459                 8.3838                 8.8620
 IR Inten    --     32.7196                12.7823                20.7839

 - Thermochemistry -
 -------------------
 Temperature   298.150 Kelvin.  Pressure   1.00000 Atm.
 Atom     1 has atomic number  6 and mass  12.00000

 Molecular mass:   248.15248 amu.
 Principal axes and moments of inertia in atomic units:
                           1         2         3
     Eigenvalues --  1622.681749886.66513**********
           X            0.99999  -0.00341  -0.00074
           Y            0.00339   0.99970  -0.02421
           Z            0.00083   0.02421   0.99971
 This molecule is an asymmetric top.
 Rotational symmetry number  1.
 Warning -- assumption of classical behavior for rotation
           may cause significant error
 Rotational temperatures (Kelvin)      0.05338     0.00876     0.00831
 Rotational constants (GHZ):           1.11220     0.18254     0.17312
 Zero-point vibrational energy     866994.5 (Joules/Mol)
                                  207.21665 (Kcal/Mol)
 Warning -- explicit consideration of  29 degrees of freedom as
           vibrations may cause significant error
 Vibrational temperatures:     31.33    63.07    75.84   116.95   132.08
          (Kelvin)            207.66   218.70   268.98   301.19   314.14
                              361.31   378.84   392.03   425.16   508.09
                              511.71   539.94   548.37   584.97   604.06
                              639.91   654.68   693.65   759.76   768.38
                              800.95   823.49   853.42   883.92   981.36
                             1037.95  1057.12  1112.34  1119.89  1176.43
                             1184.88  1216.08  1235.42  1270.83  1287.93
                             1298.03  1323.82  1392.33  1399.53  1479.85
                             1501.62  1524.28  1539.59  1563.65  1592.69
                             1605.87  1616.95  1641.31  1659.59  1685.89
                             1718.89  1750.80  1780.29  1791.65  1825.67
                             1839.20  1894.26  1903.67  1919.36  1932.08
                             1958.88  1970.45  2001.44  2019.56  2027.97
                             2041.31  2065.06  2074.68  2083.43  2129.92
                             2170.63  2172.73  2185.65  2190.52  2203.65
                             2204.65  2210.07  2219.58  2268.62  2359.12
                             2370.14  2377.20  2571.57  4300.06  4330.51
                             4334.88  4348.11  4373.07  4383.02  4390.60
                             4411.43  4427.77  4433.44  4456.63  4487.37
                             4491.79  4575.50  4594.45  4647.48  4682.18
                             5134.67  5234.67  5312.80

 Zero-point correction=                           0.330221 (Hartree/Particle)
 Thermal correction to Energy=                    0.347343
 Thermal correction to Enthalpy=                  0.348287
 Thermal correction to Gibbs Free Energy=         0.284896
 Sum of electronic and zero-point Energies=           -805.227463
 Sum of electronic and thermal Energies=              -805.210341
 Sum of electronic and thermal Enthalpies=            -805.209397
 Sum of electronic and thermal Free Energies=         -805.272788

                     E (Thermal)             CV                S
                      KCal/Mol        Cal/Mol-Kelvin    Cal/Mol-Kelvin
 Total                  217.961             67.218            133.417
 Electronic               0.000              0.000              0.000
 Translational            0.889              2.981             42.427
 Rotational               0.889              2.981             33.480
 Vibrational            216.183             61.256             57.509
 Vibration     1          0.593              1.985              6.465
 Vibration     2          0.595              1.980              5.078
 Vibration     3          0.596              1.977              4.713
 Vibration     4          0.600              1.962              3.860
 Vibration     5          0.602              1.955              3.621
 Vibration     6          0.616              1.909              2.746
 Vibration     7          0.619              1.900              2.647
 Vibration     8          0.632              1.858              2.258
 Vibration     9          0.642              1.826              2.049
 Vibration    10          0.646              1.813              1.973
 Vibration    11          0.663              1.761              1.723
 Vibration    12          0.670              1.740              1.640
 Vibration    13          0.675              1.724              1.580
 Vibration    14          0.690              1.682              1.442
 Vibration    15          0.729              1.569              1.152
 Vibration    16          0.731              1.564              1.141
 Vibration    17          0.746              1.523              1.058
 Vibration    18          0.751              1.510              1.035
 Vibration    19          0.771              1.456              0.939
 Vibration    20          0.783              1.427              0.893
 Vibration    21          0.804              1.372              0.812
 Vibration    22          0.813              1.350              0.781
 Vibration    23          0.838              1.290              0.704
 Vibration    24          0.883              1.188              0.592
 Vibration    25          0.889              1.175              0.578
 Vibration    26          0.912              1.125              0.530
 Vibration    27          0.929              1.091              0.500
 Vibration    28          0.951              1.046              0.462
 Vibration    29          0.974              1.001              0.426

 Optimization completed.
    -- Stationary point found.
 Normal termination of Gaussian 16 at Fri Dec 11 20:35:09 2020.

 ----------------------------------------------------------------------
 # B3LYP/6-311++G(d,p) empiricaldispersion=gd3bj scf=xqc pop=npa geom=c
 heck
 ----------------------------------------------------------------------

 --------------------------------------
 CID_65081736_JID_8656_Energie_neutraal
 --------------------------------------
 Structure from the checkpoint file:  "JID_8656.chk"
 Charge =  0 Multiplicity = 1

 SCF Done:  E(RB3LYP) =  -805.789447843     A.U. after   15 cycles
 Normal termination of Gaussian 16 at Fri Dec 11 20:41:54 2020.

 ----------------------------------------------------------------------
 # B3LYP/6-311++G(d,p) empiricaldispersion=gd3bj scf=xqc pop=npa geom=c
 heck
 ----------------------------------------------------------------------

 ------------------------------------
 CID_65081736_JID_8656_Energie_kation
 ------------------------------------
 Structure from the checkpoint file:  "JID_8656.chk"
 Charge =  1 Multiplicity = 2

 SCF Done:  E(UB3LYP) =  -805.522376019     A.U. after   23 cycles
 Normal termination of Gaussian 16 at Fri Dec 11 20:56:12 2020.
 Gaussian 16:  ES64L-G16RevA.03 25-Dec-2016

 ----------------------------------------------------------------------
 # B3LYP/6-311++G(d,p) empiricaldispersion=gd3bj scf=xqc pop=npa geom=c
 heck
 ----------------------------------------------------------------------

 -----------------------------------
 CID_65081736_JID_8656_Energie_anion
 -----------------------------------
 Structure from the checkpoint file:  "JID_8656.chk"
 Charge = -1 Multiplicity = 2

                         Standard orientation:
 ---------------------------------------------------------------------
 Center     Atomic      Atomic             Coordinates (Angstroms)
 Number     Number       Type             X           Y           Z
 ---------------------------------------------------------------------
      1          6           0        2.165017   -2.008459    0.460896
      2          6           0        1.883233   -0.578242    0.058283
      3          6           0        2.887139    0.400994   -0.039302
      4          6           0        2.568916    1.741008   -0.299658
      5          6           0        1.247017    2.100240   -0.520540
      6          6           0        0.236448    1.145087   -0.466748
      7          6           0        0.530264   -0.195745   -0.165528
      8          7           0       -0.453982   -1.180398   -0.115746
      9          6           0       -1.894091   -0.957306    0.077632
     10          6           0       -2.585764   -0.491797   -1.223094
     11          6           0       -4.110907   -0.666240   -1.174752
     12          6           0       -4.848265    0.503115   -0.504346
     13          8           0       -4.157573    1.098196    0.582738
     14          6           0       -3.672503    0.195895    1.568414
     15          6           0       -2.196124   -0.122480    1.337804
     16          6           0        4.361132    0.131661    0.115037
     17          8           0        5.099066    0.872474    0.749970
     18          7           0        4.849086   -0.980057   -0.537623
     19          1           0        1.888510   -2.720504   -0.330346
     20          1           0        3.215069   -2.168939    0.699759
     21          1           0        1.584837   -2.282547    1.354414
     22          1           0        3.368517    2.471999   -0.329607
     23          1           0        0.990389    3.133128   -0.738506
     24          1           0       -0.785128    1.449907   -0.646872
     25          1           0       -0.138855   -2.036685    0.312451
     26          1           0       -2.290438   -1.965333    0.261220
     27          1           0       -2.168589   -1.103049   -2.030466
     28          1           0       -2.345305    0.548637   -1.459712
     29          1           0       -4.509202   -0.767938   -2.191931
     30          1           0       -4.348992   -1.610125   -0.666234
     31          1           0       -4.979189    1.320061   -1.221718
     32          1           0       -5.852571    0.175903   -0.187469
     33          1           0       -4.284948   -0.718205    1.604770
     34          1           0       -3.785495    0.699497    2.535202
     35          1           0       -1.803107   -0.665300    2.208291
     36          1           0       -1.659052    0.829220    1.294994
     37          1           0        4.319396   -1.381309   -1.298755
     38          1           0        5.857410   -1.036972   -0.602147
 ---------------------------------------------------------------------

 SCF Done:  E(UB3LYP) =  -805.782590531     A.U. after   33 cycles
 SCF Done:  E(UB3LYP) =  -805.782590531     a.u. after    3 cycles

 The electronic state is 2-A.
 Alpha  occ. eigenvalues --  -19.03610 -19.00115 -14.24081 -14.22762 -10.18739
 Alpha  occ. eigenvalues --  -10.13184 -10.12898 -10.12433 -10.11878 -10.09482
 Alpha  occ. eigenvalues --  -10.09319 -10.08366 -10.08287 -10.07863 -10.07814
 Alpha  occ. eigenvalues --  -10.07577 -10.07490 -10.07310  -0.95067  -0.95003
 Alpha  occ. eigenvalues --   -0.84573  -0.81501  -0.76073  -0.71105  -0.69442
 Alpha  occ. eigenvalues --   -0.68251  -0.65266  -0.60423  -0.59688  -0.58349
 Alpha  occ. eigenvalues --   -0.54528  -0.51417  -0.49395  -0.48669  -0.47210
 Alpha  occ. eigenvalues --   -0.44759  -0.43501  -0.42058  -0.40307  -0.39684
 Alpha  occ. eigenvalues --   -0.38301  -0.38113  -0.36393  -0.35567  -0.34812
 Alpha  occ. eigenvalues --   -0.33800  -0.33203  -0.32734  -0.32216  -0.31460
 Alpha  occ. eigenvalues --   -0.31374  -0.30355  -0.29350  -0.27755  -0.27343
 Alpha  occ. eigenvalues --   -0.26982  -0.26156  -0.25264  -0.24755  -0.23589
 Alpha  occ. eigenvalues --   -0.22173  -0.20876  -0.18924  -0.17328  -0.17195
 Alpha  occ. eigenvalues --   -0.15766  -0.10999   0.03720
 Alpha virt. eigenvalues --    0.05419   0.05738   0.06294   0.07228   0.07452
 Alpha virt. eigenvalues --    0.08249   0.08809   0.08938   0.08982   0.09726
 Alpha virt. eigenvalues --    0.10334   0.10616   0.11106   0.11362   0.11804

  Beta  occ. eigenvalues --  -19.03605 -19.00108 -14.24032 -14.22746 -10.18735
  Beta  occ. eigenvalues --  -10.13175 -10.12879 -10.12433 -10.11855 -10.09480
  Beta  occ. eigenvalues --  -10.09314 -10.08366 -10.08264 -10.07857 -10.07813
  Beta  occ. eigenvalues --  -10.07565 -10.07489 -10.07267  -0.95052  -0.94991
  Beta  occ. eigenvalues --   -0.84543  -0.81436  -0.76059  -0.71076  -0.69413
  Beta  occ. eigenvalues --   -0.68230  -0.65248  -0.60376  -0.59657  -0.58312
  Beta  occ. eigenvalues --   -0.54491  -0.51381  -0.49344  -0.48617  -0.47156
  Beta  occ. eigenvalues --   -0.44716  -0.43461  -0.42029  -0.40284  -0.39647
  Beta  occ. eigenvalues --   -0.38281  -0.38084  -0.36366  -0.35540  -0.34784
  Beta  occ. eigenvalues --   -0.33772  -0.33181  -0.32702  -0.32192  -0.31418
  Beta  occ. eigenvalues --   -0.31349  -0.30328  -0.29321  -0.27727  -0.27316
  Beta  occ. eigenvalues --   -0.26953  -0.26135  -0.25243  -0.24731  -0.23545
  Beta  occ. eigenvalues --   -0.22148  -0.20859  -0.18876  -0.17295  -0.17164
  Beta  occ. eigenvalues --   -0.15757  -0.10984
  Beta virt. eigenvalues --    0.05726   0.05948   0.06444   0.07081   0.07449
  Beta virt. eigenvalues --    0.07873   0.08531   0.08886   0.09174   0.09628
  Beta virt. eigenvalues --    0.10009   0.10644   0.11019   0.11227   0.11561

 Mulliken charges and spin densities:
               1          2
     1  C    2.107125  -2.857317
     2  C   -1.340065   1.471492
     3  C    1.027236  -0.614057
     4  C   -0.783055   0.359284
     5  C    0.138822  -0.475965
     6  C    0.281336  -0.158877
     7  C   -0.823235   0.546040
     8  N    0.003818   0.211201
     9  C    0.914874  -1.408389
    10  C   -0.851326   0.771280
    11  C   -0.181753  -0.122299
    12  C    0.247424  -0.675562
    13  O   -0.114818   0.028149
    14  C    0.381634  -1.013188
    15  C   -0.296636   0.276809
    16  C   -0.106251   0.054919
    17  O   -0.324073   0.005301
    18  N   -0.278626  -0.068653
    19  H   -0.481414   0.682609
    20  H    0.094001   0.083636
    21  H   -0.090571   0.243097
    22  H    0.132328   0.027137
    23  H    0.146665   0.004198
    24  H    0.250481  -0.090881
    25  H    0.128504   0.202272
    26  H   -0.857201   1.015967
    27  H    0.023159   0.166994
    28  H   -0.025072   0.137987
    29  H   -0.168077   0.324221
    30  H   -0.101030   0.271737
    31  H    0.107007   0.040236
    32  H   -0.061811   0.208164
    33  H   -0.087282   0.246404
    34  H    0.054961   0.123576
    35  H   -0.163516   0.321209
    36  H    0.161453   0.037273
    37  H   -0.039125   0.281652
    38  H   -0.025890   0.342342
 Sum of Mulliken charges =  -1.00000   1.00000

 Dipole moment (field-independent basis, Debye):
    X=             -2.3377    Y=              5.4526    Z=             -1.3192  Tot=              6.0775
 Quadrupole moment (field-independent basis, Debye-Ang):
   XX=           -210.4266   YY=           -157.0403   ZZ=           -141.0437
   XY=             -7.4977   XZ=             -0.3072   YZ=             -3.7465

 Summary of Natural Population Analysis:

                                       Natural Population
                Natural  -----------------------------------------------
    Atom  No    Charge         Core      Valence    Rydberg      Total
 -----------------------------------------------------------------------
      C    1   -0.30758      0.99963     2.30139    0.00656     3.30758
      C    2   -0.02378      0.99947     2.01491    0.00939     3.02378
      C    3   -0.06447      0.99942     2.05373    0.01132     3.06447
      C    4   -0.10698      0.99953     2.09884    0.00861     3.10698
      C    5   -0.09605      0.99957     2.08796    0.00852     3.09605
      C    6   -0.12772      0.99952     2.11949    0.00872     3.12772
      C    7    0.09651      0.99945     1.89233    0.01172     2.90349
      N    8   -0.31517      0.99967     2.80267    0.01283     3.81517
      C    9   -0.00713      0.99957     1.99206    0.01551     3.00713
      C   10   -0.19479      0.99960     2.18539    0.00980     3.19479
      C   11   -0.20917      0.99962     2.20179    0.00776     3.20917
      C   12   -0.00480      0.99958     1.99244    0.01278     3.00480
      O   13   -0.30534      0.99989     3.29700    0.00845     4.30534
      C   14   -0.01199      0.99957     1.99954    0.01288     3.01199
      C   15   -0.20818      0.99959     2.19937    0.00922     3.20818
      C   16    0.33748      0.99965     1.63951    0.02336     2.66252
      O   17   -0.31745      0.99988     3.31186    0.00571     4.31745
      N   18   -0.40277      0.99971     2.89502    0.00803     3.90277
      H   19    0.10765      0.00000     0.39049    0.00186     0.39235
      H   20    0.11441      0.00000     0.38409    0.00150     0.38559
      H   21    0.10440      0.00000     0.39412    0.00148     0.39560
      H   22    0.10734      0.00000     0.39175    0.00091     0.39266
      H   23    0.09803      0.00000     0.40122    0.00075     0.40197
      H   24    0.10214      0.00000     0.39611    0.00175     0.39786
      H   25    0.19558      0.00000     0.30034    0.00408     0.30442
      H   26    0.10018      0.00000     0.39629    0.00353     0.39982
      H   27    0.10736      0.00000     0.39141    0.00123     0.39264
      H   28    0.09607      0.00000     0.40243    0.00150     0.40393
      H   29    0.10350      0.00000     0.39560    0.00090     0.39650
      H   30    0.09842      0.00000     0.39954    0.00204     0.40158
      H   31    0.08637      0.00000     0.41257    0.00106     0.41363
      H   32    0.07840      0.00000     0.42054    0.00106     0.42160
      H   33    0.08238      0.00000     0.41604    0.00158     0.41762
      H   34    0.08888      0.00000     0.41005    0.00107     0.41112
      H   35    0.10333      0.00000     0.39540    0.00127     0.39667
      H   36    0.10335      0.00000     0.39527    0.00139     0.39665
      H   37    0.19713      0.00000     0.29961    0.00326     0.30287
      H   38    0.19447      0.00000     0.30342    0.00211     0.30553
 =======================================================================
   * Total *   -0.00000     17.99292    48.78159    0.22549    67.00000

 Normal termination of Gaussian 16 at Fri Dec 11 21:56:35 2020.
