 Gaussian 16, Revision A.03,

 -----------------------------------------------------------
 # opt freq B3LYP/6-31G(d) empiricaldispersion=gd3bj scf=xqc
 -----------------------------------------------------------

 -------------------------------
 CID_106563968_JID_6517_neutraal
 -------------------------------
 Symbolic Z-matrix:
 Charge =  0 Multiplicity = 1

 SCF Done:  E(RB3LYP) =  -705.832325227     A.U. after   14 cycles
 SCF Done:  E(RB3LYP) =  -705.838629085     A.U. after   13 cycles
 SCF Done:  E(RB3LYP) =  -705.837276629     A.U. after   14 cycles
 SCF Done:  E(RB3LYP) =  -705.839417395     A.U. after   12 cycles
 SCF Done:  E(RB3LYP) =  -705.840466897     A.U. after   13 cycles
 SCF Done:  E(RB3LYP) =  -705.840702301     A.U. after   11 cycles
 SCF Done:  E(RB3LYP) =  -705.840839256     A.U. after   11 cycles
 SCF Done:  E(RB3LYP) =  -705.840953485     A.U. after   11 cycles
 SCF Done:  E(RB3LYP) =  -705.840975348     A.U. after   11 cycles
 SCF Done:  E(RB3LYP) =  -705.840993194     A.U. after   10 cycles
 SCF Done:  E(RB3LYP) =  -705.841011179     A.U. after    9 cycles
 SCF Done:  E(RB3LYP) =  -705.841014745     A.U. after    9 cycles
 SCF Done:  E(RB3LYP) =  -705.841018871     A.U. after    9 cycles
 SCF Done:  E(RB3LYP) =  -705.841019595     A.U. after    8 cycles
 SCF Done:  E(RB3LYP) =  -705.841019683     A.U. after    7 cycles
 Optimization completed.
    -- Stationary point found.
 Normal termination of Gaussian 16 at Thu Dec 10 23:28:54 2020.

 --------------------------------------------------------------------
 #N Geom=AllCheck Guess=TCheck SCRF=Check GenChk RB3LYP/6-31G(d) Freq
 --------------------------------------------------------------------

 Structure from the checkpoint file:  "JID_6517.chk"
 -------------------------------
 CID_106563968_JID_6517_neutraal
 -------------------------------
 Charge =  0 Multiplicity = 1

 SCF Done:  E(RB3LYP) =  -705.841019683     A.U. after    1 cycles

  Exact polarizability: 146.638  -3.699 157.761  24.245   0.262 107.906
 Approx polarizability: 204.430  -9.031 256.765  46.207  -1.302 179.010

                      1                      2                      3
                      A                      A                      A
 Frequencies --     28.1797                49.3245                59.8371
 Red. masses --      5.0504                 4.4005                 3.8235
 Frc consts  --      0.0024                 0.0063                 0.0081
 IR Inten    --      1.0305                 0.0682                 0.4208

                      4                      5                      6
                      A                      A                      A
 Frequencies --    104.2018               119.0323               130.0043
 Red. masses --      3.7717                 3.5369                 1.1838
 Frc consts  --      0.0241                 0.0295                 0.0118
 IR Inten    --      1.1981                 2.2687                 0.3273

                      7                      8                      9
                      A                      A                      A
 Frequencies --    195.2774               211.2512               229.1070
 Red. masses --      4.0915                 3.8304                 4.5386
 Frc consts  --      0.0919                 0.1007                 0.1404
 IR Inten    --      3.5873                 0.5262                10.8814

                     10                     11                     12
                      A                      A                      A
 Frequencies --    274.8500               281.2935               317.9641
 Red. masses --      2.7219                 3.1552                 2.9564
 Frc consts  --      0.1211                 0.1471                 0.1761
 IR Inten    --      6.9697                 2.0300                 3.2566

                     13                     14                     15
                      A                      A                      A
 Frequencies --    337.3589               381.3166               419.7803
 Red. masses --      1.4996                 1.8656                 4.4358
 Frc consts  --      0.1006                 0.1598                 0.4605
 IR Inten    --     18.7848                19.9910                 2.2419

                     16                     17                     18
                      A                      A                      A
 Frequencies --    427.2632               487.7825               506.8953
 Red. masses --      3.2590                 2.5319                 3.2202
 Frc consts  --      0.3505                 0.3549                 0.4875
 IR Inten    --      0.2883                 3.5741                 3.8856

                     19                     20                     21
                      A                      A                      A
 Frequencies --    532.0771               573.2207               609.9525
 Red. masses --      3.1552                 4.1028                 3.6323
 Frc consts  --      0.5263                 0.7943                 0.7962
 IR Inten    --      7.5580                 3.6413                 1.3235

                     22                     23                     24
                      A                      A                      A
 Frequencies --    631.1396               641.3961               655.3964
 Red. masses --      6.3190                 4.3982                 1.3253
 Frc consts  --      1.4830                 1.0661                 0.3354
 IR Inten    --      1.4023                10.7522                30.6876

                     25                     26                     27
                      A                      A                      A
 Frequencies --    658.4154               701.9360               709.1388
 Red. masses --      3.8823                 3.5054                 2.6293
 Frc consts  --      0.9916                 1.0176                 0.7790
 IR Inten    --     18.7960                15.7840                20.8336

                     28                     29                     30
                      A                      A                      A
 Frequencies --    768.6322               788.7429               828.2934
 Red. masses --      1.6075                 3.8329                 3.5518
 Frc consts  --      0.5596                 1.4049                 1.4357
 IR Inten    --     50.4065                17.3493                 3.6484

                     31                     32                     33
                      A                      A                      A
 Frequencies --    845.9867               853.1484               908.9864
 Red. masses --      1.2781                 1.4723                 2.0585
 Frc consts  --      0.5389                 0.6314                 1.0021
 IR Inten    --     24.6384               233.8900                20.1664

                     34                     35                     36
                      A                      A                      A
 Frequencies --    917.8601               965.2993               966.1985
 Red. masses --      1.6133                 1.3244                 2.2894
 Frc consts  --      0.8008                 0.7271                 1.2592
 IR Inten    --      6.4744                 0.3012                 0.7591

                     37                     38                     39
                      A                      A                      A
 Frequencies --    987.7185              1007.0127              1020.0725
 Red. masses --      1.2313                 2.1530                 5.5796
 Frc consts  --      0.7078                 1.2863                 3.4207
 IR Inten    --      1.0144                 4.5865                 0.6120

                     40                     41                     42
                      A                      A                      A
 Frequencies --   1034.8548              1055.0590              1074.0483
 Red. masses --      2.4168                 2.4548                 2.8944
 Frc consts  --      1.5249                 1.6100                 1.9672
 IR Inten    --      4.3064                 1.6425                48.3893

                     43                     44                     45
                      A                      A                      A
 Frequencies --   1079.7209              1101.5314              1119.1134
 Red. masses --      1.4809                 2.1589                 1.5352
 Frc consts  --      1.0172                 1.5434                 1.1328
 IR Inten    --      2.3103                 1.2914                 5.6649

                     46                     47                     48
                      A                      A                      A
 Frequencies --   1161.5089              1190.2893              1201.1907
 Red. masses --      1.7084                 1.1040                 2.3092
 Frc consts  --      1.3580                 0.9216                 1.9631
 IR Inten    --     35.6446                 1.9275                 0.5819

                     49                     50                     51
                      A                      A                      A
 Frequencies --   1211.5006              1212.3416              1253.8353
 Red. masses --      1.1934                 1.5318                 2.3909
 Frc consts  --      1.0320                 1.3265                 2.2145
 IR Inten    --     26.3406                 3.7037               170.3821

                     52                     53                     54
                      A                      A                      A
 Frequencies --   1305.5397              1320.9224              1345.1525
 Red. masses --      1.8691                 1.5552                 3.9022
 Frc consts  --      1.8770                 1.5988                 4.1601
 IR Inten    --     27.9013                32.5793                44.3416

                     55                     56                     57
                      A                      A                      A
 Frequencies --   1348.3144              1370.8530              1399.2799
 Red. masses --      2.0279                 2.3711                 2.6185
 Frc consts  --      2.1721                 2.6254                 3.0207
 IR Inten    --     16.0841                 3.6623                20.9108

                     58                     59                     60
                      A                      A                      A
 Frequencies --   1416.5807              1425.3618              1447.0560
 Red. masses --      1.4001                 1.3298                 1.3809
 Frc consts  --      1.6554                 1.5918                 1.7037
 IR Inten    --     22.5738                13.1354                 3.7432

                     61                     62                     63
                      A                      A                      A
 Frequencies --   1498.3843              1504.8034              1505.5360
 Red. masses --      1.2502                 2.1560                 1.0657
 Frc consts  --      1.6538                 2.8764                 1.4232
 IR Inten    --     19.6806                 2.3530                 3.7845

                     64                     65                     66
                      A                      A                      A
 Frequencies --   1518.0714              1525.3322              1540.4659
 Red. masses --      1.2277                 1.1178                 2.1947
 Frc consts  --      1.6670                 1.5323                 3.0685
 IR Inten    --     32.9495                 7.8287                36.0769

                     67                     68                     69
                      A                      A                      A
 Frequencies --   1547.1820              1598.7111              1629.6066
 Red. masses --      2.3016                 3.5540                 5.0048
 Frc consts  --      3.2461                 5.3519                 7.8307
 IR Inten    --     99.7976                97.0326                 3.9742

                     70                     71                     72
                      A                      A                      A
 Frequencies --   1649.7717              1662.7049              1685.8390
 Red. masses --      5.8721                 5.5026                 1.3607
 Frc consts  --      9.4165                 8.9628                 2.2784
 IR Inten    --     14.3438                41.7112                94.2517

                     73                     74                     75
                      A                      A                      A
 Frequencies --   3045.2796              3056.0460              3071.1850
 Red. masses --      1.0362                 1.0598                 1.0601
 Frc consts  --      5.6617                 5.8316                 5.8915
 IR Inten    --     41.5030                32.8183                49.4563

                     76                     77                     78
                      A                      A                      A
 Frequencies --   3098.0140              3108.6380              3124.3818
 Red. masses --      1.1011                 1.1072                 1.1018
 Frc consts  --      6.2266                 6.3040                 6.3368
 IR Inten    --     21.0382                19.9765                20.7247

                     79                     80                     81
                      A                      A                      A
 Frequencies --   3125.0389              3187.4287              3196.2412
 Red. masses --      1.1056                 1.0852                 1.0893
 Frc consts  --      6.3615                 6.4958                 6.5564
 IR Inten    --     15.8281                 0.7067                16.2569

                     82                     83                     84
                      A                      A                      A
 Frequencies --   3209.4538              3216.9094              3224.4656
 Red. masses --      1.0926                 1.0960                 1.0939
 Frc consts  --      6.6309                 6.6828                 6.7008
 IR Inten    --     24.5121                 9.8065                 8.7108

                     85                     86                     87
                      A                      A                      A
 Frequencies --   3275.2652              3514.6087              3619.2974
 Red. masses --      1.0975                 1.0507                 1.0934
 Frc consts  --      6.9365                 7.6468                 8.4384
 IR Inten    --      1.8384                25.6131                32.7426

 - Thermochemistry -
 -------------------
 Temperature   298.150 Kelvin.  Pressure   1.00000 Atm.
 Atom     1 has atomic number  6 and mass  12.00000

 Molecular mass:   217.12151 amu.
 Principal axes and moments of inertia in atomic units:
                           1         2         3
     Eigenvalues --  2263.122004228.907705267.22102
           X            0.99980  -0.01249   0.01581
           Y            0.01251   0.99992  -0.00116
           Z           -0.01580   0.00136   0.99987
 This molecule is an asymmetric top.
 Rotational symmetry number  1.
 Warning -- assumption of classical behavior for rotation
           may cause significant error
 Rotational temperatures (Kelvin)      0.03827     0.02048     0.01644
 Rotational constants (GHZ):           0.79746     0.42676     0.34264
 Zero-point vibrational energy     682733.1 (Joules/Mol)
                                  163.17713 (Kcal/Mol)
 Warning -- explicit consideration of  21 degrees of freedom as
           vibrations may cause significant error
 Vibrational temperatures:     40.54    70.97    86.09   149.92   171.26
          (Kelvin)            187.05   280.96   303.94   329.63   395.45
                              404.72   457.48   485.38   548.63   603.97
                              614.74   701.81   729.31   765.54   824.74
                              877.59   908.07   922.83   942.97   947.31
                             1009.93  1020.29  1105.89  1134.83  1191.73
                             1217.19  1227.49  1307.83  1320.60  1388.85
                             1390.14  1421.11  1448.87  1467.66  1488.93
                             1517.99  1545.32  1553.48  1584.86  1610.15
                             1671.15  1712.56  1728.25  1743.08  1744.29
                             1803.99  1878.38  1900.51  1935.37  1939.92
                             1972.35  2013.25  2038.14  2050.78  2081.99
                             2155.84  2165.08  2166.13  2184.17  2194.61
                             2216.39  2226.05  2300.19  2344.64  2373.65
                             2392.26  2425.55  4381.48  4396.97  4418.75
                             4457.35  4472.64  4495.29  4496.23  4586.00
                             4598.68  4617.69  4628.42  4639.29  4712.38
                             5056.74  5207.36

 Zero-point correction=                           0.260039 (Hartree/Particle)
 Thermal correction to Energy=                    0.274508
 Thermal correction to Enthalpy=                  0.275452
 Thermal correction to Gibbs Free Energy=         0.217881
 Sum of electronic and zero-point Energies=           -705.580980
 Sum of electronic and thermal Energies=              -705.566511
 Sum of electronic and thermal Enthalpies=            -705.565567
 Sum of electronic and thermal Free Energies=         -705.623139

                     E (Thermal)             CV                S
                      KCal/Mol        Cal/Mol-Kelvin    Cal/Mol-Kelvin
 Total                  172.257             56.168            121.170
 Electronic               0.000              0.000              0.000
 Translational            0.889              2.981             42.029
 Rotational               0.889              2.981             32.289
 Vibrational            170.479             50.206             46.853
 Vibration     1          0.593              1.984              5.954
 Vibration     2          0.595              1.978              4.844
 Vibration     3          0.597              1.973              4.463
 Vibration     4          0.605              1.946              3.374
 Vibration     5          0.609              1.933              3.116
 Vibration     6          0.612              1.923              2.946
 Vibration     7          0.636              1.846              2.177
 Vibration     8          0.643              1.824              2.033
 Vibration     9          0.652              1.797              1.886
 Vibration    10          0.677              1.720              1.566
 Vibration    11          0.681              1.708              1.526
 Vibration    12          0.704              1.639              1.321
 Vibration    13          0.718              1.601              1.225
 Vibration    14          0.751              1.510              1.034
 Vibration    15          0.782              1.427              0.893
 Vibration    16          0.789              1.411              0.868
 Vibration    17          0.844              1.277              0.689
 Vibration    18          0.862              1.235              0.641
 Vibration    19          0.887              1.179              0.583
 Vibration    20          0.929              1.089              0.498
 Vibration    21          0.969              1.011              0.433

                           ! Non-Optimized Parameters !
 Normal termination of Gaussian 16 at Thu Dec 10 23:39:56 2020.

 ----------------------------------------------------------------------
 # B3LYP/6-311++G(d,p) empiricaldispersion=gd3bj scf=xqc pop=npa geom=c
 heck
 ----------------------------------------------------------------------

 ---------------------------------------
 CID_106563968_JID_6517_Energie_neutraal
 ---------------------------------------
 Structure from the checkpoint file:  "JID_6517.chk"
 Charge =  0 Multiplicity = 1

 SCF Done:  E(RB3LYP) =  -706.037955236     A.U. after   15 cycles
 Normal termination of Gaussian 16 at Thu Dec 10 23:44:20 2020.

 ----------------------------------------------------------------------
 # B3LYP/6-311++G(d,p) empiricaldispersion=gd3bj scf=xqc pop=npa geom=c
 heck
 ----------------------------------------------------------------------

 -------------------------------------
 CID_106563968_JID_6517_Energie_kation
 -------------------------------------
 Structure from the checkpoint file:  "JID_6517.chk"
 Charge =  1 Multiplicity = 2

 SCF Done:  E(UB3LYP) =  -705.767971590     A.U. after   23 cycles
 Normal termination of Gaussian 16 at Thu Dec 10 23:52:54 2020.
 Gaussian 16:  ES64L-G16RevA.03 25-Dec-2016

 ----------------------------------------------------------------------
 # B3LYP/6-311++G(d,p) empiricaldispersion=gd3bj scf=xqc pop=npa geom=c
 heck
 ----------------------------------------------------------------------

 ------------------------------------
 CID_106563968_JID_6517_Energie_anion
 ------------------------------------
 Structure from the checkpoint file:  "JID_6517.chk"
 Charge = -1 Multiplicity = 2

                         Standard orientation:
 ---------------------------------------------------------------------
 Center     Atomic      Atomic             Coordinates (Angstroms)
 Number     Number       Type             X           Y           Z
 ---------------------------------------------------------------------
      1          6           0       -3.230470    2.394231   -0.362025
      2          6           0       -2.535218    1.103999   -0.071600
      3          6           0       -2.363876    0.020649   -0.892678
      4          7           0       -1.677461   -0.930342   -0.131204
      5          6           0       -1.439459   -0.346637    1.086676
      6          7           0       -1.947038    0.867179    1.163116
      7          7           0       -0.790621   -1.035211    2.107534
      8          6           0       -1.170754   -2.207822   -0.582682
      9          6           0        0.239533   -2.121235   -1.164949
     10          8           0        1.183576   -1.745380   -0.160560
     11          6           0        1.763000   -0.491707   -0.199271
     12          6           0        3.042488   -0.405076    0.357155
     13          6           0        3.690331    0.826116    0.414151
     14          6           0        3.071638    1.972950   -0.088954
     15          6           0        1.794805    1.874847   -0.639470
     16          6           0        1.127590    0.649558   -0.695411
     17          1           0       -4.086056    2.540319    0.308253
     18          1           0       -3.595479    2.422359   -1.393773
     19          1           0       -2.556103    3.245572   -0.211352
     20          1           0       -2.672965   -0.186435   -1.906450
     21          1           0        0.107109   -1.411295    1.813534
     22          1           0       -0.674251   -0.419537    2.905314
     23          1           0       -1.172587   -2.894618    0.269767
     24          1           0       -1.852225   -2.610688   -1.340081
     25          1           0        0.542684   -3.111355   -1.525766
     26          1           0        0.275075   -1.420569   -2.005169
     27          1           0        3.509284   -1.309916    0.733204
     28          1           0        4.685021    0.886714    0.846868
     29          1           0        3.577463    2.932668   -0.045124
     30          1           0        1.293760    2.761690   -1.016736
     31          1           0        0.118864    0.607508   -1.089787
 ---------------------------------------------------------------------

 SCF Done:  E(UB3LYP) =  -706.025718461     A.U. after   33 cycles
 SCF Done:  E(UB3LYP) =  -706.025718460     a.u. after    1 cycles

 The electronic state is 2-A.
 Alpha  occ. eigenvalues --  -19.06253 -14.26600 -14.22813 -14.18687 -10.15930
 Alpha  occ. eigenvalues --  -10.14522 -10.13677 -10.12288 -10.09342 -10.09054
 Alpha  occ. eigenvalues --  -10.08774 -10.08659 -10.08210 -10.08165 -10.08090
 Alpha  occ. eigenvalues --  -10.07383  -0.97649  -0.92714  -0.81366  -0.79180
 Alpha  occ. eigenvalues --   -0.76527  -0.68546  -0.66073  -0.66023  -0.64305
 Alpha  occ. eigenvalues --   -0.59632  -0.56497  -0.52356  -0.50317  -0.49195
 Alpha  occ. eigenvalues --   -0.47413  -0.45061  -0.43212  -0.41156  -0.40223
 Alpha  occ. eigenvalues --   -0.39461  -0.38051  -0.36613  -0.35765  -0.34411
 Alpha  occ. eigenvalues --   -0.33885  -0.33602  -0.32653  -0.31496  -0.30807
 Alpha  occ. eigenvalues --   -0.29461  -0.29104  -0.28266  -0.27602  -0.26842
 Alpha  occ. eigenvalues --   -0.24865  -0.22910  -0.21180  -0.17897  -0.17043
 Alpha  occ. eigenvalues --   -0.16625  -0.14145  -0.10815   0.04216
 Alpha virt. eigenvalues --    0.05904   0.06611   0.07256   0.07693   0.08027
 Alpha virt. eigenvalues --    0.08405   0.08630   0.08978   0.09912   0.10368
 Alpha virt. eigenvalues --    0.10608   0.11333   0.12093   0.12533   0.12741

  Beta  occ. eigenvalues --  -19.06249 -14.26603 -14.22803 -14.18682 -10.15924
  Beta  occ. eigenvalues --  -10.14519 -10.13639 -10.12252 -10.09342 -10.09031
  Beta  occ. eigenvalues --  -10.08765 -10.08646 -10.08193 -10.08161 -10.08076
  Beta  occ. eigenvalues --  -10.07372  -0.97636  -0.92707  -0.81352  -0.79166
  Beta  occ. eigenvalues --   -0.76504  -0.68505  -0.66049  -0.66002  -0.64269
  Beta  occ. eigenvalues --   -0.59597  -0.56445  -0.52321  -0.50276  -0.49178
  Beta  occ. eigenvalues --   -0.47373  -0.45028  -0.43175  -0.41119  -0.40188
  Beta  occ. eigenvalues --   -0.39426  -0.38018  -0.36585  -0.35724  -0.34373
  Beta  occ. eigenvalues --   -0.33859  -0.33574  -0.32622  -0.31448  -0.30787
  Beta  occ. eigenvalues --   -0.29443  -0.29077  -0.28234  -0.27573  -0.26812
  Beta  occ. eigenvalues --   -0.24827  -0.22890  -0.21155  -0.17884  -0.17019
  Beta  occ. eigenvalues --   -0.16599  -0.14109  -0.10791
  Beta virt. eigenvalues --    0.06241   0.06940   0.07233   0.07444   0.08248
  Beta virt. eigenvalues --    0.08350   0.08586   0.09138   0.09525   0.10328
  Beta virt. eigenvalues --    0.10747   0.11025   0.11472   0.12287   0.12837

 Mulliken charges and spin densities:
               1          2
     1  C    0.940482  -1.535664
     2  C    0.670742  -0.591329
     3  C   -0.968571   0.754120
     4  N    0.117537  -0.001406
     5  C   -0.458644   0.202220
     6  N   -0.183434   0.076994
     7  N   -0.358529   0.049459
     8  C    0.546237  -0.848389
     9  C    1.300903  -1.529521
    10  O   -0.073517  -0.017001
    11  C   -0.716000   0.564921
    12  C   -1.637262   1.476301
    13  C    0.589825  -0.738141
    14  C    0.734782  -1.097509
    15  C   -0.226000  -0.021698
    16  C    1.101337  -0.861774
    17  H    0.078797   0.063529
    18  H    0.017566   0.121664
    19  H    0.086019   0.062926
    20  H   -0.936461   1.105415
    21  H    0.302814  -0.049270
    22  H    0.211609   0.068160
    23  H   -0.071383   0.282752
    24  H   -0.546995   0.735386
    25  H   -0.987846   1.208643
    26  H   -0.239253   0.421187
    27  H   -0.265192   0.440946
    28  H   -0.347984   0.515930
    29  H   -0.113033   0.259453
    30  H   -0.201737   0.386166
    31  H    0.633191  -0.504469
 Sum of Mulliken charges =  -1.00000   1.00000

 Dipole moment (field-independent basis, Debye):
    X=              0.2422    Y=              3.8371    Z=              3.7582  Tot=              5.3765
 Quadrupole moment (field-independent basis, Debye-Ang):
   XX=           -158.4282   YY=           -152.3937   ZZ=           -136.8537
   XY=             -5.8159   XZ=             -6.4764   YZ=            -14.9909

 Summary of Natural Population Analysis:

                                       Natural Population
                Natural  -----------------------------------------------
    Atom  No    Charge         Core      Valence    Rydberg      Total
 -----------------------------------------------------------------------
      C    1   -0.29395      0.99963     2.28943    0.00489     3.29395
      C    2    0.05368      0.99955     1.93244    0.01433     2.94632
      C    3   -0.05079      0.99947     2.03876    0.01256     3.05079
      N    4   -0.22476      0.99961     2.71317    0.01198     3.72476
      C    5    0.28633      0.99960     1.69701    0.01706     2.71367
      N    6   -0.28730      0.99967     2.77814    0.00949     3.78730
      N    7   -0.41035      0.99971     2.90281    0.00783     3.91035
      C    8   -0.09757      0.99960     2.08532    0.01265     3.09757
      C    9   -0.01199      0.99955     1.99983    0.01261     3.01199
      O   10   -0.29318      0.99986     3.28252    0.01080     4.29318
      C   11    0.15564      0.99936     1.83075    0.01425     2.84436
      C   12   -0.12085      0.99951     2.11049    0.01085     3.12085
      C   13   -0.09685      0.99957     2.08711    0.01017     3.09685
      C   14   -0.11435      0.99956     2.10525    0.00955     3.11435
      C   15   -0.08775      0.99957     2.07890    0.00928     3.08775
      C   16   -0.13849      0.99950     2.12961    0.00938     3.13849
      H   17    0.10167      0.00000     0.39712    0.00122     0.39833
      H   18    0.10178      0.00000     0.39745    0.00077     0.39822
      H   19    0.10322      0.00000     0.39544    0.00133     0.39678
      H   20    0.10788      0.00000     0.39039    0.00173     0.39212
      H   21    0.19526      0.00000     0.30250    0.00224     0.30474
      H   22    0.19017      0.00000     0.30812    0.00172     0.30983
      H   23    0.10660      0.00000     0.39168    0.00172     0.39340
      H   24    0.11123      0.00000     0.38465    0.00412     0.38877
      H   25    0.09880      0.00000     0.39724    0.00396     0.40120
      H   26    0.09152      0.00000     0.40601    0.00247     0.40848
      H   27    0.10736      0.00000     0.39135    0.00128     0.39264
      H   28    0.10134      0.00000     0.39752    0.00114     0.39866
      H   29    0.10072      0.00000     0.39833    0.00095     0.39928
      H   30    0.10135      0.00000     0.39768    0.00097     0.39865
      H   31    0.11364      0.00000     0.38343    0.00293     0.38636
 =======================================================================
   * Total *   -0.00000     15.99331    41.80044    0.20625    58.00000

 Normal termination of Gaussian 16 at Fri Dec 11 00:05:25 2020.
