 Gaussian 16, Revision A.03,

 -----------------------------------------------------------
 # opt freq B3LYP/6-31G(d) empiricaldispersion=gd3bj scf=xqc
 -----------------------------------------------------------

 -------------------------------
 CID_148259389_JID_3455_neutraal
 -------------------------------
 Symbolic Z-matrix:
 Charge =  0 Multiplicity = 1

 SCF Done:  E(RB3LYP) =  -578.059476559     A.U. after   15 cycles
 SCF Done:  E(RB3LYP) =  -578.063738613     A.U. after   15 cycles
 SCF Done:  E(RB3LYP) =  -578.064606924     A.U. after   14 cycles
 SCF Done:  E(RB3LYP) =  -578.068262378     A.U. after   13 cycles
 SCF Done:  E(RB3LYP) =  -578.069195813     A.U. after   13 cycles
 SCF Done:  E(RB3LYP) =  -578.068452346     A.U. after   15 cycles
 SCF Done:  E(RB3LYP) =  -578.069914382     A.U. after   14 cycles
 SCF Done:  E(RB3LYP) =  -578.070010162     A.U. after   12 cycles
 SCF Done:  E(RB3LYP) =  -578.070075345     A.U. after   13 cycles
 SCF Done:  E(RB3LYP) =  -578.070113970     A.U. after   11 cycles
 SCF Done:  E(RB3LYP) =  -578.070217673     A.U. after   12 cycles
 SCF Done:  E(RB3LYP) =  -578.070241197     A.U. after   11 cycles
 SCF Done:  E(RB3LYP) =  -578.070254946     A.U. after   10 cycles
 SCF Done:  E(RB3LYP) =  -578.070255788     A.U. after   10 cycles
 SCF Done:  E(RB3LYP) =  -578.070255962     A.U. after    9 cycles
 SCF Done:  E(RB3LYP) =  -578.070255988     A.U. after    7 cycles
 Optimization completed.
    -- Stationary point found.
 Normal termination of Gaussian 16 at Wed Dec  9 23:19:58 2020.

 --------------------------------------------------------------------
 #N Geom=AllCheck Guess=TCheck SCRF=Check GenChk RB3LYP/6-31G(d) Freq
 --------------------------------------------------------------------

 Structure from the checkpoint file:  "JID_3455.chk"
 -------------------------------
 CID_148259389_JID_3455_neutraal
 -------------------------------
 Charge =  0 Multiplicity = 1

 SCF Done:  E(RB3LYP) =  -578.070255988     A.U. after    1 cycles

  Exact polarizability: 154.609  -8.813 128.241  -2.357  -3.469  84.484
 Approx polarizability: 232.132 -24.524 204.609 -11.469 -12.550 135.308

                      1                      2                      3
                      A                      A                      A
 Frequencies --     44.0027                72.2937                86.4707
 Red. masses --      4.3672                 3.2765                 1.3890
 Frc consts  --      0.0050                 0.0101                 0.0061
 IR Inten    --      1.8347                 2.1216                 0.8549

                      4                      5                      6
                      A                      A                      A
 Frequencies --    106.7581               127.7142               175.8896
 Red. masses --      4.3729                 2.8800                 1.1269
 Frc consts  --      0.0294                 0.0277                 0.0205
 IR Inten    --      0.4539                 3.1206                 0.0519

                      7                      8                      9
                      A                      A                      A
 Frequencies --    184.7869               197.0876               223.0131
 Red. masses --      2.6189                 3.2603                 3.3600
 Frc consts  --      0.0527                 0.0746                 0.0985
 IR Inten    --      2.6832                 4.8985                 8.1081

                     10                     11                     12
                      A                      A                      A
 Frequencies --    227.3593               247.5892               294.7516
 Red. masses --      2.3473                 1.1313                 3.0841
 Frc consts  --      0.0715                 0.0409                 0.1579
 IR Inten    --      0.9349                 0.1112                 1.9515

                     13                     14                     15
                      A                      A                      A
 Frequencies --    322.8758               334.4165               365.3121
 Red. masses --      3.5878                 2.7636                 2.6020
 Frc consts  --      0.2204                 0.1821                 0.2046
 IR Inten    --      3.6393                 0.1963                 0.7895

                     16                     17                     18
                      A                      A                      A
 Frequencies --    378.6061               439.7292               557.5805
 Red. masses --      3.4746                 4.3855                 3.4319
 Frc consts  --      0.2935                 0.4996                 0.6286
 IR Inten    --      2.0185                 7.5847                14.5679

                     19                     20                     21
                      A                      A                      A
 Frequencies --    571.1546               586.8482               601.9825
 Red. masses --      3.1422                 4.2020                 2.9790
 Frc consts  --      0.6039                 0.8526                 0.6361
 IR Inten    --      3.8799                17.1649                 0.6656

                     22                     23                     24
                      A                      A                      A
 Frequencies --    663.7203               706.4284               792.0397
 Red. masses --      4.2578                 3.9961                 2.6008
 Frc consts  --      1.1051                 1.1750                 0.9613
 IR Inten    --      6.3227                 4.0035                 2.2915

                     25                     26                     27
                      A                      A                      A
 Frequencies --    822.4206               870.7275               885.1648
 Red. masses --      3.7497                 1.5481                 1.9713
 Frc consts  --      1.4943                 0.6915                 0.9100
 IR Inten    --     34.8284                16.2891                11.3327

                     28                     29                     30
                      A                      A                      A
 Frequencies --    939.4628               966.6291              1000.2499
 Red. masses --      2.3154                 2.2082                 1.7903
 Frc consts  --      1.2040                 1.2156                 1.0554
 IR Inten    --     15.0089                11.2662                 5.7793

                     31                     32                     33
                      A                      A                      A
 Frequencies --   1012.8727              1021.8301              1046.8322
 Red. masses --      1.5225                 1.7428                 1.6622
 Frc consts  --      0.9203                 1.0722                 1.0732
 IR Inten    --      1.6766                 2.5315                 8.5922

                     34                     35                     36
                      A                      A                      A
 Frequencies --   1063.8475              1088.6069              1109.3503
 Red. masses --      1.5725                 1.9164                 1.7441
 Frc consts  --      1.0486                 1.3381                 1.2646
 IR Inten    --      4.5341                 2.5665                 3.8809

                     37                     38                     39
                      A                      A                      A
 Frequencies --   1133.3254              1174.1862              1201.6272
 Red. masses --      1.9678                 3.0317                 2.1031
 Frc consts  --      1.4892                 2.4627                 1.7892
 IR Inten    --      3.4669                42.7451                60.6587

                     40                     41                     42
                      A                      A                      A
 Frequencies --   1212.5803              1265.6445              1286.7119
 Red. masses --      2.2429                 1.6131                 2.2286
 Frc consts  --      1.9430                 1.5224                 2.1739
 IR Inten    --     16.2983                10.1120                56.3513

                     43                     44                     45
                      A                      A                      A
 Frequencies --   1336.0085              1358.2256              1397.9618
 Red. masses --      1.9225                 1.3921                 1.6861
 Frc consts  --      2.0218                 1.5131                 1.9414
 IR Inten    --      1.4183                 6.1432                 2.5008

                     46                     47                     48
                      A                      A                      A
 Frequencies --   1412.1965              1413.2542              1438.1084
 Red. masses --      1.4115                 1.4688                 1.3435
 Frc consts  --      1.6585                 1.7285                 1.6371
 IR Inten    --     34.3529                11.0209                 5.3992

                     49                     50                     51
                      A                      A                      A
 Frequencies --   1440.5250              1446.2276              1486.4406
 Red. masses --      1.2432                 1.3925                 1.0572
 Frc consts  --      1.5200                 1.7160                 1.3762
 IR Inten    --      0.8506                 9.9817                10.6535

                     52                     53                     54
                      A                      A                      A
 Frequencies --   1501.3740              1503.0630              1504.5676
 Red. masses --      1.0942                 1.0546                 1.0477
 Frc consts  --      1.4532                 1.4037                 1.3974
 IR Inten    --      1.2351                 3.4817                 9.3911

                     55                     56                     57
                      A                      A                      A
 Frequencies --   1511.8427              1528.2969              1530.5050
 Red. masses --      1.0924                 1.0453                 1.0631
 Frc consts  --      1.4711                 1.4385                 1.4672
 IR Inten    --     22.9267                 7.5323                 3.4629

                     58                     59                     60
                      A                      A                      A
 Frequencies --   1602.3181              1700.2372              1764.0758
 Red. masses --      7.2674                 6.5165                 8.9357
 Frc consts  --     10.9933                11.0990                16.3837
 IR Inten    --    387.9299                 2.4191               159.3710

                     61                     62                     63
                      A                      A                      A
 Frequencies --   1800.1764              2916.8304              3002.0680
 Red. masses --     11.2520                 1.0834                 1.0693
 Frc consts  --     21.4837                 5.4306                 5.6778
 IR Inten    --    144.4139               155.3703                28.2165

                     64                     65                     66
                      A                      A                      A
 Frequencies --   3032.2727              3045.1700              3047.7170
 Red. masses --      1.0398                 1.0476                 1.0818
 Frc consts  --      5.6330                 5.7235                 5.9203
 IR Inten    --     18.4078                 6.0643                37.9756

                     67                     68                     69
                      A                      A                      A
 Frequencies --   3054.3989              3070.0383              3078.5665
 Red. masses --      1.0374                 1.0920                 1.0985
 Frc consts  --      5.7024                 6.0638                 6.1342
 IR Inten    --     23.0103                25.5380                18.3627

                     70                     71                     72
                      A                      A                      A
 Frequencies --   3121.2254              3132.7851              3134.3519
 Red. masses --      1.1019                 1.1001                 1.0850
 Frc consts  --      6.3245                 6.3613                 6.2801
 IR Inten    --     24.4151                13.2774                 5.4356

                     73                     74                     75
                      A                      A                      A
 Frequencies --   3135.8153              3179.2823              3184.1928
 Red. masses --      1.1027                 1.1052                 1.0901
 Frc consts  --      6.3888                 6.5821                 6.5122
 IR Inten    --     24.8926                 7.4574                15.2326

 - Thermochemistry -
 -------------------
 Temperature   298.150 Kelvin.  Pressure   1.00000 Atm.
 Atom     1 has atomic number  6 and mass  12.00000

 Molecular mass:   178.09938 amu.
 Principal axes and moments of inertia in atomic units:
                           1         2         3
     Eigenvalues --  1467.698502934.603453726.21978
           X            0.99975   0.01101   0.01955
           Y           -0.01157   0.99952   0.02868
           Z           -0.01922  -0.02890   0.99940
 This molecule is an asymmetric top.
 Rotational symmetry number  1.
 Warning -- assumption of classical behavior for rotation
           may cause significant error
 Rotational temperatures (Kelvin)      0.05901     0.02951     0.02324
 Rotational constants (GHZ):           1.22964     0.61499     0.48434
 Zero-point vibrational energy     593471.0 (Joules/Mol)
                                  141.84297 (Kcal/Mol)
 Warning -- explicit consideration of  21 degrees of freedom as
           vibrations may cause significant error
 Vibrational temperatures:     63.31   104.01   124.41   153.60   183.75
          (Kelvin)            253.07   265.87   283.57   320.87   327.12
                              356.23   424.08   464.55   481.15   525.60
                              544.73   632.67   802.23   821.76   844.34
                              866.12   954.95  1016.39  1139.57  1183.28
                             1252.78  1273.55  1351.68  1390.76  1439.14
                             1457.30  1470.19  1506.16  1530.64  1566.26
                             1596.11  1630.60  1689.39  1728.87  1744.63
                             1820.98  1851.29  1922.22  1954.18  2011.36
                             2031.84  2033.36  2069.12  2072.59  2080.80
                             2138.66  2160.14  2162.57  2164.74  2175.20
                             2198.88  2202.06  2305.38  2446.26  2538.11
                             2590.05  4196.67  4319.31  4362.76  4381.32
                             4384.98  4394.60  4417.10  4429.37  4490.75
                             4507.38  4509.63  4511.74  4574.28  4581.34

 Zero-point correction=                           0.226041 (Hartree/Particle)
 Thermal correction to Energy=                    0.239804
 Thermal correction to Enthalpy=                  0.240748
 Thermal correction to Gibbs Free Energy=         0.185775
 Sum of electronic and zero-point Energies=           -577.844215
 Sum of electronic and thermal Energies=              -577.830452
 Sum of electronic and thermal Enthalpies=            -577.829508
 Sum of electronic and thermal Free Energies=         -577.884481

                     E (Thermal)             CV                S
                      KCal/Mol        Cal/Mol-Kelvin    Cal/Mol-Kelvin
 Total                  150.479             50.257            115.702
 Electronic               0.000              0.000              0.000
 Translational            0.889              2.981             41.438
 Rotational               0.889              2.981             31.151
 Vibrational            148.702             44.296             43.112
 Vibration     1          0.595              1.980              5.070
 Vibration     2          0.598              1.967              4.090
 Vibration     3          0.601              1.959              3.738
 Vibration     4          0.606              1.944              3.327
 Vibration     5          0.611              1.925              2.980
 Vibration     6          0.628              1.872              2.372
 Vibration     7          0.631              1.861              2.279
 Vibration     8          0.636              1.844              2.160
 Vibration     9          0.649              1.806              1.934
 Vibration    10          0.651              1.799              1.900
 Vibration    11          0.661              1.767              1.748
 Vibration    12          0.689              1.684              1.447
 Vibration    13          0.708              1.630              1.295
 Vibration    14          0.716              1.607              1.239
 Vibration    15          0.739              1.544              1.099
 Vibration    16          0.749              1.516              1.045
 Vibration    17          0.800              1.384              0.827
 Vibration    18          0.913              1.123              0.529
 Vibration    19          0.927              1.094              0.502
 Vibration    20          0.944              1.060              0.473
 Vibration    21          0.960              1.028              0.446

 Optimization completed.
    -- Stationary point found.
 Normal termination of Gaussian 16 at Wed Dec  9 23:26:38 2020.

 ----------------------------------------------------------------------
 # B3LYP/6-311++G(d,p) empiricaldispersion=gd3bj scf=xqc pop=npa geom=c
 heck
 ----------------------------------------------------------------------

 ---------------------------------------
 CID_148259389_JID_3455_Energie_neutraal
 ---------------------------------------
 Structure from the checkpoint file:  "JID_3455.chk"
 Charge =  0 Multiplicity = 1

 SCF Done:  E(RB3LYP) =  -578.232629080     A.U. after   15 cycles
 Normal termination of Gaussian 16 at Wed Dec  9 23:29:06 2020.

 ----------------------------------------------------------------------
 # B3LYP/6-311++G(d,p) empiricaldispersion=gd3bj scf=xqc pop=npa geom=c
 heck
 ----------------------------------------------------------------------

 -------------------------------------
 CID_148259389_JID_3455_Energie_kation
 -------------------------------------
 Structure from the checkpoint file:  "JID_3455.chk"
 Charge =  1 Multiplicity = 2

 SCF Done:  E(UB3LYP) =  -577.928549261     A.U. after   26 cycles
 Normal termination of Gaussian 16 at Wed Dec  9 23:34:43 2020.
 Gaussian 16:  ES64L-G16RevA.03 25-Dec-2016

 ----------------------------------------------------------------------
 # B3LYP/6-311++G(d,p) empiricaldispersion=gd3bj scf=xqc pop=npa geom=c
 heck
 ----------------------------------------------------------------------

 ------------------------------------
 CID_148259389_JID_3455_Energie_anion
 ------------------------------------
 Structure from the checkpoint file:  "JID_3455.chk"
 Charge = -1 Multiplicity = 2

                         Standard orientation:
 ---------------------------------------------------------------------
 Center     Atomic      Atomic             Coordinates (Angstroms)
 Number     Number       Type             X           Y           Z
 ---------------------------------------------------------------------
      1          6           0        2.299413    1.118924    1.327511
      2          6           0        2.117136    0.761856   -0.161782
      3          6           0        0.943936    1.523810   -0.795707
      4          6           0       -0.391385    0.974438   -0.346703
      5          6           0       -0.512379   -0.364917   -0.136309
      6          6           0        0.650129   -1.232703   -0.262116
      7          6           0        1.905342   -0.736067   -0.299308
      8          6           0        3.119226   -1.611394   -0.365068
      9          6           0       -1.796424   -1.045084    0.293547
     10          8           0       -1.868557   -1.503075    1.417752
     11          6           0       -2.848426   -1.281236   -0.766141
     12          6           0       -1.529112    1.876856   -0.173235
     13          8           0       -2.639384    1.541221    0.216695
     14          1           0        2.513229    2.187921    1.439762
     15          1           0        3.128815    0.560230    1.772983
     16          1           0        1.391379    0.886838    1.892836
     17          1           0        3.035382    1.040214   -0.694237
     18          1           0        1.021250    2.591953   -0.557482
     19          1           0        1.012537    1.441997   -1.892261
     20          1           0        0.486843   -2.307449   -0.259213
     21          1           0        3.793505   -1.408992    0.477865
     22          1           0        2.859888   -2.673816   -0.350106
     23          1           0        3.695504   -1.408167   -1.278057
     24          1           0       -3.768578   -1.630791   -0.293230
     25          1           0       -3.042634   -0.376386   -1.344930
     26          1           0       -2.483809   -2.056470   -1.454628
     27          1           0       -1.324516    2.940845   -0.423014
 ---------------------------------------------------------------------

 SCF Done:  E(UB3LYP) =  -578.266147731     A.U. after   26 cycles

 The electronic state is 2-A.
 Alpha  occ. eigenvalues --  -18.95972 -18.92311 -10.11158 -10.06116 -10.04806
 Alpha  occ. eigenvalues --  -10.04795 -10.03722 -10.03347 -10.03222 -10.02473
 Alpha  occ. eigenvalues --  -10.02105 -10.01056 -10.00423  -0.89369  -0.85855
 Alpha  occ. eigenvalues --   -0.71352  -0.64252  -0.63085  -0.59973  -0.57077
 Alpha  occ. eigenvalues --   -0.54139  -0.48319  -0.46689  -0.42328  -0.38492
 Alpha  occ. eigenvalues --   -0.34937  -0.33787  -0.32446  -0.31482  -0.29893
 Alpha  occ. eigenvalues --   -0.29674  -0.29255  -0.28833  -0.28120  -0.27217
 Alpha  occ. eigenvalues --   -0.26599  -0.25212  -0.24236  -0.23741  -0.22958
 Alpha  occ. eigenvalues --   -0.21629  -0.20480  -0.19586  -0.18398  -0.15836
 Alpha  occ. eigenvalues --   -0.10414  -0.08313  -0.07469   0.02770
 Alpha virt. eigenvalues --    0.07952   0.09421   0.09923   0.10420   0.11401
 Alpha virt. eigenvalues --    0.11771   0.12421   0.12583   0.13121   0.13981
 Alpha virt. eigenvalues --    0.14075   0.14657   0.15184   0.16095   0.16310

  Beta  occ. eigenvalues --  -18.95902 -18.91819 -10.11153 -10.05888 -10.04841
  Beta  occ. eigenvalues --  -10.04818 -10.03694 -10.03345 -10.03213 -10.02238
  Beta  occ. eigenvalues --  -10.01999 -10.00645 -10.00349  -0.89214  -0.84974
  Beta  occ. eigenvalues --   -0.70955  -0.63728  -0.62855  -0.59875  -0.56843
  Beta  occ. eigenvalues --   -0.53902  -0.47775  -0.46327  -0.41980  -0.38130
  Beta  occ. eigenvalues --   -0.34761  -0.33616  -0.32281  -0.31137  -0.29683
  Beta  occ. eigenvalues --   -0.29443  -0.29071  -0.28652  -0.27894  -0.27058
  Beta  occ. eigenvalues --   -0.26500  -0.24900  -0.23971  -0.23400  -0.22471
  Beta  occ. eigenvalues --   -0.20897  -0.19624  -0.19105  -0.18185  -0.14395
  Beta  occ. eigenvalues --   -0.10172  -0.07846  -0.05608
  Beta virt. eigenvalues --    0.07817   0.09120   0.09618   0.09959   0.10457
  Beta virt. eigenvalues --    0.11375   0.11805   0.12397   0.12658   0.13332
  Beta virt. eigenvalues --    0.13966   0.14102   0.14793   0.15572   0.16174

 Mulliken charges and spin densities:
               1          2
     1  C   -0.743583  -0.043108
     2  C    0.896860  -0.160068
     3  C   -1.048965   0.129320
     4  C    0.560708   0.150663
     5  C    0.462865   0.265527
     6  C   -0.706278  -0.126924
     7  C    0.200127   0.316298
     8  C   -0.542857  -0.015749
     9  C   -0.138323   0.009160
    10  O   -0.278726   0.017467
    11  C   -0.624739  -0.015989
    12  C   -0.373951   0.189660
    13  O   -0.347487   0.165522
    14  H    0.075736   0.031633
    15  H    0.096881  -0.001417
    16  H    0.187819   0.003484
    17  H    0.150256   0.018137
    18  H    0.134060  -0.004768
    19  H    0.099979   0.013182
    20  H    0.143029   0.005598
    21  H    0.116182   0.010172
    22  H    0.127264   0.000441
    23  H    0.098109   0.046195
    24  H    0.141674   0.004471
    25  H    0.182192   0.002552
    26  H    0.112520   0.004341
    27  H    0.018648  -0.015803
 Sum of Mulliken charges =  -1.00000   1.00000

 Dipole moment (field-independent basis, Debye):
    X=              5.0718    Y=             -0.9412    Z=             -2.6607  Tot=              5.8042
 Quadrupole moment (field-independent basis, Debye-Ang):
   XX=           -112.0474   YY=            -95.6815   ZZ=            -92.4547
   XY=              5.7957   XZ=              7.3725   YZ=              2.9689

 Summary of Natural Population Analysis:

                                       Natural Population
                Natural  -----------------------------------------------
    Atom  No    Charge         Core      Valence    Rydberg      Total
 -----------------------------------------------------------------------
      C    1   -0.27905      0.99965     2.27465    0.00475     3.27905
      C    2   -0.11935      0.99957     2.11074    0.00904     3.11935
      C    3   -0.18522      0.99961     2.17780    0.00781     3.18522
      C    4   -0.06575      0.99944     2.05434    0.01197     3.06575
      C    5    0.04048      0.99938     1.94618    0.01397     2.95952
      C    6   -0.14716      0.99944     2.13948    0.00824     3.14716
      C    7    0.10027      0.99950     1.88999    0.01024     2.89973
      C    8   -0.29679      0.99963     2.29256    0.00460     3.29679
      C    9    0.30032      0.99964     1.67590    0.02415     2.69968
      O   10   -0.29117      0.99987     3.28377    0.00753     4.29117
      C   11   -0.32617      0.99961     2.32229    0.00428     3.32617
      C   12    0.22540      0.99965     1.75522    0.01973     2.77460
      O   13   -0.25397      0.99988     3.24606    0.00802     4.25397
      H   14    0.08974      0.00000     0.40862    0.00163     0.41026
      H   15    0.09102      0.00000     0.40813    0.00084     0.40898
      H   16    0.10821      0.00000     0.39098    0.00081     0.39179
      H   17    0.08937      0.00000     0.40868    0.00195     0.41063
      H   18    0.09421      0.00000     0.40439    0.00140     0.40579
      H   19    0.09577      0.00000     0.40276    0.00147     0.40423
      H   20    0.09171      0.00000     0.40670    0.00160     0.40829
      H   21    0.09731      0.00000     0.40150    0.00119     0.40269
      H   22    0.09660      0.00000     0.40242    0.00098     0.40340
      H   23    0.09803      0.00000     0.40059    0.00138     0.40197
      H   24    0.10108      0.00000     0.39761    0.00131     0.39892
      H   25    0.11616      0.00000     0.38301    0.00083     0.38384
      H   26    0.09847      0.00000     0.40063    0.00090     0.40153
      H   27    0.03048      0.00000     0.46659    0.00293     0.46952
 =======================================================================
   * Total *   -0.00000     12.99487    34.85161    0.15352    48.00000

 Normal termination of Gaussian 16 at Wed Dec  9 23:40:21 2020.
