 Gaussian 16, Revision A.03,

 -----------------------------------------------------------
 # opt freq B3LYP/6-31G(d) empiricaldispersion=gd3bj scf=xqc
 -----------------------------------------------------------

 --------------------------------
 CID_106018317_JID_10676_neutraal
 --------------------------------
 Symbolic Z-matrix:
 Charge =  0 Multiplicity = 1

 SCF Done:  E(RB3LYP) =  -1633.89361472     A.U. after   15 cycles
 SCF Done:  E(RB3LYP) =  -1633.90473614     A.U. after   13 cycles
 SCF Done:  E(RB3LYP) =  -1633.90731538     A.U. after   12 cycles
 SCF Done:  E(RB3LYP) =  -1633.90808662     A.U. after   12 cycles
 SCF Done:  E(RB3LYP) =  -1633.90868059     A.U. after   12 cycles
 SCF Done:  E(RB3LYP) =  -1633.90928806     A.U. after   14 cycles
 SCF Done:  E(RB3LYP) =  -1633.90947399     A.U. after   12 cycles
 SCF Done:  E(RB3LYP) =  -1633.90960758     A.U. after   12 cycles
 SCF Done:  E(RB3LYP) =  -1633.90964806     A.U. after   11 cycles
 SCF Done:  E(RB3LYP) =  -1633.90966689     A.U. after   10 cycles
 SCF Done:  E(RB3LYP) =  -1633.90975428     A.U. after    9 cycles
 SCF Done:  E(RB3LYP) =  -1633.90975485     A.U. after    9 cycles
 SCF Done:  E(RB3LYP) =  -1633.90975510     A.U. after    8 cycles
 SCF Done:  E(RB3LYP) =  -1633.90975521     A.U. after    8 cycles
 SCF Done:  E(RB3LYP) =  -1633.90975523     A.U. after    8 cycles
 Optimization completed.
    -- Stationary point found.
 Normal termination of Gaussian 16 at Sun Dec 13 21:11:10 2020.

 --------------------------------------------------------------------
 #N Geom=AllCheck Guess=TCheck SCRF=Check GenChk RB3LYP/6-31G(d) Freq
 --------------------------------------------------------------------

 Structure from the checkpoint file:  "JID_10676.chk"
 --------------------------------
 CID_106018317_JID_10676_neutraal
 --------------------------------
 Charge =  0 Multiplicity = 1

 SCF Done:  E(RB3LYP) =  -1633.90975523     A.U. after    1 cycles

  Exact polarizability: 264.312   1.738 168.295  11.119   4.519 143.263
 Approx polarizability: 332.953   4.557 286.430  25.532  11.553 246.215

                      1                      2                      3
                      A                      A                      A
 Frequencies --      6.7460                14.8291                29.4773
 Red. masses --      5.3551                 4.7311                 4.2411
 Frc consts  --      0.0001                 0.0006                 0.0022
 IR Inten    --      0.2400                 1.2645                 1.9590

                      4                      5                      6
                      A                      A                      A
 Frequencies --     39.9161                44.1884                47.0362
 Red. masses --      5.2418                 4.1194                 1.1229
 Frc consts  --      0.0049                 0.0047                 0.0015
 IR Inten    --      0.2370                 0.0879                 0.3780

                      7                      8                      9
                      A                      A                      A
 Frequencies --     63.1904                76.2445                93.2272
 Red. masses --      4.2125                 5.5993                 4.3306
 Frc consts  --      0.0099                 0.0192                 0.0222
 IR Inten    --      0.2286                 0.5361                 0.5845

                     10                     11                     12
                      A                      A                      A
 Frequencies --    127.4879               147.0839               169.3879
 Red. masses --      5.0336                 3.8676                 2.3370
 Frc consts  --      0.0482                 0.0493                 0.0395
 IR Inten    --      0.1487                 2.2608                 0.6577

                     13                     14                     15
                      A                      A                      A
 Frequencies --    184.7723               193.8867               219.0249
 Red. masses --      3.1182                 3.5136                 1.9341
 Frc consts  --      0.0627                 0.0778                 0.0547
 IR Inten    --      0.5439                 4.2595                 1.5797

                     16                     17                     18
                      A                      A                      A
 Frequencies --    252.2546               283.1753               286.9547
 Red. masses --      4.4265                 4.4173                 6.9056
 Frc consts  --      0.1660                 0.2087                 0.3350
 IR Inten    --      1.8020                 1.1199                 5.1096

                     19                     20                     21
                      A                      A                      A
 Frequencies --    301.2343               332.2282               342.2887
 Red. masses --      2.5477                 2.8217                 3.2180
 Frc consts  --      0.1362                 0.1835                 0.2221
 IR Inten    --      0.4560                 1.1009                16.3976

                     22                     23                     24
                      A                      A                      A
 Frequencies --    389.0998               395.1189               413.0637
 Red. masses --      4.2927                 2.9044                 3.7643
 Frc consts  --      0.3829                 0.2672                 0.3784
 IR Inten    --      1.4739                 0.6422                 6.7383

                     25                     26                     27
                      A                      A                      A
 Frequencies --    449.1809               480.8969               500.3330
 Red. masses --      3.1925                 3.0551                 3.4988
 Frc consts  --      0.3795                 0.4163                 0.5160
 IR Inten    --     17.3467                42.3818                26.6890

                     28                     29                     30
                      A                      A                      A
 Frequencies --    529.2244               557.3015               577.9114
 Red. masses --      4.5404                 4.0769                 3.3269
 Frc consts  --      0.7492                 0.7460                 0.6547
 IR Inten    --     19.2637                41.2645                59.8157

                     31                     32                     33
                      A                      A                      A
 Frequencies --    599.4253               629.8715               644.7952
 Red. masses --      4.5365                 3.7218                 3.5159
 Frc consts  --      0.9604                 0.8700                 0.8613
 IR Inten    --     62.4220                45.4480                15.5350

                     34                     35                     36
                      A                      A                      A
 Frequencies --    655.4259               677.1945               698.8421
 Red. masses --      5.2288                 6.3121                 3.4191
 Frc consts  --      1.3234                 1.7055                 0.9838
 IR Inten    --     13.9405                22.7360                49.3913

                     37                     38                     39
                      A                      A                      A
 Frequencies --    745.1554               756.7035               759.0403
 Red. masses --      2.3852                 2.3136                 3.3923
 Frc consts  --      0.7803                 0.7805                 1.1515
 IR Inten    --     62.6910               108.9726                 8.4216

                     40                     41                     42
                      A                      A                      A
 Frequencies --    790.5053               820.0197               838.1350
 Red. masses --      1.4722                 1.3131                 2.7614
 Frc consts  --      0.5420                 0.5202                 1.1429
 IR Inten    --     15.6094                28.2220               254.3819

                     43                     44                     45
                      A                      A                      A
 Frequencies --    841.4227               902.2055               909.7011
 Red. masses --      1.9845                 1.3008                 1.4033
 Frc consts  --      0.8278                 0.6238                 0.6842
 IR Inten    --      5.4525                10.0751                 0.2890

                     46                     47                     48
                      A                      A                      A
 Frequencies --    911.1736               983.0694               989.3088
 Red. masses --      2.4155                 2.1939                 2.1303
 Frc consts  --      1.1816                 1.2492                 1.2284
 IR Inten    --     23.0657                 5.6138                71.6521

                     49                     50                     51
                      A                      A                      A
 Frequencies --   1007.8894              1020.8850              1030.9420
 Red. masses --      3.8711                 2.5294                 1.8774
 Frc consts  --      2.3169                 1.5532                 1.1756
 IR Inten    --     39.3915               111.7540                36.8080

                     52                     53                     54
                      A                      A                      A
 Frequencies --   1047.6103              1066.0046              1083.2885
 Red. masses --      3.5084                 3.9641                 1.5872
 Frc consts  --      2.2686                 2.6541                 1.0974
 IR Inten    --      3.1573                50.0279                 2.3948

                     55                     56                     57
                      A                      A                      A
 Frequencies --   1092.1832              1124.6715              1135.7904
 Red. masses --      2.6901                 5.0907                 2.1213
 Frc consts  --      1.8907                 3.7939                 1.6123
 IR Inten    --     30.1870               111.9184                41.1523

                     58                     59                     60
                      A                      A                      A
 Frequencies --   1159.9029              1162.1252              1171.2128
 Red. masses --      1.3174                 1.4102                 2.1017
 Frc consts  --      1.0443                 1.1221                 1.6986
 IR Inten    --      7.8718                 7.8410                11.1989

                     61                     62                     63
                      A                      A                      A
 Frequencies --   1192.5116              1200.8649              1226.8456
 Red. masses --      1.8045                 2.3226                 1.4032
 Frc consts  --      1.5120                 1.9734                 1.2444
 IR Inten    --     47.1721                36.7368                 3.6169

                     64                     65                     66
                      A                      A                      A
 Frequencies --   1233.9710              1267.2282              1274.6528
 Red. masses --      1.4791                 1.3480                 1.4469
 Frc consts  --      1.3269                 1.2754                 1.3850
 IR Inten    --     19.9002                13.1938                13.7660

                     67                     68                     69
                      A                      A                      A
 Frequencies --   1319.4541              1327.1049              1342.3268
 Red. masses --      1.4288                 5.1137                 3.2122
 Frc consts  --      1.4656                 5.3064                 3.4101
 IR Inten    --      5.6716               109.4704                27.2977

                     70                     71                     72
                      A                      A                      A
 Frequencies --   1369.9902              1375.6370              1378.3713
 Red. masses --      1.5335                 1.2637                 2.2523
 Frc consts  --      1.6957                 1.4090                 2.5213
 IR Inten    --     22.3617                 3.2833                 2.6847

                     73                     74                     75
                      A                      A                      A
 Frequencies --   1403.3204              1413.2057              1441.7038
 Red. masses --      1.3160                 4.1014                 2.9879
 Frc consts  --      1.5270                 4.8260                 3.6591
 IR Inten    --     30.0697                22.5246                36.1402

                     76                     77                     78
                      A                      A                      A
 Frequencies --   1454.2974              1472.4889              1480.9210
 Red. masses --      1.4692                 1.5809                 1.1563
 Frc consts  --      1.8308                 2.0196                 1.4941
 IR Inten    --     64.3340                11.3447                 4.5514

                     79                     80                     81
                      A                      A                      A
 Frequencies --   1496.1883              1497.9394              1503.7375
 Red. masses --      1.9705                 2.7142                 1.1538
 Frc consts  --      2.5989                 3.5882                 1.5372
 IR Inten    --     24.2322                30.5041                 4.7188

                     82                     83                     84
                      A                      A                      A
 Frequencies --   1507.5434              1508.9494              1515.0646
 Red. masses --      1.0625                 1.2865                 1.1124
 Frc consts  --      1.4227                 1.7259                 1.5044
 IR Inten    --      7.8082                18.4208                 5.4617

                     85                     86                     87
                      A                      A                      A
 Frequencies --   1522.2355              1527.4860              1548.5376
 Red. masses --      1.1695                 1.1404                 1.2183
 Frc consts  --      1.5966                 1.5677                 1.7213
 IR Inten    --      1.2158                13.5205                 6.2101

                     88                     89                     90
                      A                      A                      A
 Frequencies --   1550.6265              1597.6080              1617.3697
 Red. masses --      1.0577                 5.4210                 5.0266
 Frc consts  --      1.4984                 8.1521                 7.7471
 IR Inten    --      4.4518                 4.2742                26.9945

                     91                     92                     93
                      A                      A                      A
 Frequencies --   2960.1030              3041.2700              3057.5205
 Red. masses --      1.0606                 1.0619                 1.0599
 Frc consts  --      5.4753                 5.7868                 5.8377
 IR Inten    --     73.8489                46.0470                34.5713

                     94                     95                     96
                      A                      A                      A
 Frequencies --   3067.9106              3072.1624              3072.2944
 Red. masses --      1.0359                 1.0653                 1.0735
 Frc consts  --      5.7445                 5.9239                 5.9700
 IR Inten    --     57.3904                26.3975                59.4053

                     97                     98                     99
                      A                      A                      A
 Frequencies --   3088.9076              3103.2674              3122.2315
 Red. masses --      1.1040                 1.1035                 1.1001
 Frc consts  --      6.2065                 6.2614                 6.3184
 IR Inten    --     16.5659                33.9944                 9.0783

                    100                    101                    102
                      A                      A                      A
 Frequencies --   3125.1404              3139.3849              3168.4635
 Red. masses --      1.1015                 1.1011                 1.1057
 Frc consts  --      6.3381                 6.3938                 6.5404
 IR Inten    --     22.1885                14.9683                 8.5901

                    103                    104                    105
                      A                      A                      A
 Frequencies --   3218.0835              3248.3173              3264.8700
 Red. masses --      1.0915                 1.0955                 1.0974
 Frc consts  --      6.6599                 6.8103                 6.8918
 IR Inten    --      8.2291                 0.2660                 1.2878

                    106                    107                    108
                      A                      A                      A
 Frequencies --   3279.7923              3519.5591              3535.7311
 Red. masses --      1.0970                 1.0740                 1.0751
 Frc consts  --      6.9524                 7.8382                 7.9189
 IR Inten    --      0.8139                 0.0273                37.7422

 - Thermochemistry -
 -------------------
 Temperature   298.150 Kelvin.  Pressure   1.00000 Atm.
 Atom     1 has atomic number  6 and mass  12.00000

 Molecular mass:   314.08712 amu.
 Principal axes and moments of inertia in atomic units:
                           1         2         3
     Eigenvalues --  2754.94420********************
           X            0.99998  -0.00507  -0.00294
           Y            0.00511   0.99988   0.01496
           Z            0.00287  -0.01497   0.99988
 This molecule is an asymmetric top.
 Rotational symmetry number  1.
 Warning -- assumption of classical behavior for rotation
           may cause significant error
 Rotational temperatures (Kelvin)      0.03144     0.00565     0.00525
 Rotational constants (GHZ):           0.65509     0.11765     0.10938
 Zero-point vibrational energy     804216.2 (Joules/Mol)
                                  192.21230 (Kcal/Mol)
 Warning -- explicit consideration of  31 degrees of freedom as
           vibrations may cause significant error
 Vibrational temperatures:      9.71    21.34    42.41    57.43    63.58
          (Kelvin)             67.67    90.92   109.70   134.13   183.43
                              211.62   243.71   265.85   278.96   315.13
                              362.94   407.43   412.86   433.41   478.00
                              492.48   559.83   568.49   594.31   646.27
                              691.90   719.87   761.44   801.83   831.49
                              862.44   906.24   927.72   943.01   974.33
                             1005.48  1072.11  1088.73  1092.09  1137.36
                             1179.83  1205.89  1210.62  1298.07  1308.86
                             1310.98  1414.42  1423.39  1450.13  1468.83
                             1483.30  1507.28  1533.74  1558.61  1571.41
                             1618.15  1634.15  1668.84  1672.04  1685.11
                             1715.76  1727.78  1765.16  1775.41  1823.26
                             1833.94  1898.40  1909.41  1931.31  1971.11
                             1979.23  1983.17  2019.07  2033.29  2074.29
                             2092.41  2118.58  2130.72  2152.68  2155.20
                             2163.54  2169.02  2171.04  2179.84  2190.16
                             2197.71  2228.00  2231.01  2298.60  2327.03
                             4258.93  4375.71  4399.09  4414.04  4420.16
                             4420.35  4444.25  4464.91  4492.19  4496.38
                             4516.87  4558.71  4630.10  4673.60  4697.42
                             4718.89  5063.86  5087.13

 Zero-point correction=                           0.306310 (Hartree/Particle)
 Thermal correction to Energy=                    0.327282
 Thermal correction to Enthalpy=                  0.328226
 Thermal correction to Gibbs Free Energy=         0.250951
 Sum of electronic and zero-point Energies=          -1633.603445
 Sum of electronic and thermal Energies=             -1633.582474
 Sum of electronic and thermal Enthalpies=           -1633.581530
 Sum of electronic and thermal Free Energies=        -1633.658805

                     E (Thermal)             CV                S
                      KCal/Mol        Cal/Mol-Kelvin    Cal/Mol-Kelvin
 Total                  205.372             75.896            162.639
 Electronic               0.000              0.000              0.000
 Translational            0.889              2.981             43.130
 Rotational               0.889              2.981             34.899
 Vibrational            203.595             69.935             84.611
 Vibration     1          0.593              1.987              8.793
 Vibration     2          0.593              1.986              7.228
 Vibration     3          0.593              1.984              5.864
 Vibration     4          0.594              1.981              5.263
 Vibration     5          0.595              1.980              5.062
 Vibration     6          0.595              1.979              4.938
 Vibration     7          0.597              1.972              4.355
 Vibration     8          0.599              1.965              3.985
 Vibration     9          0.602              1.954              3.591
 Vibration    10          0.611              1.926              2.984
 Vibration    11          0.617              1.906              2.710
 Vibration    12          0.625              1.880              2.442
 Vibration    13          0.631              1.861              2.280
 Vibration    14          0.635              1.848              2.190
 Vibration    15          0.647              1.812              1.967
 Vibration    16          0.664              1.759              1.715
 Vibration    17          0.682              1.705              1.514
 Vibration    18          0.684              1.698              1.492
 Vibration    19          0.693              1.671              1.410
 Vibration    20          0.714              1.611              1.249
 Vibration    21          0.721              1.591              1.201
 Vibration    22          0.757              1.493              1.004
 Vibration    23          0.762              1.481              0.981
 Vibration    24          0.777              1.442              0.916
 Vibration    25          0.808              1.363              0.798
 Vibration    26          0.837              1.292              0.708
 Vibration    27          0.856              1.249              0.657
 Vibration    28          0.884              1.185              0.589
 Vibration    29          0.913              1.124              0.529
 Vibration    30          0.934              1.079              0.489
 Vibration    31          0.957              1.033              0.451

 Optimization completed on the basis of negligible forces.
    -- Stationary point found.
 Normal termination of Gaussian 16 at Sun Dec 13 21:27:05 2020.

 ----------------------------------------------------------------------
 # B3LYP/6-311++G(d,p) empiricaldispersion=gd3bj scf=xqc pop=npa geom=c
 heck
 ----------------------------------------------------------------------

 ----------------------------------------
 CID_106018317_JID_10676_Energie_neutraal
 ----------------------------------------
 Structure from the checkpoint file:  "JID_10676.chk"
 Charge =  0 Multiplicity = 1

 SCF Done:  E(RB3LYP) =  -1634.19940194     A.U. after   16 cycles
 Normal termination of Gaussian 16 at Sun Dec 13 21:34:24 2020.

 ----------------------------------------------------------------------
 # B3LYP/6-311++G(d,p) empiricaldispersion=gd3bj scf=xqc pop=npa geom=c
 heck
 ----------------------------------------------------------------------

 --------------------------------------
 CID_106018317_JID_10676_Energie_kation
 --------------------------------------
 Structure from the checkpoint file:  "JID_10676.chk"
 Charge =  1 Multiplicity = 2

 SCF Done:  E(UB3LYP) =  -1633.91400554     A.U. after   30 cycles
 Normal termination of Gaussian 16 at Sun Dec 13 21:52:57 2020.
 Gaussian 16:  ES64L-G16RevA.03 25-Dec-2016

 ----------------------------------------------------------------------
 # B3LYP/6-311++G(d,p) empiricaldispersion=gd3bj scf=xqc pop=npa geom=c
 heck
 ----------------------------------------------------------------------

 -------------------------------------
 CID_106018317_JID_10676_Energie_anion
 -------------------------------------
 Structure from the checkpoint file:  "JID_10676.chk"
 Charge = -1 Multiplicity = 2

                         Standard orientation:
 ---------------------------------------------------------------------
 Center     Atomic      Atomic             Coordinates (Angstroms)
 Number     Number       Type             X           Y           Z
 ---------------------------------------------------------------------
      1          6           0       -4.550259    2.918227    0.416026
      2          7           0       -4.946287    1.625852    0.957614
      3          6           0       -5.522204    0.700172    0.000729
      4          6           0       -4.638738    0.274536   -1.210130
      5          6           0       -3.407232   -0.477995   -0.815142
      6          6           0       -3.214448   -1.839544   -0.794207
      7          6           0       -1.944641   -2.229895   -0.286378
      8          6           0       -1.184096   -1.151769    0.080663
      9         16           0       -2.010592    0.357364   -0.178338
     10         16           0        0.457310   -1.200296    0.719072
     11          8           0        0.618090    0.029116    1.506104
     12          8           0        0.683421   -2.531695    1.285165
     13          7           0        1.423262   -1.134473   -0.659495
     14          6           0        1.979977    0.171023   -1.077686
     15          6           0        3.325458    0.480552   -0.497924
     16          6           0        4.532120    0.537629   -1.177053
     17          7           0        5.493195    0.815203   -0.258522
     18          7           0        4.986060    0.948195    0.989810
     19          6           0        3.677427    0.743607    0.850929
     20          6           0        6.905462    1.045865   -0.482422
     21          1           0       -5.428875    3.406682   -0.022147
     22          1           0       -3.765061    2.887070   -0.360978
     23          1           0       -4.185592    3.551989    1.230097
     24          1           0       -4.169032    1.193927    1.450955
     25          1           0       -5.822116   -0.203858    0.542870
     26          1           0       -6.436153    1.156491   -0.402093
     27          1           0       -5.240081   -0.370150   -1.862133
     28          1           0       -4.375965    1.159953   -1.800252
     29          1           0       -3.969238   -2.540699   -1.134246
     30          1           0       -1.598212   -3.251439   -0.187091
     31          1           0        2.121589   -1.870949   -0.581107
     32          1           0        2.033899    0.159058   -2.171427
     33          1           0        1.246005    0.933614   -0.803730
     34          1           0        4.768058    0.405866   -2.224115
     35          1           0        3.020661    0.774783    1.709021
     36          1           0        7.136865    2.115387   -0.440926
     37          1           0        7.478057    0.527866    0.289634
     38          1           0        7.179037    0.654057   -1.464519
 ---------------------------------------------------------------------

 SCF Done:  E(UB3LYP) =  -1634.20390859     A.U. after   33 cycles
 SCF Done:  E(UB3LYP) =  -1634.20430177     a.u. after    3 cycles

 The electronic state is 2-A.
 Alpha  occ. eigenvalues --  -88.95872 -88.76144 -19.01275 -19.01136 -14.30741
 Alpha  occ. eigenvalues --  -14.24307 -14.24000 -14.20735 -10.13407 -10.12798
 Alpha  occ. eigenvalues --  -10.12320 -10.10334 -10.10098 -10.09845 -10.08977
 Alpha  occ. eigenvalues --  -10.08727 -10.08434 -10.08164 -10.06599 -10.06365
 Alpha  occ. eigenvalues --   -8.01948  -7.84768  -5.98242  -5.98225  -5.98031
 Alpha  occ. eigenvalues --   -5.81076  -5.80699  -5.80358  -1.01498  -0.96702
 Alpha  occ. eigenvalues --   -0.90679  -0.82750  -0.81619  -0.77314  -0.76031
 Alpha  occ. eigenvalues --   -0.71240  -0.68051  -0.64660  -0.62817  -0.62318
 Alpha  occ. eigenvalues --   -0.59842  -0.58366  -0.54337  -0.51150  -0.50570
 Alpha  occ. eigenvalues --   -0.49072  -0.45796  -0.44776  -0.43273  -0.41683
 Alpha  occ. eigenvalues --   -0.40950  -0.40343  -0.39891  -0.38684  -0.36571
 Alpha  occ. eigenvalues --   -0.36418  -0.36141  -0.34925  -0.34153  -0.33259
 Alpha  occ. eigenvalues --   -0.33147  -0.32621  -0.31821  -0.31098  -0.30949
 Alpha  occ. eigenvalues --   -0.29284  -0.28991  -0.28293  -0.26784  -0.26399
 Alpha  occ. eigenvalues --   -0.25295  -0.25105  -0.23417  -0.22199  -0.21535
 Alpha  occ. eigenvalues --   -0.20907  -0.20557  -0.18497  -0.17309  -0.15894
 Alpha  occ. eigenvalues --   -0.15234  -0.14030  -0.12324   0.03215
 Alpha virt. eigenvalues --    0.04238   0.06335   0.06840   0.07390   0.07630
 Alpha virt. eigenvalues --    0.08234   0.08738   0.08987   0.09704   0.10155
 Alpha virt. eigenvalues --    0.10384   0.10620   0.10958   0.11081   0.11436

  Beta  occ. eigenvalues --  -88.95863 -88.76104 -19.01260 -19.01115 -14.30740
  Beta  occ. eigenvalues --  -14.24304 -14.23958 -14.20732 -10.13373 -10.12792
  Beta  occ. eigenvalues --  -10.12305 -10.10298 -10.10091 -10.09842 -10.08739
  Beta  occ. eigenvalues --  -10.08726 -10.08184 -10.08099 -10.06485 -10.06406
  Beta  occ. eigenvalues --   -8.01939  -7.84732  -5.98220  -5.98207  -5.98032
  Beta  occ. eigenvalues --   -5.81063  -5.80686  -5.80217  -1.01428  -0.96698
  Beta  occ. eigenvalues --   -0.90640  -0.82681  -0.81595  -0.76997  -0.76016
  Beta  occ. eigenvalues --   -0.71218  -0.67773  -0.64586  -0.62603  -0.62083
  Beta  occ. eigenvalues --   -0.59782  -0.58281  -0.54175  -0.51098  -0.50548
  Beta  occ. eigenvalues --   -0.49039  -0.45554  -0.44736  -0.42996  -0.41500
  Beta  occ. eigenvalues --   -0.40903  -0.40246  -0.39873  -0.38634  -0.36517
  Beta  occ. eigenvalues --   -0.36376  -0.36103  -0.34848  -0.34105  -0.33167
  Beta  occ. eigenvalues --   -0.33039  -0.32579  -0.31688  -0.31074  -0.30875
  Beta  occ. eigenvalues --   -0.29240  -0.28876  -0.28189  -0.26551  -0.25902
  Beta  occ. eigenvalues --   -0.25168  -0.24974  -0.23178  -0.22121  -0.21463
  Beta  occ. eigenvalues --   -0.20850  -0.20472  -0.18357  -0.17298  -0.15774
  Beta  occ. eigenvalues --   -0.14703  -0.13451  -0.11298
  Beta virt. eigenvalues --    0.05273   0.06012   0.07151   0.07472   0.07568
  Beta virt. eigenvalues --    0.07807   0.08386   0.08963   0.09219   0.09611
  Beta virt. eigenvalues --    0.10190   0.10367   0.10663   0.10917   0.11206

 Mulliken charges and spin densities:
               1          2
     1  C   -0.258018  -0.137766
     2  N   -0.219978   0.009390
     3  C   -0.303960  -0.221145
     4  C   -0.220704  -0.359502
     5  C    0.226176   0.490691
     6  C    0.021778  -0.055864
     7  C    0.157791   0.103172
     8  C   -0.409907   0.028732
     9  S   -0.699596   0.142272
    10  S    0.309451  -0.057141
    11  O   -0.211712   0.003735
    12  O   -0.187807   0.003858
    13  N    0.012854   0.053355
    14  C   -1.165639  -0.482523
    15  C    0.683371  -0.185872
    16  C    0.005085   0.141978
    17  N    0.143379   0.056398
    18  N   -0.316634   0.105502
    19  C   -0.046506   0.035558
    20  C    0.550185  -0.865734
    21  H    0.071181   0.073291
    22  H    0.083540   0.042507
    23  H    0.129893   0.003600
    24  H    0.245828  -0.008516
    25  H    0.166493   0.005106
    26  H   -0.004649   0.132168
    27  H   -0.040446   0.199113
    28  H   -0.004710   0.176734
    29  H    0.100439   0.033495
    30  H    0.182017  -0.004339
    31  H    0.295924  -0.002298
    32  H    0.077489   0.086687
    33  H    0.169419   0.023148
    34  H   -0.300441   0.490126
    35  H    0.211182  -0.003823
    36  H   -0.006886   0.180229
    37  H    0.014356   0.156084
    38  H   -0.460238   0.607595
 Sum of Mulliken charges =  -1.00000   1.00000

 Dipole moment (field-independent basis, Debye):
    X=             -2.0764    Y=              0.3340    Z=             -1.4116  Tot=              2.5329
 Quadrupole moment (field-independent basis, Debye-Ang):
   XX=           -245.1801   YY=           -159.8599   ZZ=           -167.0488
   XY=             -0.2976   XZ=              3.5826   YZ=              3.0157

 Summary of Natural Population Analysis:

                                       Natural Population
                Natural  -----------------------------------------------
    Atom  No    Charge         Core      Valence    Rydberg      Total
 -----------------------------------------------------------------------
      C    1   -0.18277      0.99967     2.17433    0.00877     3.18277
      N    2   -0.34291      0.99976     2.83201    0.01114     3.84291
      C    3   -0.07947      0.99963     2.06596    0.01388     3.07947
      C    4   -0.22048      0.99957     2.21106    0.00985     3.22048
      C    5   -0.03726      0.99950     2.02403    0.01373     3.03726
      C    6   -0.14968      0.99947     2.13988    0.01033     3.14968
      C    7   -0.08763      0.99946     2.07779    0.01038     3.08763
      C    8   -0.21820      0.99938     2.20183    0.01700     3.21820
      S    9    0.22540      4.99934     2.75375    0.02150     7.77460
      S   10    1.11636      4.99907     1.78201    0.10256     6.88364
      O   11   -0.46933      0.99991     3.46387    0.00555     4.46933
      O   12   -0.46576      0.99991     3.46081    0.00504     4.46576
      N   13   -0.42918      0.99976     2.91726    0.01215     3.92918
      C   14   -0.10297      0.99958     2.09045    0.01293     3.10297
      C   15   -0.08702      0.99952     2.07729    0.01021     3.08702
      C   16   -0.00658      0.99950     1.99549    0.01158     3.00658
      N   17   -0.10888      0.99967     2.59691    0.01230     3.60888
      N   18   -0.15293      0.99973     2.64196    0.01124     3.65293
      C   19   -0.00545      0.99958     1.99204    0.01382     3.00545
      C   20   -0.17158      0.99964     2.16387    0.00807     3.17158
      H   21    0.08859      0.00000     0.41050    0.00090     0.41141
      H   22    0.08198      0.00000     0.41681    0.00121     0.41802
      H   23    0.09360      0.00000     0.40561    0.00079     0.40640
      H   24    0.17983      0.00000     0.31784    0.00232     0.32017
      H   25    0.09328      0.00000     0.40571    0.00101     0.40672
      H   26    0.08758      0.00000     0.41111    0.00131     0.41242
      H   27    0.10606      0.00000     0.39264    0.00131     0.39394
      H   28    0.10440      0.00000     0.39429    0.00131     0.39560
      H   29    0.10127      0.00000     0.39779    0.00094     0.39873
      H   30    0.10982      0.00000     0.38928    0.00090     0.39018
      H   31    0.19437      0.00000     0.30363    0.00200     0.30563
      H   32    0.10002      0.00000     0.39890    0.00108     0.39998
      H   33    0.11346      0.00000     0.38519    0.00135     0.38654
      H   34    0.10511      0.00000     0.39373    0.00116     0.39489
      H   35    0.11275      0.00000     0.38603    0.00122     0.38725
      H   36    0.09790      0.00000     0.40103    0.00107     0.40210
      H   37    0.10397      0.00000     0.39478    0.00125     0.39603
      H   38    0.10230      0.00000     0.39604    0.00166     0.39770
 =======================================================================
   * Total *   -0.00000     27.99165    54.66352    0.34483    83.00000

 Normal termination of Gaussian 16 at Sun Dec 13 22:51:51 2020.
