 Gaussian 16, Revision A.03,

 -----------------------------------------------------------
 # opt freq B3LYP/6-31G(d) empiricaldispersion=gd3bj scf=xqc
 -----------------------------------------------------------

 ----------------------------
 CID_676913_JID_6469_neutraal
 ----------------------------
 Symbolic Z-matrix:
 Charge =  0 Multiplicity = 1

 SCF Done:  E(RB3LYP) =  -1063.49972401     A.U. after   15 cycles
 SCF Done:  E(RB3LYP) =  -1063.50817951     A.U. after   13 cycles
 SCF Done:  E(RB3LYP) =  -1063.50945015     A.U. after   13 cycles
 SCF Done:  E(RB3LYP) =  -1063.50949558     A.U. after   13 cycles
 SCF Done:  E(RB3LYP) =  -1063.51048905     A.U. after   12 cycles
 SCF Done:  E(RB3LYP) =  -1063.51085737     A.U. after   12 cycles
 SCF Done:  E(RB3LYP) =  -1063.51100322     A.U. after   13 cycles
 SCF Done:  E(RB3LYP) =  -1063.51130561     A.U. after   12 cycles
 SCF Done:  E(RB3LYP) =  -1063.51157383     A.U. after   13 cycles
 SCF Done:  E(RB3LYP) =  -1063.51165903     A.U. after   13 cycles
 SCF Done:  E(RB3LYP) =  -1063.51203940     A.U. after   13 cycles
 SCF Done:  E(RB3LYP) =  -1063.51209091     A.U. after   12 cycles
 SCF Done:  E(RB3LYP) =  -1063.51212247     A.U. after   12 cycles
 SCF Done:  E(RB3LYP) =  -1063.51212728     A.U. after   11 cycles
 SCF Done:  E(RB3LYP) =  -1063.51212759     A.U. after   10 cycles
 SCF Done:  E(RB3LYP) =  -1063.51212763     A.U. after    8 cycles
 Optimization completed.
    -- Stationary point found.
 Normal termination of Gaussian 16 at Thu Dec 10 23:06:45 2020.

 --------------------------------------------------------------------
 #N Geom=AllCheck Guess=TCheck SCRF=Check GenChk RB3LYP/6-31G(d) Freq
 --------------------------------------------------------------------

 Structure from the checkpoint file:  "JID_6469.chk"
 ----------------------------
 CID_676913_JID_6469_neutraal
 ----------------------------
 Charge =  0 Multiplicity = 1

 SCF Done:  E(RB3LYP) =  -1063.51212763     A.U. after    1 cycles

  Exact polarizability: 192.595  -1.159 160.611  22.475  -5.063 102.387
 Approx polarizability: 266.641  -3.609 275.457  58.812  -5.139 194.786

                      1                      2                      3
                      A                      A                      A
 Frequencies --     13.2476                24.3407                43.1610
 Red. masses --      1.0191                 5.9914                 5.0922
 Frc consts  --      0.0001                 0.0021                 0.0056
 IR Inten    --      0.2336                 1.4335                 1.6208

                      4                      5                      6
                      A                      A                      A
 Frequencies --     50.1003                93.6468               110.3067
 Red. masses --      4.9253                 6.2750                 5.3688
 Frc consts  --      0.0073                 0.0324                 0.0385
 IR Inten    --      0.7768                 0.5254                 0.2056

                      7                      8                      9
                      A                      A                      A
 Frequencies --    123.3255               152.1518               192.7635
 Red. masses --      1.1745                 3.4109                 4.1142
 Frc consts  --      0.0105                 0.0465                 0.0901
 IR Inten    --      0.4939                 0.3979                 7.0740

                     10                     11                     12
                      A                      A                      A
 Frequencies --    238.8164               279.7895               323.1137
 Red. masses --      4.6708                 4.1336                 5.3482
 Frc consts  --      0.1570                 0.1907                 0.3290
 IR Inten    --      4.0344                 3.3044                 0.3185

                     13                     14                     15
                      A                      A                      A
 Frequencies --    343.0417               354.9470               383.5956
 Red. masses --      5.4338                 3.0452                 4.7571
 Frc consts  --      0.3767                 0.2260                 0.4124
 IR Inten    --      4.5499                 0.3805                11.1636

                     16                     17                     18
                      A                      A                      A
 Frequencies --    418.9028               458.8318               502.2214
 Red. masses --      3.0402                 4.8150                 3.5856
 Frc consts  --      0.3143                 0.5972                 0.5328
 IR Inten    --      0.0603                 3.0314                10.7135

                     19                     20                     21
                      A                      A                      A
 Frequencies --    529.4717               553.3569               592.3908
 Red. masses --      2.6232                 3.1300                 5.8037
 Frc consts  --      0.4333                 0.5647                 1.2000
 IR Inten    --     36.7546                16.5402                15.8807

                     22                     23                     24
                      A                      A                      A
 Frequencies --    602.4142               617.1604               647.4627
 Red. masses --      5.2963                 7.4200                 5.2668
 Frc consts  --      1.1324                 1.6651                 1.3009
 IR Inten    --      5.1464                25.2664                20.1569

                     25                     26                     27
                      A                      A                      A
 Frequencies --    654.8673               692.5001               716.3162
 Red. masses --      6.8599                 4.0613                 4.3515
 Frc consts  --      1.7333                 1.1475                 1.3155
 IR Inten    --      1.1344                18.6277                13.7878

                     28                     29                     30
                      A                      A                      A
 Frequencies --    757.5515               775.2897               831.3419
 Red. masses --      3.9854                 4.8449                 5.0903
 Frc consts  --      1.3476                 1.7158                 2.0728
 IR Inten    --     56.5855                11.2635                 2.0955

                     31                     32                     33
                      A                      A                      A
 Frequencies --    845.4603               859.6196               887.5454
 Red. masses --      1.8051                 1.2910                 4.9067
 Frc consts  --      0.7602                 0.5621                 2.2773
 IR Inten    --      8.1820                 2.9652                20.3653

                     34                     35                     36
                      A                      A                      A
 Frequencies --    969.8104               980.3477              1008.1116
 Red. masses --      1.3255                 1.3183                 1.8565
 Frc consts  --      0.7345                 0.7465                 1.1117
 IR Inten    --      1.3343                 1.0697                11.6666

                     37                     38                     39
                      A                      A                      A
 Frequencies --   1022.1402              1041.5037              1069.0507
 Red. masses --      1.4014                 3.1868                 1.4149
 Frc consts  --      0.8626                 2.0367                 0.9527
 IR Inten    --      1.5437                 9.2716                 1.2429

                     40                     41                     42
                      A                      A                      A
 Frequencies --   1075.0857              1111.4623              1142.0865
 Red. masses --      1.5468                 4.9401                 6.6944
 Frc consts  --      1.0533                 3.5956                 5.1447
 IR Inten    --     16.4603                26.1032                53.1493

                     43                     44                     45
                      A                      A                      A
 Frequencies --   1155.6222              1193.6498              1220.4624
 Red. masses --      1.3210                 3.8433                 1.1419
 Frc consts  --      1.0394                 3.2263                 1.0022
 IR Inten    --      2.9670                76.9109                37.5082

                     46                     47                     48
                      A                      A                      A
 Frequencies --   1228.2749              1247.1161              1325.6510
 Red. masses --      3.2288                 3.1417                 5.4036
 Frc consts  --      2.8700                 2.8789                 5.5949
 IR Inten    --     78.5972                 3.3679               583.4541

                     49                     50                     51
                      A                      A                      A
 Frequencies --   1351.4518              1361.1281              1435.2171
 Red. masses --      1.3256                 8.1573                 1.2580
 Frc consts  --      1.4265                 8.9042                 1.5268
 IR Inten    --     15.6815                29.1461                 1.6219

                     52                     53                     54
                      A                      A                      A
 Frequencies --   1441.9008              1457.0949              1473.3193
 Red. masses --      1.2478                 2.5673                 1.6597
 Frc consts  --      1.5285                 3.2114                 2.1226
 IR Inten    --      0.0497                 3.8950                79.4161

                     55                     56                     57
                      A                      A                      A
 Frequencies --   1498.8621              1505.6634              1517.5721
 Red. masses --      1.3040                 1.0437                 1.0561
 Frc consts  --      1.7261                 1.3941                 1.4330
 IR Inten    --     14.6367                10.4503                 7.0954

                     58                     59                     60
                      A                      A                      A
 Frequencies --   1520.4175              1552.7953              1558.7603
 Red. masses --      1.1033                 9.2028                 3.5127
 Frc consts  --      1.5027                13.0738                 5.0286
 IR Inten    --     11.4583               161.9693                 9.7877

                     61                     62                     63
                      A                      A                      A
 Frequencies --   1565.0908              1630.1717              1674.9401
 Red. masses --      2.6503                 5.8502                 5.7765
 Frc consts  --      3.8249                 9.1598                 9.5480
 IR Inten    --      2.2347                 4.5549                52.5939

                     64                     65                     66
                      A                      A                      A
 Frequencies --   1786.3624              3043.8639              3060.1267
 Red. masses --      9.3620                 1.0409                 1.0365
 Frc consts  --     17.6017                 5.6822                 5.7190
 IR Inten    --    357.0111                26.8663                15.8289

                     67                     68                     69
                      A                      A                      A
 Frequencies --   3102.3575              3117.5627              3130.8234
 Red. masses --      1.0952                 1.1019                 1.1028
 Frc consts  --      6.2103                 6.3100                 6.3691
 IR Inten    --     18.2045                 8.5605                14.6767

                     70                     71                     72
                      A                      A                      A
 Frequencies --   3160.6325              3184.5560              3187.8594
 Red. masses --      1.1013                 1.0887                 1.0894
 Frc consts  --      6.4821                 6.5051                 6.5229
 IR Inten    --      2.7333                12.7497                18.1443

                     73                     74                     75
                      A                      A                      A
 Frequencies --   3215.0234              3225.7988              3564.8996
 Red. masses --      1.0928                 1.0927                 1.0752
 Frc consts  --      6.6550                 6.6989                 8.0505
 IR Inten    --     12.1183                 3.5977                45.9857

 - Thermochemistry -
 -------------------
 Temperature   298.150 Kelvin.  Pressure   1.00000 Atm.
 Atom     1 has atomic number  6 and mass  12.00000

 Molecular mass:   233.06228 amu.
 Principal axes and moments of inertia in atomic units:
                           1         2         3
     Eigenvalues --  2279.005696113.568397650.45292
           X            0.99997   0.00741  -0.00013
           Y           -0.00741   0.99992  -0.01004
           Z            0.00005   0.01004   0.99995
 This molecule is an asymmetric top.
 Rotational symmetry number  1.
 Warning -- assumption of classical behavior for rotation
           may cause significant error
 Rotational temperatures (Kelvin)      0.03801     0.01417     0.01132
 Rotational constants (GHZ):           0.79190     0.29520     0.23590
 Zero-point vibrational energy     543007.0 (Joules/Mol)
                                  129.78179 (Kcal/Mol)
 Warning -- explicit consideration of  23 degrees of freedom as
           vibrations may cause significant error
 Vibrational temperatures:     19.06    35.02    62.10    72.08   134.74
          (Kelvin)            158.71   177.44   218.91   277.34   343.60
                              402.55   464.89   493.56   510.69   551.91
                              602.71   660.16   722.58   761.79   796.16
                              852.32   866.74   887.96   931.55   942.21
                              996.35  1030.62  1089.95  1115.47  1196.12
                             1216.43  1236.80  1276.98  1395.34  1410.50
                             1450.45  1470.63  1498.49  1538.13  1546.81
                             1599.15  1643.21  1662.68  1717.40  1755.97
                             1767.21  1794.32  1907.32  1944.44  1958.36
                             2064.96  2074.57  2096.43  2119.78  2156.53
                             2166.31  2183.45  2187.54  2234.13  2242.71
                             2251.82  2345.45  2409.87  2570.18  4379.44
                             4402.84  4463.60  4485.48  4504.56  4547.45
                             4581.87  4586.62  4625.70  4641.21  5129.10

 Zero-point correction=                           0.206820 (Hartree/Particle)
 Thermal correction to Energy=                    0.221907
 Thermal correction to Enthalpy=                  0.222851
 Thermal correction to Gibbs Free Energy=         0.161073
 Sum of electronic and zero-point Energies=          -1063.305307
 Sum of electronic and thermal Energies=             -1063.290221
 Sum of electronic and thermal Enthalpies=           -1063.289276
 Sum of electronic and thermal Free Energies=        -1063.351054

                     E (Thermal)             CV                S
                      KCal/Mol        Cal/Mol-Kelvin    Cal/Mol-Kelvin
 Total                  139.249             55.126            130.023
 Electronic               0.000              0.000              0.000
 Translational            0.889              2.981             42.240
 Rotational               0.889              2.981             33.033
 Vibrational            137.471             49.165             54.750
 Vibration     1          0.593              1.987              7.452
 Vibration     2          0.593              1.985              6.244
 Vibration     3          0.595              1.980              5.108
 Vibration     4          0.595              1.978              4.813
 Vibration     5          0.603              1.954              3.582
 Vibration     6          0.606              1.941              3.264
 Vibration     7          0.610              1.930              3.048
 Vibration     8          0.619              1.900              2.645
 Vibration     9          0.635              1.850              2.201
 Vibration    10          0.657              1.781              1.812
 Vibration    11          0.680              1.711              1.535
 Vibration    12          0.708              1.629              1.294
 Vibration    13          0.722              1.589              1.198
 Vibration    14          0.731              1.565              1.144
 Vibration    15          0.753              1.505              1.025
 Vibration    16          0.782              1.429              0.896
 Vibration    17          0.817              1.341              0.770
 Vibration    18          0.858              1.245              0.653
 Vibration    19          0.884              1.185              0.588
 Vibration    20          0.909              1.132              0.537
 Vibration    21          0.950              1.048              0.463
 Vibration    22          0.961              1.027              0.446
 Vibration    23          0.977              0.996              0.421

                           ! Non-Optimized Parameters !
 Normal termination of Gaussian 16 at Thu Dec 10 23:15:19 2020.

 ----------------------------------------------------------------------
 # B3LYP/6-311++G(d,p) empiricaldispersion=gd3bj scf=xqc pop=npa geom=c
 heck
 ----------------------------------------------------------------------

 ------------------------------------
 CID_676913_JID_6469_Energie_neutraal
 ------------------------------------
 Structure from the checkpoint file:  "JID_6469.chk"
 Charge =  0 Multiplicity = 1

 SCF Done:  E(RB3LYP) =  -1063.71805599     A.U. after   16 cycles
 Normal termination of Gaussian 16 at Thu Dec 10 23:19:38 2020.

 ----------------------------------------------------------------------
 # B3LYP/6-311++G(d,p) empiricaldispersion=gd3bj scf=xqc pop=npa geom=c
 heck
 ----------------------------------------------------------------------

 ----------------------------------
 CID_676913_JID_6469_Energie_kation
 ----------------------------------
 Structure from the checkpoint file:  "JID_6469.chk"
 Charge =  1 Multiplicity = 2

 SCF Done:  E(UB3LYP) =  -1063.40798054     A.U. after   31 cycles
 Normal termination of Gaussian 16 at Thu Dec 10 23:31:13 2020.
 Gaussian 16:  ES64L-G16RevA.03 25-Dec-2016

 ----------------------------------------------------------------------
 # B3LYP/6-311++G(d,p) empiricaldispersion=gd3bj scf=xqc pop=npa geom=c
 heck
 ----------------------------------------------------------------------

 ---------------------------------
 CID_676913_JID_6469_Energie_anion
 ---------------------------------
 Structure from the checkpoint file:  "JID_6469.chk"
 Charge = -1 Multiplicity = 2

                         Standard orientation:
 ---------------------------------------------------------------------
 Center     Atomic      Atomic             Coordinates (Angstroms)
 Number     Number       Type             X           Y           Z
 ---------------------------------------------------------------------
      1          6           0       -4.316506   -2.357887    0.174596
      2          6           0       -3.314464   -1.232011    0.124806
      3          6           0       -3.560386   -0.081248   -0.634748
      4          6           0       -2.650756    0.970278   -0.655617
      5          6           0       -1.455020    0.883052    0.065379
      6          6           0       -1.202328   -0.260512    0.833659
      7          6           0       -2.124667   -1.299673    0.862786
      8          6           0       -0.549280    2.060699    0.041181
      9          8           0       -0.944286    3.202280   -0.127457
     10          7           0        0.817414    1.855461    0.317976
     11          6           0        1.571311    0.759563   -0.075071
     12          7           0        1.305218    0.000997   -1.098228
     13          7           0        2.176337   -1.047027   -1.222849
     14          6           0        3.113529   -1.066722   -0.321128
     15         16           0        2.978055    0.240529    0.854595
     16          6           0        4.209948   -2.080442   -0.286037
     17          1           0       -4.977761   -2.257389    1.045417
     18          1           0       -4.950037   -2.368641   -0.717739
     19          1           0       -3.820857   -3.331090    0.253917
     20          1           0       -4.477443   -0.009744   -1.213835
     21          1           0       -2.847977    1.867527   -1.232284
     22          1           0       -0.293344   -0.334347    1.421225
     23          1           0       -1.919808   -2.180712    1.465682
     24          1           0        1.311341    2.736202    0.420818
     25          1           0        5.192102   -1.607919   -0.398256
     26          1           0        4.211584   -2.638927    0.656347
     27          1           0        4.056533   -2.778270   -1.112288
 ---------------------------------------------------------------------

 SCF Done:  E(UB3LYP) =  -1063.73060745     A.U. after   32 cycles

 The electronic state is 2-A.
 Alpha  occ. eigenvalues --  -88.75147 -18.94319 -14.21606 -14.20663 -14.19264
 Alpha  occ. eigenvalues --  -10.12379 -10.11984 -10.10209 -10.07720 -10.06352
 Alpha  occ. eigenvalues --  -10.05111 -10.04552 -10.04495 -10.04401 -10.04063
 Alpha  occ. eigenvalues --  -10.03889  -7.83832  -5.80082  -5.79801  -5.79426
 Alpha  occ. eigenvalues --   -0.90498  -0.89116  -0.80131  -0.73179  -0.70110
 Alpha  occ. eigenvalues --   -0.66363  -0.65527  -0.61917  -0.60810  -0.58062
 Alpha  occ. eigenvalues --   -0.50822  -0.48382  -0.48198  -0.45560  -0.42724
 Alpha  occ. eigenvalues --   -0.38656  -0.37808  -0.34840  -0.33835  -0.33337
 Alpha  occ. eigenvalues --   -0.32991  -0.31632  -0.31066  -0.30308  -0.29539
 Alpha  occ. eigenvalues --   -0.28720  -0.28263  -0.27971  -0.27224  -0.26524
 Alpha  occ. eigenvalues --   -0.22942  -0.22623  -0.21535  -0.18704  -0.17253
 Alpha  occ. eigenvalues --   -0.16394  -0.13733  -0.13143  -0.12758  -0.11556
 Alpha  occ. eigenvalues --   -0.10869   0.04024
 Alpha virt. eigenvalues --    0.07306   0.07713   0.08276   0.09575   0.09915
 Alpha virt. eigenvalues --    0.10634   0.10713   0.11015   0.11098   0.11588
 Alpha virt. eigenvalues --    0.12636   0.13041   0.13760   0.14133   0.14333

  Beta  occ. eigenvalues --  -88.75121 -18.93970 -14.21700 -14.20704 -14.19172
  Beta  occ. eigenvalues --  -10.12089 -10.11710 -10.09927 -10.07741 -10.06371
  Beta  occ. eigenvalues --  -10.04879 -10.04608 -10.04530 -10.04324 -10.04013
  Beta  occ. eigenvalues --  -10.03770  -7.83809  -5.80075  -5.79795  -5.79328
  Beta  occ. eigenvalues --   -0.90057  -0.88766  -0.79910  -0.72968  -0.69799
  Beta  occ. eigenvalues --   -0.66134  -0.65300  -0.61770  -0.60752  -0.57879
  Beta  occ. eigenvalues --   -0.50303  -0.48143  -0.48016  -0.45295  -0.42537
  Beta  occ. eigenvalues --   -0.38430  -0.37648  -0.34622  -0.33514  -0.33089
  Beta  occ. eigenvalues --   -0.32846  -0.31371  -0.30802  -0.29939  -0.29441
  Beta  occ. eigenvalues --   -0.28469  -0.27879  -0.27789  -0.27034  -0.25609
  Beta  occ. eigenvalues --   -0.22766  -0.22113  -0.21455  -0.17956  -0.16993
  Beta  occ. eigenvalues --   -0.15730  -0.13479  -0.12720  -0.12246  -0.10698
  Beta  occ. eigenvalues --   -0.10239
  Beta virt. eigenvalues --    0.07268   0.07666   0.08631   0.09470   0.09732
  Beta virt. eigenvalues --    0.09966   0.10637   0.10967   0.11202   0.11275
  Beta virt. eigenvalues --    0.12024   0.12675   0.13018   0.13732   0.14099

 Mulliken charges and spin densities:
               1          2
     1  C   -0.637462  -0.027673
     2  C    0.616937   0.126846
     3  C   -0.462638  -0.025149
     4  C   -0.245885   0.101537
     5  C    0.977501  -0.039770
     6  C   -0.389826   0.097410
     7  C   -0.642282  -0.013810
     8  C   -0.294282   0.137015
     9  O   -0.376464   0.126989
    10  N   -0.206499  -0.035840
    11  C   -0.042175   0.085841
    12  N   -0.039191   0.046817
    13  N   -0.022405  -0.012313
    14  C   -0.016527   0.101261
    15  S   -0.142786   0.138974
    16  C   -0.547255  -0.015133
    17  H    0.117166   0.028422
    18  H    0.120710   0.004823
    19  H    0.121832   0.008378
    20  H    0.099352   0.003885
    21  H    0.176704  -0.006298
    22  H    0.107765   0.007826
    23  H    0.128157   0.003349
    24  H    0.231443   0.082775
    25  H    0.128525   0.014521
    26  H    0.091313   0.059108
    27  H    0.148274   0.000210
 Sum of Mulliken charges =  -1.00000   1.00000

 Dipole moment (field-independent basis, Debye):
    X=              1.4394    Y=             -3.6011    Z=              2.1304  Tot=              4.4248
 Quadrupole moment (field-independent basis, Debye-Ang):
   XX=           -128.4866   YY=           -129.0418   ZZ=           -115.0127
   XY=              6.5682   XZ=              3.8793   YZ=             -2.3542

 Summary of Natural Population Analysis:

                                       Natural Population
                Natural  -----------------------------------------------
    Atom  No    Charge         Core      Valence    Rydberg      Total
 -----------------------------------------------------------------------
      C    1   -0.29234      0.99965     2.28828    0.00441     3.29234
      C    2    0.02063      0.99952     1.97181    0.00804     2.97937
      C    3   -0.12368      0.99953     2.11586    0.00829     3.12368
      C    4   -0.05225      0.99954     2.04414    0.00857     3.05225
      C    5   -0.06086      0.99946     2.05013    0.01126     3.06086
      C    6   -0.06183      0.99954     2.05398    0.00831     3.06183
      C    7   -0.11914      0.99952     2.11122    0.00840     3.11914
      C    8    0.38062      0.99963     1.59828    0.02147     2.61938
      O    9   -0.28407      0.99988     3.27861    0.00559     4.28407
      N   10   -0.34591      0.99963     2.83380    0.01248     3.84591
      C   11    0.15874      0.99963     1.82110    0.02053     2.84126
      N   12   -0.15090      0.99961     2.63632    0.01497     3.65090
      N   13   -0.16367      0.99962     2.64898    0.01508     3.66367
      C   14    0.06433      0.99965     1.91847    0.01756     2.93567
      S   15    0.13883      4.99943     2.84310    0.01864     7.86117
      C   16   -0.30591      0.99961     2.30161    0.00469     3.30591
      H   17    0.09973      0.00000     0.39929    0.00098     0.40027
      H   18    0.09702      0.00000     0.40209    0.00089     0.40298
      H   19    0.09862      0.00000     0.40049    0.00089     0.40138
      H   20    0.09084      0.00000     0.40817    0.00099     0.40916
      H   21    0.10426      0.00000     0.39475    0.00100     0.39574
      H   22    0.10018      0.00000     0.39852    0.00130     0.39982
      H   23    0.09163      0.00000     0.40701    0.00136     0.40837
      H   24    0.19786      0.00000     0.29986    0.00228     0.30214
      H   25    0.10269      0.00000     0.39636    0.00095     0.39731
      H   26    0.10371      0.00000     0.39532    0.00097     0.39629
      H   27    0.11088      0.00000     0.38804    0.00108     0.38912
 =======================================================================
   * Total *   -0.00000     19.99344    40.80558    0.20098    61.00000

 Normal termination of Gaussian 16 at Thu Dec 10 23:42:55 2020.
