 Gaussian 16, Revision A.03,

 -----------------------------------------------------------
 # opt freq B3LYP/6-31G(d) empiricaldispersion=gd3bj scf=xqc
 -----------------------------------------------------------

 -------------------------------
 CID_130542976_JID_4483_neutraal
 -------------------------------
 Symbolic Z-matrix:
 Charge =  0 Multiplicity = 1

 SCF Done:  E(RB3LYP) =  -1310.26596956     A.U. after   15 cycles
 SCF Done:  E(RB3LYP) =  -1310.27421915     A.U. after   13 cycles
 SCF Done:  E(RB3LYP) =  -1310.27505997     A.U. after   13 cycles
 SCF Done:  E(RB3LYP) =  -1310.27340463     A.U. after   14 cycles
 SCF Done:  E(RB3LYP) =  -1310.27564961     A.U. after   12 cycles
 SCF Done:  E(RB3LYP) =  -1310.27597029     A.U. after   12 cycles
 SCF Done:  E(RB3LYP) =  -1310.27614148     A.U. after   12 cycles
 SCF Done:  E(RB3LYP) =  -1310.27623912     A.U. after   11 cycles
 SCF Done:  E(RB3LYP) =  -1310.27628707     A.U. after   11 cycles
 SCF Done:  E(RB3LYP) =  -1310.27629905     A.U. after   10 cycles
 SCF Done:  E(RB3LYP) =  -1310.27631342     A.U. after   10 cycles
 SCF Done:  E(RB3LYP) =  -1310.27631820     A.U. after    9 cycles
 SCF Done:  E(RB3LYP) =  -1310.27632008     A.U. after    9 cycles
 SCF Done:  E(RB3LYP) =  -1310.27632029     A.U. after    8 cycles
 Optimization completed.
    -- Stationary point found.
 Normal termination of Gaussian 16 at Thu Dec 10 09:53:46 2020.

 --------------------------------------------------------------------
 #N Geom=AllCheck Guess=TCheck SCRF=Check GenChk RB3LYP/6-31G(d) Freq
 --------------------------------------------------------------------

 Structure from the checkpoint file:  "JID_4483.chk"
 -------------------------------
 CID_130542976_JID_4483_neutraal
 -------------------------------
 Charge =  0 Multiplicity = 1

 SCF Done:  E(RB3LYP) =  -1310.27632029     A.U. after    1 cycles

  Exact polarizability: 224.105  -6.839 154.476  13.972  -0.008  80.900
 Approx polarizability: 339.781 -12.309 283.765  35.113  -2.875 125.156

                      1                      2                      3
                      A                      A                      A
 Frequencies --     26.5974                55.5136               103.5854
 Red. masses --      4.9388                 3.7604                 5.4364
 Frc consts  --      0.0021                 0.0068                 0.0344
 IR Inten    --      1.3374                 0.7647                 0.3106

                      4                      5                      6
                      A                      A                      A
 Frequencies --    105.8166               138.6903               150.1464
 Red. masses --      2.4468                 4.7815                 4.5796
 Frc consts  --      0.0161                 0.0542                 0.0608
 IR Inten    --      1.9793                 2.9754                 1.1937

                      7                      8                      9
                      A                      A                      A
 Frequencies --    227.2919               230.2725               244.2563
 Red. masses --      3.8788                 1.4930                 2.3903
 Frc consts  --      0.1181                 0.0466                 0.0840
 IR Inten    --      7.7323                 1.9712                 6.0330

                     10                     11                     12
                      A                      A                      A
 Frequencies --    251.4652               298.2686               315.3109
 Red. masses --      1.5927                 2.0299                 3.2165
 Frc consts  --      0.0593                 0.1064                 0.1884
 IR Inten    --     28.3048                 0.4019                 2.1977

                     13                     14                     15
                      A                      A                      A
 Frequencies --    335.4763               408.7759               429.6644
 Red. masses --      4.4740                 5.1598                 5.1523
 Frc consts  --      0.2967                 0.5080                 0.5604
 IR Inten    --      5.8363                 9.0499                 0.2356

                     16                     17                     18
                      A                      A                      A
 Frequencies --    440.7142               508.9877               522.0418
 Red. masses --      3.4563                 8.6804                 3.2789
 Frc consts  --      0.3955                 1.3250                 0.5265
 IR Inten    --      0.2604                36.5286                60.1361

                     19                     20                     21
                      A                      A                      A
 Frequencies --    542.3419               578.4034               583.8091
 Red. masses --      6.8560                 3.6528                 7.4441
 Frc consts  --      1.1881                 0.7200                 1.4949
 IR Inten    --      5.0646                 6.0574                 3.9016

                     22                     23                     24
                      A                      A                      A
 Frequencies --    633.5899               659.2228               679.4419
 Red. masses --      1.5579                 4.2182                 5.3712
 Frc consts  --      0.3685                 1.0800                 1.4609
 IR Inten    --    336.2108                 1.6602                 8.8814

                     25                     26                     27
                      A                      A                      A
 Frequencies --    716.4006               761.8668               790.2623
 Red. masses --      5.3341                 2.2294                 1.3646
 Frc consts  --      1.6130                 0.7624                 0.5021
 IR Inten    --     19.6619                53.4676                 9.0794

                     28                     29                     30
                      A                      A                      A
 Frequencies --    797.9623               837.6762               855.7581
 Red. masses --      3.1194                10.8873                 1.6894
 Frc consts  --      1.1703                 4.5011                 0.7289
 IR Inten    --      8.7941                99.5378                 6.0553

                     31                     32                     33
                      A                      A                      A
 Frequencies --    891.8842               901.0312               941.6668
 Red. masses --      6.5631                 1.8149                 1.4137
 Frc consts  --      3.0759                 0.8681                 0.7386
 IR Inten    --     20.7192                 5.1850                 2.2222

                     34                     35                     36
                      A                      A                      A
 Frequencies --   1060.9491              1089.3290              1107.0437
 Red. masses --      1.7229                 1.6620                 1.5164
 Frc consts  --      1.1426                 1.1620                 1.0949
 IR Inten    --      2.0452                 5.1682                 6.0676

                     37                     38                     39
                      A                      A                      A
 Frequencies --   1118.6933              1161.2854              1207.8971
 Red. masses --      1.5649                 2.8105                 6.1516
 Frc consts  --      1.1539                 2.2332                 5.2881
 IR Inten    --      2.0428                 0.9641                18.2613

                     40                     41                     42
                      A                      A                      A
 Frequencies --   1251.7544              1267.5716              1289.1988
 Red. masses --      4.0998                 1.3675                 1.8931
 Frc consts  --      3.7848                 1.2946                 1.8538
 IR Inten    --     52.1093                 4.2666                28.2571

                     43                     44                     45
                      A                      A                      A
 Frequencies --   1295.9464              1307.9404              1339.9654
 Red. masses --      1.6276                 4.4701                 2.5951
 Frc consts  --      1.6105                 4.5055                 2.7453
 IR Inten    --      6.6776                30.0110                 2.3997

                     46                     47                     48
                      A                      A                      A
 Frequencies --   1349.5627              1398.6519              1412.5225
 Red. masses --      1.1949                 1.3796                 3.7876
 Frc consts  --      1.2823                 1.5901                 4.4525
 IR Inten    --     24.5829                 7.7155               160.6268

                     49                     50                     51
                      A                      A                      A
 Frequencies --   1444.7321              1463.5529              1484.7759
 Red. masses --      1.2642                 2.2567                 1.0996
 Frc consts  --      1.5546                 2.8481                 1.4283
 IR Inten    --      5.4657                86.0858                13.3267

                     52                     53                     54
                      A                      A                      A
 Frequencies --   1512.2182              1526.9754              1538.4076
 Red. masses --      1.0697                 1.0569                 1.0535
 Frc consts  --      1.4413                 1.4519                 1.4690
 IR Inten    --      2.0078                11.2193                11.2971

                     55                     56                     57
                      A                      A                      A
 Frequencies --   1560.7026              1577.1807              1617.5395
 Red. masses --      5.9885                 8.4078                 4.7980
 Frc consts  --      8.5943                12.3225                 7.3964
 IR Inten    --    268.7211                20.1933               174.7477

                     58                     59                     60
                      A                      A                      A
 Frequencies --   1690.5036              3031.0056              3058.4315
 Red. masses --      1.2266                 1.0631                 1.0356
 Frc consts  --      2.0654                 5.7543                 5.7077
 IR Inten    --    137.5108                44.1456                19.0928

                     61                     62                     63
                      A                      A                      A
 Frequencies --   3069.1244              3088.2021              3123.3412
 Red. masses --      1.0984                 1.0623                 1.1020
 Frc consts  --      6.0958                 5.9691                 6.3338
 IR Inten    --     17.1117                28.8957                50.8553

                     64                     65                     66
                      A                      A                      A
 Frequencies --   3135.4344              3148.8447              3202.3529
 Red. masses --      1.1028                 1.1049                 1.0908
 Frc consts  --      6.3878                 6.4549                 6.5907
 IR Inten    --     22.7158                 2.0018                25.0607

                     67                     68                     69
                      A                      A                      A
 Frequencies --   3228.9196              3542.9425              3641.3959
 Red. masses --      1.0928                 1.0475                 1.0986
 Frc consts  --      6.7131                 7.7472                 8.5827
 IR Inten    --      3.6058                34.3875                16.3782

 - Thermochemistry -
 -------------------
 Temperature   298.150 Kelvin.  Pressure   1.00000 Atm.
 Atom     1 has atomic number  6 and mass  12.00000

 Molecular mass:   225.03944 amu.
 Principal axes and moments of inertia in atomic units:
                           1         2         3
     Eigenvalues --  1660.173115502.025506548.75791
           X            0.99980  -0.01683  -0.01083
           Y            0.01684   0.99986   0.00135
           Z            0.01081  -0.00153   0.99994
 This molecule is an asymmetric top.
 Rotational symmetry number  1.
 Warning -- assumption of classical behavior for rotation
           may cause significant error
 Rotational temperatures (Kelvin)      0.05217     0.01574     0.01323
 Rotational constants (GHZ):           1.08708     0.32801     0.27559
 Zero-point vibrational energy     510261.7 (Joules/Mol)
                                  121.95546 (Kcal/Mol)
 Warning -- explicit consideration of  21 degrees of freedom as
           vibrations may cause significant error
 Vibrational temperatures:     38.27    79.87   149.04   152.25   199.54
          (Kelvin)            216.03   327.02   331.31   351.43   361.80
                              429.14   453.66   482.68   588.14   618.19
                              634.09   732.32   751.10   780.31   832.19
                              839.97   911.59   948.47   977.57  1030.74
                             1096.16  1137.01  1148.09  1205.23  1231.24
                             1283.22  1296.38  1354.85  1526.47  1567.30
                             1592.79  1609.55  1670.83  1737.89  1801.00
                             1823.75  1854.87  1864.58  1881.83  1927.91
                             1941.72  2012.35  2032.30  2078.65  2105.73
                             2136.26  2175.74  2196.98  2213.43  2245.50
                             2269.21  2327.28  2432.26  4360.94  4400.40
                             4415.79  4443.23  4493.79  4511.19  4530.49
                             4607.47  4645.70  5097.50  5239.16

 Zero-point correction=                           0.194348 (Hartree/Particle)
 Thermal correction to Energy=                    0.207990
 Thermal correction to Enthalpy=                  0.208934
 Thermal correction to Gibbs Free Energy=         0.153058
 Sum of electronic and zero-point Energies=          -1310.081972
 Sum of electronic and thermal Energies=             -1310.068330
 Sum of electronic and thermal Enthalpies=           -1310.067386
 Sum of electronic and thermal Free Energies=        -1310.123263

                     E (Thermal)             CV                S
                      KCal/Mol        Cal/Mol-Kelvin    Cal/Mol-Kelvin
 Total                  130.516             51.325            117.602
 Electronic               0.000              0.000              0.000
 Translational            0.889              2.981             42.136
 Rotational               0.889              2.981             32.459
 Vibrational            128.738             45.364             43.008
 Vibration     1          0.593              1.984              6.068
 Vibration     2          0.596              1.975              4.611
 Vibration     3          0.605              1.946              3.386
 Vibration     4          0.605              1.945              3.344
 Vibration     5          0.614              1.915              2.822
 Vibration     6          0.618              1.903              2.670
 Vibration     7          0.651              1.799              1.900
 Vibration     8          0.652              1.795              1.877
 Vibration     9          0.660              1.772              1.772
 Vibration    10          0.663              1.760              1.720
 Vibration    11          0.691              1.677              1.427
 Vibration    12          0.703              1.644              1.334
 Vibration    13          0.717              1.605              1.234
 Vibration    14          0.773              1.451              0.931
 Vibration    15          0.791              1.406              0.860
 Vibration    16          0.801              1.381              0.824
 Vibration    17          0.864              1.230              0.636
 Vibration    18          0.877              1.201              0.605
 Vibration    19          0.897              1.156              0.560
 Vibration    20          0.935              1.078              0.488
 Vibration    21          0.941              1.066              0.478

 Optimization completed.
    -- Stationary point found.
 Normal termination of Gaussian 16 at Thu Dec 10 10:00:02 2020.

 ----------------------------------------------------------------------
 # B3LYP/6-311++G(d,p) empiricaldispersion=gd3bj scf=xqc pop=npa geom=c
 heck
 ----------------------------------------------------------------------

 ---------------------------------------
 CID_130542976_JID_4483_Energie_neutraal
 ---------------------------------------
 Structure from the checkpoint file:  "JID_4483.chk"
 Charge =  0 Multiplicity = 1

 SCF Done:  E(RB3LYP) =  -1310.46952025     A.U. after   16 cycles
 Normal termination of Gaussian 16 at Thu Dec 10 10:02:43 2020.

 ----------------------------------------------------------------------
 # B3LYP/6-311++G(d,p) empiricaldispersion=gd3bj scf=xqc pop=npa geom=c
 heck
 ----------------------------------------------------------------------

 -------------------------------------
 CID_130542976_JID_4483_Energie_kation
 -------------------------------------
 Structure from the checkpoint file:  "JID_4483.chk"
 Charge =  1 Multiplicity = 2

 SCF Done:  E(UB3LYP) =  -1310.19587666     A.U. after   22 cycles
 Normal termination of Gaussian 16 at Thu Dec 10 10:07:38 2020.
 Gaussian 16:  ES64L-G16RevA.03 25-Dec-2016

 ----------------------------------------------------------------------
 # B3LYP/6-311++G(d,p) empiricaldispersion=gd3bj scf=xqc pop=npa geom=c
 heck
 ----------------------------------------------------------------------

 ------------------------------------
 CID_130542976_JID_4483_Energie_anion
 ------------------------------------
 Structure from the checkpoint file:  "JID_4483.chk"
 Charge = -1 Multiplicity = 2

                         Standard orientation:
 ---------------------------------------------------------------------
 Center     Atomic      Atomic             Coordinates (Angstroms)
 Number     Number       Type             X           Y           Z
 ---------------------------------------------------------------------
      1          6           0       -3.513375    0.338780    1.650284
      2          6           0       -4.140982   -0.539963    0.567633
      3          6           0       -3.361911   -0.566164   -0.750126
      4         16           0       -1.692161   -1.323416   -0.614546
      5          6           0       -0.642806    0.096057   -0.423830
      6          7           0       -1.143730    1.326713   -0.526116
      7          6           0       -0.304402    2.363911   -0.388799
      8          7           0        1.008904    2.310320   -0.158408
      9          6           0        1.486084    1.073072   -0.059531
     10          6           0        0.731862   -0.113248   -0.179017
     11          6           0        1.519617   -1.301700   -0.041266
     12          6           0        2.840242   -1.025659    0.184180
     13         16           0        3.185725    0.712049    0.252898
     14          7           0        3.871471   -1.911714    0.442521
     15          1           0       -2.522873   -0.033441    1.931897
     16          1           0       -4.137359    0.348519    2.550558
     17          1           0       -3.391833    1.368539    1.300441
     18          1           0       -4.259869   -1.565227    0.940553
     19          1           0       -5.151675   -0.174930    0.335495
     20          1           0       -3.883420   -1.165568   -1.501931
     21          1           0       -3.208568    0.440936   -1.144834
     22          1           0       -0.745033    3.353550   -0.475380
     23          1           0        1.123950   -2.308144   -0.110559
     24          1           0        3.654409   -2.872109    0.202506
     25          1           0        4.782767   -1.638018    0.094466
 ---------------------------------------------------------------------

 SCF Done:  E(UB3LYP) =  -1310.46572074     A.U. after   33 cycles
 SCF Done:  E(UB3LYP) =  -1310.46572074     a.u. after    1 cycles

 The electronic state is 2-A.
 Alpha  occ. eigenvalues --  -88.75746 -88.74544 -14.20811 -14.19581 -14.18911
 Alpha  occ. eigenvalues --  -10.12059 -10.11805 -10.11724 -10.10672 -10.10335
 Alpha  occ. eigenvalues --  -10.08759 -10.07055 -10.06806 -10.04924  -7.84390
 Alpha  occ. eigenvalues --   -7.83194  -5.80692  -5.80367  -5.79903  -5.79571
 Alpha  occ. eigenvalues --   -5.79163  -5.78636  -0.86840  -0.81446  -0.78024
 Alpha  occ. eigenvalues --   -0.73581  -0.71477  -0.66092  -0.63132  -0.60913
 Alpha  occ. eigenvalues --   -0.57281  -0.52167  -0.50880  -0.47854  -0.44927
 Alpha  occ. eigenvalues --   -0.42080  -0.40578  -0.38606  -0.36486  -0.35789
 Alpha  occ. eigenvalues --   -0.34337  -0.32592  -0.32484  -0.31630  -0.29590
 Alpha  occ. eigenvalues --   -0.27984  -0.26980  -0.26683  -0.25897  -0.25357
 Alpha  occ. eigenvalues --   -0.23673  -0.22714  -0.21653  -0.19610  -0.18575
 Alpha  occ. eigenvalues --   -0.14157  -0.13990  -0.13599  -0.08643   0.04577
 Alpha virt. eigenvalues --    0.06268   0.06951   0.08240   0.08484   0.08782
 Alpha virt. eigenvalues --    0.09312   0.09799   0.10707   0.11499   0.11724
 Alpha virt. eigenvalues --    0.12273   0.12726   0.13097   0.13609   0.13991

  Beta  occ. eigenvalues --  -88.75747 -88.74543 -14.20680 -14.19652 -14.18724
  Beta  occ. eigenvalues --  -10.12084 -10.11566 -10.11466 -10.10538 -10.10335
  Beta  occ. eigenvalues --  -10.08756 -10.06985 -10.06804 -10.04967  -7.84390
  Beta  occ. eigenvalues --   -7.83193  -5.80694  -5.80371  -5.79903  -5.79575
  Beta  occ. eigenvalues --   -5.79168  -5.78623  -0.86629  -0.81203  -0.77814
  Beta  occ. eigenvalues --   -0.73404  -0.71440  -0.65961  -0.63058  -0.60757
  Beta  occ. eigenvalues --   -0.57200  -0.51889  -0.50775  -0.47745  -0.44720
  Beta  occ. eigenvalues --   -0.41972  -0.40386  -0.38546  -0.36454  -0.35700
  Beta  occ. eigenvalues --   -0.34179  -0.32429  -0.32265  -0.31328  -0.29527
  Beta  occ. eigenvalues --   -0.27912  -0.26946  -0.26146  -0.25861  -0.25274
  Beta  occ. eigenvalues --   -0.23569  -0.22124  -0.21501  -0.19117  -0.18441
  Beta  occ. eigenvalues --   -0.14049  -0.13841  -0.13375  -0.08025
  Beta virt. eigenvalues --    0.06239   0.08031   0.08336   0.08590   0.08807
  Beta virt. eigenvalues --    0.09041   0.09552   0.10421   0.10642   0.11599
  Beta virt. eigenvalues --    0.12096   0.12241   0.12762   0.13156   0.13750

 Mulliken charges and spin densities:
               1          2
     1  C   -0.547391  -0.050686
     2  C   -0.111760  -0.025387
     3  C   -0.171615  -0.001815
     4  S   -0.433102  -0.035831
     5  C    0.328018   0.073924
     6  N    0.005712  -0.033481
     7  C    0.249352   0.101141
     8  N   -0.038150   0.075537
     9  C   -1.020795  -0.043436
    10  C    0.634286  -0.372710
    11  C    1.596309  -1.116294
    12  C   -0.730406   0.281475
    13  S   -0.594301   0.320093
    14  N   -0.184652  -0.059667
    15  H    0.133641   0.011160
    16  H    0.110168   0.009313
    17  H    0.124143   0.025429
    18  H    0.102244   0.012630
    19  H    0.075566   0.031226
    20  H    0.203690   0.000288
    21  H    0.195986   0.001426
    22  H    0.185288   0.002228
    23  H   -0.131930   0.288780
    24  H   -0.353889   0.613925
    25  H   -0.626411   0.890731
 Sum of Mulliken charges =  -1.00000   1.00000

 Dipole moment (field-independent basis, Debye):
    X=            -10.8165    Y=              2.8141    Z=              0.5540  Tot=             11.1903
 Quadrupole moment (field-independent basis, Debye-Ang):
   XX=           -170.8862   YY=           -136.7386   ZZ=           -114.0032
   XY=             22.0475   XZ=              1.2613   YZ=             -0.9046

 Summary of Natural Population Analysis:

                                       Natural Population
                Natural  -----------------------------------------------
    Atom  No    Charge         Core      Valence    Rydberg      Total
 -----------------------------------------------------------------------
      C    1   -0.29041      0.99967     2.28511    0.00563     3.29041
      C    2   -0.19362      0.99963     2.18620    0.00779     3.19362
      C    3   -0.25133      0.99959     2.24333    0.00841     3.25133
      S    4    0.11092      4.99955     2.86858    0.02095     7.88908
      C    5    0.09247      0.99938     1.89197    0.01618     2.90753
      N    6   -0.28992      0.99965     2.77810    0.01217     3.78992
      C    7    0.14916      0.99967     1.83264    0.01854     2.85084
      N    8   -0.23513      0.99965     2.72516    0.01032     3.73513
      C    9    0.03213      0.99943     1.94822    0.02022     2.96787
      C   10   -0.06903      0.99940     2.05934    0.01029     3.06903
      C   11   -0.18558      0.99944     2.17410    0.01204     3.18558
      C   12    0.07267      0.99949     1.91085    0.01699     2.92733
      S   13    0.17056      4.99942     2.80954    0.02048     7.82944
      N   14   -0.39278      0.99969     2.88030    0.01279     3.89278
      H   15    0.10554      0.00000     0.39340    0.00106     0.39446
      H   16    0.09238      0.00000     0.40667    0.00096     0.40762
      H   17    0.10313      0.00000     0.39549    0.00138     0.39687
      H   18    0.09364      0.00000     0.40534    0.00103     0.40636
      H   19    0.09003      0.00000     0.40792    0.00205     0.40997
      H   20    0.10017      0.00000     0.39899    0.00084     0.39983
      H   21    0.12046      0.00000     0.37829    0.00125     0.37954
      H   22    0.07562      0.00000     0.42332    0.00106     0.42438
      H   23    0.11032      0.00000     0.38848    0.00120     0.38968
      H   24    0.19300      0.00000     0.29861    0.00839     0.30700
      H   25    0.19560      0.00000     0.28915    0.01525     0.30440
 =======================================================================
   * Total *    0.00000     21.99367    36.77909    0.22725    59.00000

 Normal termination of Gaussian 16 at Thu Dec 10 10:15:39 2020.
