 Gaussian 16, Revision A.03,

 -----------------------------------------------------------
 # opt freq B3LYP/6-31G(d) empiricaldispersion=gd3bj scf=xqc
 -----------------------------------------------------------

 -------------------------------
 CID_106452148_JID_2001_neutraal
 -------------------------------
 Symbolic Z-matrix:
 Charge =  0 Multiplicity = 1

 SCF Done:  E(RB3LYP) =  -523.670973577     A.U. after   13 cycles
 SCF Done:  E(RB3LYP) =  -523.675613672     A.U. after   11 cycles
 SCF Done:  E(RB3LYP) =  -523.675538945     A.U. after   11 cycles
 SCF Done:  E(RB3LYP) =  -523.676467590     A.U. after   10 cycles
 SCF Done:  E(RB3LYP) =  -523.676594937     A.U. after   10 cycles
 SCF Done:  E(RB3LYP) =  -523.676643268     A.U. after   10 cycles
 SCF Done:  E(RB3LYP) =  -523.676775232     A.U. after   10 cycles
 SCF Done:  E(RB3LYP) =  -523.676817420     A.U. after   10 cycles
 SCF Done:  E(RB3LYP) =  -523.676851401     A.U. after   10 cycles
 SCF Done:  E(RB3LYP) =  -523.676872387     A.U. after    9 cycles
 SCF Done:  E(RB3LYP) =  -523.676898683     A.U. after   10 cycles
 SCF Done:  E(RB3LYP) =  -523.676905532     A.U. after    8 cycles
 SCF Done:  E(RB3LYP) =  -523.676906433     A.U. after    7 cycles
 SCF Done:  E(RB3LYP) =  -523.676906607     A.U. after    6 cycles
 Optimization completed.
    -- Stationary point found.
 Normal termination of Gaussian 16 at Wed Dec  9 16:48:33 2020.

 --------------------------------------------------------------------
 #N Geom=AllCheck Guess=TCheck SCRF=Check GenChk RB3LYP/6-31G(d) Freq
 --------------------------------------------------------------------

 Structure from the checkpoint file:  "JID_2001.chk"
 -------------------------------
 CID_106452148_JID_2001_neutraal
 -------------------------------
 Charge =  0 Multiplicity = 1

 SCF Done:  E(RB3LYP) =  -523.676906607     A.U. after    1 cycles

  Exact polarizability: 124.825  -1.444 112.820   0.067  -2.139 104.131
 Approx polarizability: 153.747  -2.144 155.479  -0.559  -2.926 152.661

                      1                      2                      3
                      A                      A                      A
 Frequencies --     35.5360                44.6628                63.9073
 Red. masses --      3.6843                 4.3647                 3.1508
 Frc consts  --      0.0027                 0.0051                 0.0076
 IR Inten    --      1.2427                 1.1968                 0.1477

                      4                      5                      6
                      A                      A                      A
 Frequencies --     87.3846               110.6234               123.2411
 Red. masses --      2.4505                 3.0135                 2.0105
 Frc consts  --      0.0110                 0.0217                 0.0180
 IR Inten    --      0.0787                 1.3014                 1.6618

                      7                      8                      9
                      A                      A                      A
 Frequencies --    158.5909               181.1746               211.6147
 Red. masses --      2.8708                 2.9385                 1.4482
 Frc consts  --      0.0425                 0.0568                 0.0382
 IR Inten    --      0.0771                 0.3806                 7.8932

                     10                     11                     12
                      A                      A                      A
 Frequencies --    221.4113               270.8040               295.4541
 Red. masses --      1.9170                 2.3163                 2.6594
 Frc consts  --      0.0554                 0.1001                 0.1368
 IR Inten    --      0.2852                 0.7310                 2.7684

                     13                     14                     15
                      A                      A                      A
 Frequencies --    324.2978               358.6753               365.4017
 Red. masses --      1.9804                 2.1572                 2.2493
 Frc consts  --      0.1227                 0.1635                 0.1769
 IR Inten    --      4.9925                 5.0769                 0.9058

                     16                     17                     18
                      A                      A                      A
 Frequencies --    388.5051               498.3132               502.4403
 Red. masses --      2.3321                 2.2177                 2.1597
 Frc consts  --      0.2074                 0.3245                 0.3212
 IR Inten    --      1.8941                 5.2208                 4.0478

                     19                     20                     21
                      A                      A                      A
 Frequencies --    559.8566               748.6661               758.6117
 Red. masses --      2.2422                 1.6852                 1.6793
 Frc consts  --      0.4141                 0.5565                 0.5694
 IR Inten    --      1.7998                 9.2463                22.7178

                     22                     23                     24
                      A                      A                      A
 Frequencies --    788.8403               810.2461               817.6202
 Red. masses --      1.5237                 1.2998                 1.2296
 Frc consts  --      0.5586                 0.5027                 0.4843
 IR Inten    --     58.8241                 2.2412                20.9040

                     25                     26                     27
                      A                      A                      A
 Frequencies --    846.3799               848.3636               893.0445
 Red. masses --      1.8555                 1.9252                 1.6928
 Frc consts  --      0.7832                 0.8164                 0.7954
 IR Inten    --      1.7834                11.4154                31.9275

                     28                     29                     30
                      A                      A                      A
 Frequencies --    897.3252               929.8192               943.0315
 Red. masses --      2.3964                 2.3780                 1.5510
 Frc consts  --      1.1369                 1.2113                 0.8127
 IR Inten    --     17.7579                33.1619                 6.3117

                     31                     32                     33
                      A                      A                      A
 Frequencies --    960.7666               971.4601              1003.3102
 Red. masses --      2.3440                 1.6330                 1.7423
 Frc consts  --      1.2748                 0.9080                 1.0333
 IR Inten    --      6.1321                 6.5773                 5.5271

                     34                     35                     36
                      A                      A                      A
 Frequencies --   1044.9239              1064.0206              1071.3940
 Red. masses --      2.0476                 2.2527                 1.5428
 Frc consts  --      1.3172                 1.5026                 1.0434
 IR Inten    --      1.9688                 6.1824                10.4931

                     37                     38                     39
                      A                      A                      A
 Frequencies --   1091.1550              1097.4735              1118.0420
 Red. masses --      1.5769                 1.8381                 1.6540
 Frc consts  --      1.1062                 1.3044                 1.2182
 IR Inten    --     17.2773                49.8396                 9.1309

                     40                     41                     42
                      A                      A                      A
 Frequencies --   1137.6778              1147.5617              1153.4145
 Red. masses --      1.9736                 1.4269                 1.6627
 Frc consts  --      1.5050                 1.1072                 1.3033
 IR Inten    --      0.3210                12.8802                16.0407

                     43                     44                     45
                      A                      A                      A
 Frequencies --   1162.7060              1184.5525              1203.4931
 Red. masses --      2.3353                 2.5628                 2.2056
 Frc consts  --      1.8601                 2.1187                 1.8822
 IR Inten    --     27.1555                50.9827                13.0377

                     46                     47                     48
                      A                      A                      A
 Frequencies --   1212.2106              1236.6969              1256.7667
 Red. masses --      1.3858                 1.8168                 1.2208
 Frc consts  --      1.1998                 1.6371                 1.1361
 IR Inten    --      0.4453                 0.0413                 5.6227

                     49                     50                     51
                      A                      A                      A
 Frequencies --   1281.6730              1288.9023              1314.1229
 Red. masses --      1.3571                 1.1834                 1.2583
 Frc consts  --      1.3135                 1.1583                 1.2802
 IR Inten    --      3.8084                 4.4617                 8.6821

                     52                     53                     54
                      A                      A                      A
 Frequencies --   1341.8096              1353.6835              1370.2292
 Red. masses --      1.1564                 1.2783                 1.2196
 Frc consts  --      1.2267                 1.3801                 1.3492
 IR Inten    --     13.3311                 1.4340                13.7790

                     55                     56                     57
                      A                      A                      A
 Frequencies --   1383.3148              1403.2505              1417.3482
 Red. masses --      1.3931                 1.2453                 1.2614
 Frc consts  --      1.5706                 1.4448                 1.4930
 IR Inten    --      1.6224                24.0630                 4.5448

                     58                     59                     60
                      A                      A                      A
 Frequencies --   1427.7914              1439.4845              1442.8369
 Red. masses --      1.4102                 1.3062                 1.5450
 Frc consts  --      1.6938                 1.5947                 1.8950
 IR Inten    --     10.2609                 1.5368                 1.5575

                     61                     62                     63
                      A                      A                      A
 Frequencies --   1455.5350              1496.8179              1509.0963
 Red. masses --      1.2286                 1.0898                 1.0830
 Frc consts  --      1.5336                 1.4386                 1.4532
 IR Inten    --      6.5827                 1.7501                 5.1556

                     64                     65                     66
                      A                      A                      A
 Frequencies --   1512.5510              1514.5858              1521.1322
 Red. masses --      1.0798                 1.1030                 1.0973
 Frc consts  --      1.4555                 1.4908                 1.4959
 IR Inten    --      2.4789                 3.0693                 0.4191

                     67                     68                     69
                      A                      A                      A
 Frequencies --   1525.2911              1533.1156              1534.4208
 Red. masses --      1.1399                 1.1591                 1.0519
 Frc consts  --      1.5625                 1.6052                 1.4592
 IR Inten    --     11.1833                 9.2486                11.1282

                     70                     71                     72
                      A                      A                      A
 Frequencies --   1539.9666              1546.8108              1551.3289
 Red. masses --      1.2749                 1.0648                 1.1035
 Frc consts  --      1.7813                 1.5011                 1.5646
 IR Inten    --      0.6292                12.4715                 5.9269

                     73                     74                     75
                      A                      A                      A
 Frequencies --   2968.8049              2991.8086              3028.9961
 Red. masses --      1.0691                 1.0720                 1.0624
 Frc consts  --      5.5518                 5.6533                 5.7428
 IR Inten    --     53.6283                73.5895                21.5192

                     76                     77                     78
                      A                      A                      A
 Frequencies --   3036.2552              3040.3387              3043.5232
 Red. masses --      1.0621                 1.0842                 1.0603
 Frc consts  --      5.7690                 5.9050                 5.7867
 IR Inten    --     55.3485                16.1741                26.1990

                     79                     80                     81
                      A                      A                      A
 Frequencies --   3045.8722              3060.5361              3066.5749
 Red. masses --      1.0435                 1.0639                 1.0990
 Frc consts  --      5.7037                 5.8715                 6.0891
 IR Inten    --     24.5908                64.7159                43.0845

                     82                     83                     84
                      A                      A                      A
 Frequencies --   3076.9396              3079.4636              3092.6826
 Red. masses --      1.0988                 1.1032                 1.0909
 Frc consts  --      6.1290                 6.1639                 6.1476
 IR Inten    --     18.9585                45.6960                50.9293

                     85                     86                     87
                      A                      A                      A
 Frequencies --   3101.2717              3107.5613              3131.3091
 Red. masses --      1.1069                 1.1009                 1.0870
 Frc consts  --      6.2726                 6.2635                 6.2794
 IR Inten    --     43.6876                54.0180                29.2746

                     88                     89                     90
                      A                      A                      A
 Frequencies --   3134.8200              3142.8917              3147.7675
 Red. masses --      1.1016                 1.0509                 1.0605
 Frc consts  --      6.3782                 6.1160                 6.1910
 IR Inten    --     12.8886                24.3497                 6.4885

                     91                     92                     93
                      A                      A                      A
 Frequencies --   3216.6408              3230.6297              3529.0716
 Red. masses --      1.1191                 1.1158                 1.0724
 Frc consts  --      6.8224                 6.8612                 7.8695
 IR Inten    --      1.6673                22.3902                 0.5739

 - Thermochemistry -
 -------------------
 Temperature   298.150 Kelvin.  Pressure   1.00000 Atm.
 Atom     1 has atomic number  6 and mass  12.00000

 Molecular mass:   171.16231 amu.
 Principal axes and moments of inertia in atomic units:
                           1         2         3
     Eigenvalues --  1448.971663584.338783897.10175
           X            0.99989   0.00104   0.01469
           Y           -0.00041   0.99907  -0.04307
           Z           -0.01472   0.04306   0.99896
 This molecule is an asymmetric top.
 Rotational symmetry number  1.
 Warning -- assumption of classical behavior for rotation
           may cause significant error
 Rotational temperatures (Kelvin)      0.05978     0.02416     0.02223
 Rotational constants (GHZ):           1.24553     0.50351     0.46310
 Zero-point vibrational energy     802576.6 (Joules/Mol)
                                  191.82041 (Kcal/Mol)
 Warning -- explicit consideration of  19 degrees of freedom as
           vibrations may cause significant error
 Vibrational temperatures:     51.13    64.26    91.95   125.73   159.16
          (Kelvin)            177.32   228.18   260.67   304.47   318.56
                              389.63   425.09   466.59   516.05   525.73
                              558.97   716.96   722.90   805.51  1077.16
                             1091.47  1134.97  1165.76  1176.37  1217.75
                             1220.61  1284.89  1291.05  1337.80  1356.81
                             1382.33  1397.71  1443.54  1503.41  1530.89
                             1541.50  1569.93  1579.02  1608.61  1636.86
                             1651.09  1659.51  1672.87  1704.31  1731.56
                             1744.10  1779.33  1808.21  1844.04  1854.44
                             1890.73  1930.56  1947.65  1971.45  1990.28
                             2018.96  2039.25  2054.27  2071.10  2075.92
                             2094.19  2153.59  2171.25  2176.22  2179.15
                             2188.57  2194.55  2205.81  2207.69  2215.67
                             2225.52  2232.02  4271.45  4304.55  4358.05
                             4368.49  4374.37  4378.95  4382.33  4403.43
                             4412.12  4427.03  4430.66  4449.68  4462.04
                             4471.09  4505.26  4510.31  4521.92  4528.94
                             4628.03  4648.16  5077.55

 Zero-point correction=                           0.305685 (Hartree/Particle)
 Thermal correction to Energy=                    0.319764
 Thermal correction to Enthalpy=                  0.320708
 Thermal correction to Gibbs Free Energy=         0.264020
 Sum of electronic and zero-point Energies=           -523.371221
 Sum of electronic and thermal Energies=              -523.357143
 Sum of electronic and thermal Enthalpies=            -523.356198
 Sum of electronic and thermal Free Energies=         -523.412887

                     E (Thermal)             CV                S
                      KCal/Mol        Cal/Mol-Kelvin    Cal/Mol-Kelvin
 Total                  200.655             51.993            119.311
 Electronic               0.000              0.000              0.000
 Translational            0.889              2.981             41.320
 Rotational               0.889              2.981             31.382
 Vibrational            198.878             46.032             46.609
 Vibration     1          0.594              1.982              5.494
 Vibration     2          0.595              1.980              5.041
 Vibration     3          0.597              1.972              4.333
 Vibration     4          0.601              1.958              3.718
 Vibration     5          0.606              1.941              3.258
 Vibration     6          0.610              1.930              3.049
 Vibration     7          0.621              1.893              2.567
 Vibration     8          0.630              1.865              2.316
 Vibration     9          0.643              1.823              2.030
 Vibration    10          0.648              1.808              1.948
 Vibration    11          0.674              1.727              1.591
 Vibration    12          0.690              1.682              1.443
 Vibration    13          0.709              1.627              1.288
 Vibration    14          0.734              1.557              1.128
 Vibration    15          0.739              1.543              1.099
 Vibration    16          0.757              1.495              1.006
 Vibration    17          0.854              1.254              0.662
 Vibration    18          0.858              1.245              0.652
 Vibration    19          0.915              1.118              0.524

                           ! Non-Optimized Parameters !
 Normal termination of Gaussian 16 at Wed Dec  9 16:56:55 2020.

 ----------------------------------------------------------------------
 # B3LYP/6-311++G(d,p) empiricaldispersion=gd3bj scf=xqc pop=npa geom=c
 heck
 ----------------------------------------------------------------------

 ---------------------------------------
 CID_106452148_JID_2001_Energie_neutraal
 ---------------------------------------
 Structure from the checkpoint file:  "JID_2001.chk"
 Charge =  0 Multiplicity = 1

 SCF Done:  E(RB3LYP) =  -523.829077215     A.U. after   13 cycles
 Normal termination of Gaussian 16 at Wed Dec  9 17:00:13 2020.

 ----------------------------------------------------------------------
 # B3LYP/6-311++G(d,p) empiricaldispersion=gd3bj scf=xqc pop=npa geom=c
 heck
 ----------------------------------------------------------------------

 -------------------------------------
 CID_106452148_JID_2001_Energie_kation
 -------------------------------------
 Structure from the checkpoint file:  "JID_2001.chk"
 Charge =  1 Multiplicity = 2

 SCF Done:  E(UB3LYP) =  -523.528663052     A.U. after   19 cycles
 Normal termination of Gaussian 16 at Wed Dec  9 17:06:25 2020.
 Gaussian 16:  ES64L-G16RevA.03 25-Dec-2016

 ----------------------------------------------------------------------
 # B3LYP/6-311++G(d,p) empiricaldispersion=gd3bj scf=xqc pop=npa geom=c
 heck
 ----------------------------------------------------------------------

 ------------------------------------
 CID_106452148_JID_2001_Energie_anion
 ------------------------------------
 Structure from the checkpoint file:  "JID_2001.chk"
 Charge = -1 Multiplicity = 2

                         Standard orientation:
 ---------------------------------------------------------------------
 Center     Atomic      Atomic             Coordinates (Angstroms)
 Number     Number       Type             X           Y           Z
 ---------------------------------------------------------------------
      1          6           0        2.907408    0.107745    1.729950
      2          6           0        3.202697   -0.798485    0.527524
      3          6           0        1.954014   -1.284887   -0.230941
      4          8           0        1.623758   -0.572922   -1.422192
      5          6           0        1.556796    0.849249   -1.395226
      6          6           0        0.176617    1.393369   -1.043511
      7          7           0       -0.131190    1.258569    0.377688
      8          6           0       -1.466464    1.730827    0.747314
      9          6           0       -2.649871    0.919577    0.182594
     10          6           0       -2.645507   -0.526678    0.634670
     11          6           0       -3.333266   -1.588950   -0.184062
     12          6           0       -1.827253   -1.572228   -0.096524
     13          1           0        2.283314    0.965301    1.460915
     14          1           0        3.834727    0.478130    2.181400
     15          1           0        2.365205   -0.451297    2.502881
     16          1           0        3.869621   -0.301711   -0.188183
     17          1           0        3.750887   -1.681371    0.880637
     18          1           0        2.108514   -2.307976   -0.587928
     19          1           0        1.096155   -1.321920    0.460008
     20          1           0        2.312425    1.278378   -0.727619
     21          1           0        1.799886    1.162006   -2.417237
     22          1           0        0.158187    2.465307   -1.287100
     23          1           0       -0.553864    0.903445   -1.711215
     24          1           0       -0.068467    0.277022    0.634496
     25          1           0       -1.525240    1.728022    1.843989
     26          1           0       -1.552331    2.778524    0.431216
     27          1           0       -3.586497    1.400049    0.498842
     28          1           0       -2.643170    0.956729   -0.914496
     29          1           0       -2.705174   -0.653250    1.715949
     30          1           0       -3.872021   -2.377231    0.333999
     31          1           0       -3.789465   -1.283121   -1.122327
     32          1           0       -1.262877   -1.270327   -0.974817
     33          1           0       -1.342574   -2.348558    0.489588
 ---------------------------------------------------------------------

 SCF Done:  E(UB3LYP) =  -523.811006717     A.U. after   30 cycles

 The electronic state is 2-A.
 Alpha  occ. eigenvalues --  -19.02267 -14.19551 -10.11565 -10.11526 -10.09174
 Alpha  occ. eigenvalues --  -10.09112 -10.07938 -10.07283 -10.07085 -10.06884
 Alpha  occ. eigenvalues --  -10.06865 -10.05455  -0.93105  -0.80799  -0.76057
 Alpha  occ. eigenvalues --   -0.68425  -0.66021  -0.62653  -0.57500  -0.53214
 Alpha  occ. eigenvalues --   -0.51123  -0.50419  -0.47766  -0.46644  -0.41153
 Alpha  occ. eigenvalues --   -0.40075  -0.38697  -0.38131  -0.36120  -0.35549
 Alpha  occ. eigenvalues --   -0.33060  -0.32823  -0.32045  -0.30114  -0.29771
 Alpha  occ. eigenvalues --   -0.29179  -0.27642  -0.26848  -0.26539  -0.26089
 Alpha  occ. eigenvalues --   -0.24993  -0.23823  -0.23419  -0.20299  -0.19613
 Alpha  occ. eigenvalues --   -0.18778  -0.15868  -0.12766   0.04628
 Alpha virt. eigenvalues --    0.06484   0.06658   0.07522   0.08318   0.08504
 Alpha virt. eigenvalues --    0.09098   0.09584   0.10332   0.11021   0.11232
 Alpha virt. eigenvalues --    0.11237   0.11964   0.12698   0.13532   0.13577

  Beta  occ. eigenvalues --  -19.02266 -14.19549 -10.11553 -10.11511 -10.09160
  Beta  occ. eigenvalues --  -10.09095 -10.07924 -10.07266 -10.07074 -10.06869
  Beta  occ. eigenvalues --  -10.06844 -10.05431  -0.93097  -0.80786  -0.76033
  Beta  occ. eigenvalues --   -0.68393  -0.65992  -0.62622  -0.57461  -0.53166
  Beta  occ. eigenvalues --   -0.51075  -0.50372  -0.47714  -0.46594  -0.41133
  Beta  occ. eigenvalues --   -0.40032  -0.38673  -0.38094  -0.36082  -0.35522
  Beta  occ. eigenvalues --   -0.33023  -0.32799  -0.32016  -0.30087  -0.29739
  Beta  occ. eigenvalues --   -0.29147  -0.27612  -0.26821  -0.26509  -0.26053
  Beta  occ. eigenvalues --   -0.24949  -0.23791  -0.23387  -0.20281  -0.19591
  Beta  occ. eigenvalues --   -0.18752  -0.15856  -0.12756
  Beta virt. eigenvalues --    0.06740   0.07358   0.07523   0.07969   0.08906
  Beta virt. eigenvalues --    0.09011   0.09502   0.10110   0.10665   0.11437
  Beta virt. eigenvalues --    0.11525   0.11668   0.12378   0.13008   0.13790

 Mulliken charges and spin densities:
               1          2
     1  C    0.277129  -0.790354
     2  C    0.653789  -0.942418
     3  C   -0.466677   0.340943
     4  O   -0.099833   0.004577
     5  C    0.135458  -0.550116
     6  C   -0.097262  -0.245566
     7  N    0.025901  -0.005806
     8  C   -0.526743   0.164083
     9  C    1.149826  -1.460231
    10  C   -1.283458   1.455536
    11  C    0.550304  -1.038613
    12  C    0.189880  -0.606260
    13  H    0.038645   0.128815
    14  H   -0.295507   0.433871
    15  H   -0.179877   0.326501
    16  H   -0.009213   0.166922
    17  H   -0.299955   0.450883
    18  H   -0.301955   0.478816
    19  H   -0.042694   0.100173
    20  H    0.157336  -0.007758
    21  H   -0.309286   0.471129
    22  H   -0.181646   0.322990
    23  H    0.128568   0.001109
    24  H    0.867347  -0.673015
    25  H   -0.087232   0.262538
    26  H   -0.241152   0.366814
    27  H   -0.167762   0.326897
    28  H   -0.169300   0.305657
    29  H   -0.385142   0.595388
    30  H   -0.301194   0.457300
    31  H    0.087474   0.025179
    32  H    0.149423   0.014801
    33  H    0.034805   0.119216
 Sum of Mulliken charges =  -1.00000   1.00000

 Dipole moment (field-independent basis, Debye):
    X=             -0.5711    Y=              1.1445    Z=             -2.5785  Tot=              2.8783
 Quadrupole moment (field-independent basis, Debye-Ang):
   XX=           -148.7183   YY=           -124.9387   ZZ=           -119.4601
   XY=              3.6601   XZ=              0.6746   YZ=              4.0434

 Summary of Natural Population Analysis:

                                       Natural Population
                Natural  -----------------------------------------------
    Atom  No    Charge         Core      Valence    Rydberg      Total
 -----------------------------------------------------------------------
      C    1   -0.29275      0.99966     2.28694    0.00615     3.29275
      C    2   -0.21107      0.99964     2.20379    0.00764     3.21107
      C    3   -0.00568      0.99956     1.99272    0.01340     3.00568
      O    4   -0.30543      0.99989     3.29610    0.00944     4.30543
      C    5   -0.01304      0.99955     2.00050    0.01299     3.01304
      C    6   -0.09915      0.99961     2.08901    0.01053     3.09915
      N    7   -0.34589      0.99975     2.83544    0.01070     3.84589
      C    8   -0.08208      0.99962     2.07079    0.01166     3.08208
      C    9   -0.19980      0.99961     2.19130    0.00889     3.19980
      C   10   -0.11890      0.99959     2.10774    0.01157     3.11890
      C   11   -0.19638      0.99962     2.18884    0.00792     3.19638
      C   12   -0.20693      0.99961     2.19709    0.01023     3.20693
      H   13    0.10524      0.00000     0.39288    0.00188     0.39476
      H   14    0.09691      0.00000     0.40202    0.00107     0.40309
      H   15    0.09734      0.00000     0.40141    0.00125     0.40266
      H   16    0.09801      0.00000     0.40086    0.00113     0.40199
      H   17    0.10109      0.00000     0.39726    0.00165     0.39891
      H   18    0.09028      0.00000     0.40818    0.00154     0.40972
      H   19    0.07271      0.00000     0.42515    0.00214     0.42729
      H   20    0.08439      0.00000     0.41397    0.00164     0.41561
      H   21    0.08856      0.00000     0.41026    0.00118     0.41144
      H   22    0.09305      0.00000     0.40546    0.00149     0.40695
      H   23    0.08059      0.00000     0.41764    0.00177     0.41941
      H   24    0.17552      0.00000     0.31982    0.00466     0.32448
      H   25    0.09231      0.00000     0.40651    0.00118     0.40769
      H   26    0.09171      0.00000     0.40714    0.00114     0.40829
      H   27    0.10108      0.00000     0.39756    0.00137     0.39892
      H   28    0.09460      0.00000     0.40381    0.00159     0.40540
      H   29    0.10315      0.00000     0.39504    0.00181     0.39685
      H   30    0.10256      0.00000     0.39634    0.00110     0.39744
      H   31    0.09842      0.00000     0.40069    0.00089     0.40158
      H   32    0.10539      0.00000     0.39299    0.00162     0.39461
      H   33    0.10418      0.00000     0.39446    0.00136     0.39582
 =======================================================================
   * Total *   -0.00000     11.99571    35.84971    0.15458    48.00000

 Normal termination of Gaussian 16 at Wed Dec  9 17:16:33 2020.
