 Gaussian 16, Revision A.03,

 -----------------------------------------------------------
 # opt freq B3LYP/6-31G(d) empiricaldispersion=gd3bj scf=xqc
 -----------------------------------------------------------

 -------------------------------
 CID_46915006_JID_10007_neutraal
 -------------------------------
 Symbolic Z-matrix:
 Charge =  0 Multiplicity = 1

 SCF Done:  E(RB3LYP) =  -1256.80072497     A.U. after   16 cycles
 SCF Done:  E(RB3LYP) =  -1256.80548422     A.U. after   15 cycles
 SCF Done:  E(RB3LYP) =  -1256.80240774     A.U. after   15 cycles
 SCF Done:  E(RB3LYP) =  -1256.80684521     A.U. after   15 cycles
 SCF Done:  E(RB3LYP) =  -1256.80750028     A.U. after   12 cycles
 SCF Done:  E(RB3LYP) =  -1256.80761681     A.U. after   13 cycles
 SCF Done:  E(RB3LYP) =  -1256.80763012     A.U. after   11 cycles
 SCF Done:  E(RB3LYP) =  -1256.80763602     A.U. after   10 cycles
 SCF Done:  E(RB3LYP) =  -1256.80763824     A.U. after   10 cycles
 SCF Done:  E(RB3LYP) =  -1256.80763872     A.U. after   10 cycles
 SCF Done:  E(RB3LYP) =  -1256.80763885     A.U. after    8 cycles
 Optimization completed.
    -- Stationary point found.
 Normal termination of Gaussian 16 at Mon Dec 14 17:22:42 2020.

 --------------------------------------------------------------------
 #N Geom=AllCheck Guess=TCheck SCRF=Check GenChk RB3LYP/6-31G(d) Freq
 --------------------------------------------------------------------

 Structure from the checkpoint file:  "JID_10007.chk"
 -------------------------------
 CID_46915006_JID_10007_neutraal
 -------------------------------
 Charge =  0 Multiplicity = 1

 SCF Done:  E(RB3LYP) =  -1256.80763885     A.U. after    1 cycles

  Exact polarizability: 268.045  -7.883 221.706  -6.634 -15.060 100.058
 Approx polarizability: 399.917   0.927 387.055 -12.127 -50.812 171.518

                      1                      2                      3
                      A                      A                      A
 Frequencies --     28.0309                36.6975                48.2773
 Red. masses --      4.7448                 4.7585                11.1463
 Frc consts  --      0.0022                 0.0038                 0.0153
 IR Inten    --      2.2586                 1.3133                 0.2030

                      4                      5                      6
                      A                      A                      A
 Frequencies --     63.7124                84.1538                86.5028
 Red. masses --      7.3856                 4.8334                 4.0922
 Frc consts  --      0.0177                 0.0202                 0.0180
 IR Inten    --      0.4395                 0.9413                 0.8324

                      7                      8                      9
                      A                      A                      A
 Frequencies --    142.9178               157.3720               167.1363
 Red. masses --      1.2766                 3.2163                 6.3517
 Frc consts  --      0.0154                 0.0469                 0.1045
 IR Inten    --      0.2590                 0.0609                 1.5814

                     10                     11                     12
                      A                      A                      A
 Frequencies --    177.3523               223.2982               229.6088
 Red. masses --      5.7156                 5.0012                 4.8310
 Frc consts  --      0.1059                 0.1469                 0.1501
 IR Inten    --      2.9693                 0.2557                 1.2553

                     13                     14                     15
                      A                      A                      A
 Frequencies --    294.4917               312.8533               335.8565
 Red. masses --      6.3813                 6.9956                 5.7889
 Frc consts  --      0.3261                 0.4034                 0.3847
 IR Inten    --      0.0818                 0.3095                 4.1518

                     16                     17                     18
                      A                      A                      A
 Frequencies --    393.8107               405.7260               423.2556
 Red. masses --      7.1178                 9.3481                 6.6275
 Frc consts  --      0.6504                 0.9066                 0.6995
 IR Inten    --      0.3036                 1.7540                 1.3514

                     19                     20                     21
                      A                      A                      A
 Frequencies --    441.0359               447.5442               517.5030
 Red. masses --      3.2956                 3.5524                 6.6607
 Frc consts  --      0.3777                 0.4192                 1.0510
 IR Inten    --      0.6044                 1.7056                 0.4416

                     22                     23                     24
                      A                      A                      A
 Frequencies --    546.7108               578.1368               588.1770
 Red. masses --      6.7093                 6.3214                 4.9945
 Frc consts  --      1.1815                 1.2449                 1.0180
 IR Inten    --      2.5089                 2.4570                 1.6778

                     25                     26                     27
                      A                      A                      A
 Frequencies --    630.2896               641.1909               670.2168
 Red. masses --      7.3056                 6.7563                 7.0387
 Frc consts  --      1.7100                 1.6366                 1.8628
 IR Inten    --      6.2520                 4.0527                 5.8949

                     28                     29                     30
                      A                      A                      A
 Frequencies --    684.3497               697.3954               705.8824
 Red. masses --      6.7479                 5.8617                 2.4055
 Frc consts  --      1.8620                 1.6797                 0.7062
 IR Inten    --      2.1990                 0.0927                23.4433

                     31                     32                     33
                      A                      A                      A
 Frequencies --    748.7164               755.6239               762.4594
 Red. masses --      4.7643                 8.6367                 1.5427
 Frc consts  --      1.5736                 2.9054                 0.5284
 IR Inten    --     15.0156                41.8253                36.0476

                     34                     35                     36
                      A                      A                      A
 Frequencies --    770.6075               826.5688               853.8708
 Red. masses --      3.4027                 1.6015                 5.4780
 Frc consts  --      1.1905                 0.6447                 2.3532
 IR Inten    --     20.6538                12.0520                17.2508

                     37                     38                     39
                      A                      A                      A
 Frequencies --    869.3452               881.2649               914.4845
 Red. masses --      1.4016                 9.0190                 3.7218
 Frc consts  --      0.6241                 4.1269                 1.8338
 IR Inten    --      0.2132                13.4737                17.7339

                     40                     41                     42
                      A                      A                      A
 Frequencies --    933.3257               936.6854               957.1879
 Red. masses --      1.9417                 1.3558                 1.3851
 Frc consts  --      0.9965                 0.7009                 0.7477
 IR Inten    --      6.0696                 0.4339                 2.9688

                     43                     44                     45
                      A                      A                      A
 Frequencies --    976.3912               992.7166               997.1466
 Red. masses --      1.2399                 1.1810                 1.3005
 Frc consts  --      0.6965                 0.6857                 0.7618
 IR Inten    --      0.0171                 6.3686                 0.7989

                     46                     47                     48
                      A                      A                      A
 Frequencies --   1011.3554              1023.2806              1028.2015
 Red. masses --      1.3058                 6.0504                 4.3110
 Frc consts  --      0.7869                 3.7327                 2.6853
 IR Inten    --     17.7337                 0.3597                22.5624

                     49                     50                     51
                      A                      A                      A
 Frequencies --   1045.4305              1120.1147              1128.0077
 Red. masses --      2.0639                 1.5392                 2.7607
 Frc consts  --      1.3290                 1.1378                 2.0697
 IR Inten    --      8.2157                15.0178                34.3892

                     52                     53                     54
                      A                      A                      A
 Frequencies --   1129.9799              1161.8289              1186.1081
 Red. masses --      2.2115                 2.2735                 1.2318
 Frc consts  --      1.6637                 1.8082                 1.0210
 IR Inten    --     57.0465                41.6541                 1.9538

                     55                     56                     57
                      A                      A                      A
 Frequencies --   1204.0257              1223.9249              1270.9740
 Red. masses --      1.1690                 3.2649                 4.2933
 Frc consts  --      0.9985                 2.8816                 4.0862
 IR Inten    --      2.6236                 0.9467                26.9797

                     58                     59                     60
                      A                      A                      A
 Frequencies --   1313.5687              1323.4481              1358.1573
 Red. masses --      1.6120                 1.5519                 3.6026
 Frc consts  --      1.6387                 1.6015                 3.9153
 IR Inten    --     11.0685                10.9481                27.3305

                     61                     62                     63
                      A                      A                      A
 Frequencies --   1380.7846              1388.0005              1399.2406
 Red. masses --      1.7548                 2.2157                 5.5263
 Frc consts  --      1.9712                 2.5150                 6.3748
 IR Inten    --     14.9511                 0.5956                20.3464

                     64                     65                     66
                      A                      A                      A
 Frequencies --   1401.2445              1480.9234              1491.1316
 Red. masses --     12.4677                 3.0661                 1.9227
 Frc consts  --     14.4233                 3.9618                 2.5188
 IR Inten    --    304.9708                 4.3536                50.5539

                     67                     68                     69
                      A                      A                      A
 Frequencies --   1496.0893              1513.0651              1521.3075
 Red. masses --      1.2182                 1.0574                 2.5423
 Frc consts  --      1.6065                 1.4263                 3.4667
 IR Inten    --     15.7712                13.8684                 0.4072

                     70                     71                     72
                      A                      A                      A
 Frequencies --   1530.8798              1598.5406              1626.1097
 Red. masses --      2.8941                 8.6888                 6.8670
 Frc consts  --      3.9962                13.0814                10.6983
 IR Inten    --      5.6752                16.4584               122.3784

                     73                     74                     75
                      A                      A                      A
 Frequencies --   1637.8310              1644.0450              1672.8278
 Red. masses --      7.6093                 6.7749                 7.2212
 Frc consts  --     12.0263                10.7889                11.9059
 IR Inten    --     96.2929                32.9647                 0.4499

                     76                     77                     78
                      A                      A                      A
 Frequencies --   1682.5368              3081.0742              3170.8340
 Red. masses --      7.8031                 1.0291                 1.1067
 Frc consts  --     13.0151                 5.7560                 6.5560
 IR Inten    --     11.0123                21.7011                 4.9215

                     79                     80                     81
                      A                      A                      A
 Frequencies --   3184.4956              3193.7294              3204.3104
 Red. masses --      1.1074                 1.0861                 1.0882
 Frc consts  --      6.6165                 6.5269                 6.5831
 IR Inten    --      2.9430                 2.5888                14.4472

                     82                     83                     84
                      A                      A                      A
 Frequencies --   3207.4163              3216.5761              3222.4325
 Red. masses --      1.0898                 1.0947                 1.0936
 Frc consts  --      6.6054                 6.6731                 6.6911
 IR Inten    --     11.5947                 9.8498                13.0765

                     85                     86                     87
                      A                      A                      A
 Frequencies --   3227.8604              3257.7950              3261.2517
 Red. masses --      1.0953                 1.0927                 1.0910
 Frc consts  --      6.7240                 6.8330                 6.8369
 IR Inten    --     10.2945                 2.2155                 3.5580

 - Thermochemistry -
 -------------------
 Temperature   298.150 Kelvin.  Pressure   1.00000 Atm.
 Atom     1 has atomic number  6 and mass  12.00000

 Molecular mass:   285.04597 amu.
 Principal axes and moments of inertia in atomic units:
                           1         2         3
     Eigenvalues --  3589.181738939.89064**********
           X            0.99999   0.00224  -0.00414
           Y           -0.00220   0.99996   0.00874
           Z            0.00416  -0.00873   0.99995
 This molecule is an asymmetric top.
 Rotational symmetry number  1.
 Warning -- assumption of classical behavior for rotation
           may cause significant error
 Rotational temperatures (Kelvin)      0.02413     0.00969     0.00748
 Rotational constants (GHZ):           0.50283     0.20188     0.15577
 Zero-point vibrational energy     605051.0 (Joules/Mol)
                                  144.61065 (Kcal/Mol)
 Warning -- explicit consideration of  24 degrees of freedom as
           vibrations may cause significant error
 Vibrational temperatures:     40.33    52.80    69.46    91.67   121.08
          (Kelvin)            124.46   205.63   226.42   240.47   255.17
                              321.28   330.36   423.71   450.13   483.22
                              566.61   583.75   608.97   634.55   643.92
                              744.57   786.59   831.81   846.26   906.85
                              922.53   964.29   984.63  1003.40  1015.61
                             1077.24  1087.17  1097.01  1108.73  1189.25
                             1228.53  1250.79  1267.94  1315.74  1342.85
                             1347.68  1377.18  1404.81  1428.30  1434.67
                             1455.11  1472.27  1479.35  1504.14  1611.60
                             1622.95  1625.79  1671.61  1706.54  1732.32
                             1760.95  1828.65  1889.93  1904.15  1954.09
                             1986.64  1997.02  2013.20  2016.08  2130.72
                             2145.41  2152.54  2176.96  2188.82  2202.59
                             2299.94  2339.61  2356.47  2365.41  2406.83
                             2420.80  4432.98  4562.12  4581.78  4595.06
                             4610.29  4614.76  4627.94  4636.36  4644.17
                             4687.24  4692.21

 Zero-point correction=                           0.230452 (Hartree/Particle)
 Thermal correction to Energy=                    0.247194
 Thermal correction to Enthalpy=                  0.248139
 Thermal correction to Gibbs Free Energy=         0.183868
 Sum of electronic and zero-point Energies=          -1256.577187
 Sum of electronic and thermal Energies=             -1256.560444
 Sum of electronic and thermal Enthalpies=           -1256.559500
 Sum of electronic and thermal Free Energies=        -1256.623771

                     E (Thermal)             CV                S
                      KCal/Mol        Cal/Mol-Kelvin    Cal/Mol-Kelvin
 Total                  155.117             63.634            135.270
 Electronic               0.000              0.000              0.000
 Translational            0.889              2.981             42.840
 Rotational               0.889              2.981             34.274
 Vibrational            153.339             57.673             58.155
 Vibration     1          0.593              1.984              5.964
 Vibration     2          0.594              1.982              5.430
 Vibration     3          0.595              1.978              4.887
 Vibration     4          0.597              1.972              4.339
 Vibration     5          0.601              1.960              3.792
 Vibration     6          0.601              1.959              3.738
 Vibration     7          0.616              1.910              2.764
 Vibration     8          0.621              1.894              2.581
 Vibration     9          0.624              1.883              2.467
 Vibration    10          0.628              1.870              2.356
 Vibration    11          0.649              1.806              1.932
 Vibration    12          0.652              1.796              1.882
 Vibration    13          0.689              1.684              1.448
 Vibration    14          0.701              1.649              1.347
 Vibration    15          0.717              1.604              1.232
 Vibration    16          0.761              1.483              0.986
 Vibration    17          0.771              1.458              0.942
 Vibration    18          0.785              1.420              0.881
 Vibration    19          0.801              1.381              0.823
 Vibration    20          0.807              1.366              0.803
 Vibration    21          0.873              1.211              0.616
 Vibration    22          0.902              1.147              0.551
 Vibration    23          0.935              1.079              0.489
 Vibration    24          0.945              1.057              0.470

 Optimization completed.
    -- Stationary point found.
 Normal termination of Gaussian 16 at Mon Dec 14 17:37:27 2020.

 ----------------------------------------------------------------------
 # B3LYP/6-311++G(d,p) empiricaldispersion=gd3bj scf=xqc pop=npa geom=c
 heck
 ----------------------------------------------------------------------

 ---------------------------------------
 CID_46915006_JID_10007_Energie_neutraal
 ---------------------------------------
 Structure from the checkpoint file:  "JID_10007.chk"
 Charge =  0 Multiplicity = 1

 SCF Done:  E(RB3LYP) =  -1257.05995426     A.U. after   17 cycles
 Normal termination of Gaussian 16 at Mon Dec 14 17:43:18 2020.

 ----------------------------------------------------------------------
 # B3LYP/6-311++G(d,p) empiricaldispersion=gd3bj scf=xqc pop=npa geom=c
 heck
 ----------------------------------------------------------------------

 -------------------------------------
 CID_46915006_JID_10007_Energie_kation
 -------------------------------------
 Structure from the checkpoint file:  "JID_10007.chk"
 Charge =  1 Multiplicity = 2

 SCF Done:  E(UB3LYP) =  -1256.77784917     A.U. after   29 cycles
 Normal termination of Gaussian 16 at Mon Dec 14 17:56:43 2020.
 Gaussian 16:  ES64L-G16RevA.03 25-Dec-2016

 ----------------------------------------------------------------------
 # B3LYP/6-311++G(d,p) empiricaldispersion=gd3bj scf=xqc pop=npa geom=c
 heck
 ----------------------------------------------------------------------

 ------------------------------------
 CID_46915006_JID_10007_Energie_anion
 ------------------------------------
 Structure from the checkpoint file:  "JID_10007.chk"
 Charge = -1 Multiplicity = 2

                         Standard orientation:
 ---------------------------------------------------------------------
 Center     Atomic      Atomic             Coordinates (Angstroms)
 Number     Number       Type             X           Y           Z
 ---------------------------------------------------------------------
      1          6           0        1.183385    3.694144    1.210833
      2         16           0        0.143185    2.705809    0.066481
      3          6           0        1.094622    1.242665   -0.025529
      4          6           0        0.731685   -0.080971    0.031451
      5          6           0        1.962600   -0.832179   -0.144217
      6          6           0        2.300407   -2.190944   -0.218041
      7          6           0        3.638467   -2.531746   -0.398310
      8          6           0        4.636254   -1.547497   -0.511304
      9          6           0        4.321680   -0.189568   -0.453943
     10          6           0        2.982548    0.125641   -0.276723
     11          8           0        2.454032    1.390769   -0.216488
     12          6           0       -0.607045   -0.629009    0.266246
     13          6           0       -1.742563   -0.058721   -0.324250
     14          6           0       -2.995071   -0.596930   -0.050045
     15          6           0       -3.173282   -1.699415    0.780707
     16          6           0       -2.042172   -2.273291    1.356858
     17          6           0       -0.777197   -1.745652    1.105485
     18          7           0       -4.177187    0.016250   -0.676951
     19          8           0       -3.996049    0.977996   -1.422292
     20          8           0       -5.277554   -0.470243   -0.417150
     21          1           0        0.694045    4.666836    1.298973
     22          1           0        2.184799    3.823417    0.799011
     23          1           0        1.233265    3.218096    2.192344
     24          1           0        1.537346   -2.959242   -0.147827
     25          1           0        3.918190   -3.579283   -0.457955
     26          1           0        5.669725   -1.848037   -0.653753
     27          1           0        5.075093    0.584378   -0.551140
     28          1           0       -1.666959    0.778126   -1.005148
     29          1           0       -4.169714   -2.082852    0.957565
     30          1           0       -2.149150   -3.131357    2.013037
     31          1           0        0.093376   -2.184116    1.581975
 ---------------------------------------------------------------------

 SCF Done:  E(UB3LYP) =  -1257.10036192     A.U. after   24 cycles

 The electronic state is 2-A.
 Alpha  occ. eigenvalues --  -88.76529 -19.09567 -18.95657 -18.95584 -14.33546
 Alpha  occ. eigenvalues --  -10.15358 -10.14553 -10.11294 -10.09967 -10.09718
 Alpha  occ. eigenvalues --  -10.09494 -10.09303 -10.09231 -10.08755 -10.06905
 Alpha  occ. eigenvalues --  -10.06735 -10.05320 -10.04927 -10.04381 -10.04055
 Alpha  occ. eigenvalues --   -7.85085  -5.81505  -5.81101  -5.80439  -1.03629
 Alpha  occ. eigenvalues --   -1.02163  -0.86494  -0.77734  -0.74994  -0.72468
 Alpha  occ. eigenvalues --   -0.70432  -0.66646  -0.65220  -0.64364  -0.62234
 Alpha  occ. eigenvalues --   -0.57815  -0.54351  -0.53101  -0.52189  -0.49644
 Alpha  occ. eigenvalues --   -0.47204  -0.45167  -0.41236  -0.40935  -0.39050
 Alpha  occ. eigenvalues --   -0.38341  -0.37694  -0.36268  -0.35753  -0.35273
 Alpha  occ. eigenvalues --   -0.35101  -0.34752  -0.34195  -0.32820  -0.31845
 Alpha  occ. eigenvalues --   -0.31459  -0.30506  -0.29859  -0.28711  -0.27430
 Alpha  occ. eigenvalues --   -0.26531  -0.25161  -0.24778  -0.23971  -0.22933
 Alpha  occ. eigenvalues --   -0.20930  -0.17403  -0.16252  -0.14668  -0.14132
 Alpha  occ. eigenvalues --   -0.13502  -0.13238  -0.11240  -0.10955   0.01943
 Alpha virt. eigenvalues --    0.04744   0.05965   0.06598   0.07802   0.08056
 Alpha virt. eigenvalues --    0.08798   0.09222   0.09679   0.10127   0.10669
 Alpha virt. eigenvalues --    0.11508   0.11617   0.12104   0.12495   0.13342

  Beta  occ. eigenvalues --  -88.76529 -19.09544 -18.95262 -18.95133 -14.33010
  Beta  occ. eigenvalues --  -10.15286 -10.14560 -10.11259 -10.09953 -10.09706
  Beta  occ. eigenvalues --  -10.09496 -10.09303 -10.09211 -10.08744 -10.06815
  Beta  occ. eigenvalues --  -10.06774 -10.05400 -10.04864 -10.04084 -10.03852
  Beta  occ. eigenvalues --   -7.85084  -5.81501  -5.81104  -5.80439  -1.02717
  Beta  occ. eigenvalues --   -1.02116  -0.85697  -0.77711  -0.74817  -0.72304
  Beta  occ. eigenvalues --   -0.70360  -0.66607  -0.65023  -0.63951  -0.62063
  Beta  occ. eigenvalues --   -0.57755  -0.53679  -0.52865  -0.52066  -0.49558
  Beta  occ. eigenvalues --   -0.47156  -0.44929  -0.41194  -0.40577  -0.38849
  Beta  occ. eigenvalues --   -0.38254  -0.37575  -0.36197  -0.35149  -0.34795
  Beta  occ. eigenvalues --   -0.34697  -0.33886  -0.33113  -0.32738  -0.31780
  Beta  occ. eigenvalues --   -0.31052  -0.30452  -0.29782  -0.28668  -0.27337
  Beta  occ. eigenvalues --   -0.26458  -0.24908  -0.24433  -0.23722  -0.22806
  Beta  occ. eigenvalues --   -0.20664  -0.17324  -0.16054  -0.13720  -0.12875
  Beta  occ. eigenvalues --   -0.12747  -0.11487  -0.10815  -0.10255
  Beta virt. eigenvalues --    0.04956   0.05953   0.06604   0.07773   0.08090
  Beta virt. eigenvalues --    0.08440   0.08781   0.09577   0.09739   0.10114
  Beta virt. eigenvalues --    0.10651   0.11491   0.11614   0.12312   0.12856

 Mulliken charges and spin densities:
               1          2
     1  C   -0.498094  -0.055861
     2  S   -0.670472   0.027713
     3  C    0.065175   0.037303
     4  C    0.825993  -0.007648
     5  C    0.825025  -0.012030
     6  C   -0.343948   0.015052
     7  C   -0.361681  -0.010821
     8  C   -0.217360   0.004675
     9  C   -0.530132   0.025874
    10  C   -0.379046   0.004217
    11  O    0.032724   0.002457
    12  C    1.441177  -0.002116
    13  C   -0.416449   0.098487
    14  C   -0.622760  -0.036983
    15  C    0.108655   0.200243
    16  C   -0.527670  -0.045327
    17  C   -0.864184   0.223323
    18  N   -0.263910   0.180607
    19  O   -0.152617   0.170503
    20  O   -0.167137   0.151129
    21  H    0.122911   0.018747
    22  H    0.158388   0.016597
    23  H    0.163669   0.013513
    24  H    0.160571  -0.000761
    25  H    0.142833   0.000216
    26  H    0.137977  -0.000594
    27  H    0.153022   0.002009
    28  H    0.219981   0.002389
    29  H    0.209340  -0.012046
    30  H    0.134280   0.004833
    31  H    0.113741  -0.015700
 Sum of Mulliken charges =  -1.00000   1.00000

 Dipole moment (field-independent basis, Debye):
    X=             13.6179    Y=             -0.0410    Z=              3.0980  Tot=             13.9660
 Quadrupole moment (field-independent basis, Debye-Ang):
   XX=           -208.3712   YY=           -130.4067   ZZ=           -135.8734
   XY=              3.3177   XZ=            -12.1084   YZ=              5.2841

 Summary of Natural Population Analysis:

                                       Natural Population
                Natural  -----------------------------------------------
    Atom  No    Charge         Core      Valence    Rydberg      Total
 -----------------------------------------------------------------------
      C    1   -0.34581      0.99962     2.33996    0.00623     3.34581
      S    2    0.14028      4.99953     2.83886    0.02133     7.85972
      C    3    0.08295      0.99935     1.90038    0.01732     2.91705
      C    4   -0.06628      0.99943     2.05133    0.01552     3.06628
      C    5   -0.04574      0.99946     2.03757    0.00872     3.04574
      C    6   -0.08457      0.99945     2.07605    0.00907     3.08457
      C    7   -0.13341      0.99963     2.11750    0.01628     3.13341
      C    8   -0.07096      0.99960     2.06467    0.00670     3.07096
      C    9   -0.13813      0.99955     2.12313    0.01545     3.13813
      C   10    0.15409      0.99935     1.83299    0.01357     2.84591
      O   11   -0.24987      0.99985     3.24102    0.00900     4.24987
      C   12   -0.00437      0.99950     1.99709    0.00777     3.00437
      C   13   -0.08694      0.99950     2.07368    0.01377     3.08694
      C   14    0.03839      0.99935     1.94377    0.01849     2.96161
      C   15   -0.01377      0.99944     2.00545    0.00888     3.01377
      C   16   -0.13708      0.99949     2.12067    0.01691     3.13708
      C   17   -0.05871      0.99962     2.04559    0.01350     3.05871
      N   18    0.29618      0.99972     2.17641    0.02769     3.20382
      O   19   -0.19005      0.99990     3.18203    0.00812     4.19005
      O   20   -0.20035      0.99990     3.19191    0.00855     4.20035
      H   21    0.10298      0.00000     0.39542    0.00161     0.39702
      H   22    0.10395      0.00000     0.39375    0.00230     0.39605
      H   23    0.10181      0.00000     0.39633    0.00185     0.39819
      H   24    0.10903      0.00000     0.39010    0.00087     0.39097
      H   25    0.09728      0.00000     0.40160    0.00113     0.40272
      H   26    0.09240      0.00000     0.40645    0.00114     0.40760
      H   27    0.10415      0.00000     0.39486    0.00099     0.39585
      H   28    0.11511      0.00000     0.38244    0.00246     0.38489
      H   29    0.10601      0.00000     0.39178    0.00221     0.39399
      H   30    0.09252      0.00000     0.40617    0.00132     0.40748
      H   31    0.08996      0.00000     0.40790    0.00214     0.41004
 =======================================================================
   * Total *    0.00105     23.99121    49.72685    0.28089    73.99895

 Normal termination of Gaussian 16 at Mon Dec 14 18:08:18 2020.
