 Gaussian 16, Revision A.03,

 -----------------------------------------------------------
 # opt freq B3LYP/6-31G(d) empiricaldispersion=gd3bj scf=xqc
 -----------------------------------------------------------

 -------------------------------
 CID_150691206_JID_4581_neutraal
 -------------------------------
 Symbolic Z-matrix:
 Charge =  0 Multiplicity = 1

 SCF Done:  E(RB3LYP) =  -657.926179615     A.U. after   16 cycles
 SCF Done:  E(RB3LYP) =  -657.931922546     A.U. after   15 cycles
 SCF Done:  E(RB3LYP) =  -657.933925537     A.U. after   15 cycles
 SCF Done:  E(RB3LYP) =  -657.934330040     A.U. after   15 cycles
 SCF Done:  E(RB3LYP) =  -657.934770484     A.U. after   16 cycles
 SCF Done:  E(RB3LYP) =  -657.935379921     A.U. after   16 cycles
 SCF Done:  E(RB3LYP) =  -657.903784767     A.U. after   17 cycles
 SCF Done:  E(RB3LYP) =  -657.934601587     A.U. after   16 cycles
 SCF Done:  E(RB3LYP) =  -657.935752710     A.U. after   13 cycles
 SCF Done:  E(RB3LYP) =  -657.935658493     A.U. after   14 cycles
 SCF Done:  E(RB3LYP) =  -657.936048842     A.U. after   11 cycles
 SCF Done:  E(RB3LYP) =  -657.936050272     A.U. after   10 cycles
 SCF Done:  E(RB3LYP) =  -657.936051632     A.U. after   10 cycles
 SCF Done:  E(RB3LYP) =  -657.936052221     A.U. after   10 cycles
 SCF Done:  E(RB3LYP) =  -657.936052319     A.U. after    8 cycles
 SCF Done:  E(RB3LYP) =  -657.936052325     A.U. after    7 cycles
 Optimization completed.
    -- Stationary point found.
 Normal termination of Gaussian 16 at Thu Dec 10 10:12:07 2020.

 --------------------------------------------------------------------
 #N Geom=AllCheck Guess=TCheck SCRF=Check GenChk RB3LYP/6-31G(d) Freq
 --------------------------------------------------------------------

 Structure from the checkpoint file:  "JID_4581.chk"
 -------------------------------
 CID_150691206_JID_4581_neutraal
 -------------------------------
 Charge =  0 Multiplicity = 1

 SCF Done:  E(RB3LYP) =  -657.936052325     A.U. after    1 cycles

  Exact polarizability: 137.098 -22.397 119.009 -14.714 -12.251  81.574
 Approx polarizability: 223.206 -65.681 234.982 -33.310 -27.786 143.706

                      1                      2                      3
                      A                      A                      A
 Frequencies --     14.5738                38.9184                67.2385
 Red. masses --      5.6358                10.3756                 8.1348
 Frc consts  --      0.0007                 0.0093                 0.0217
 IR Inten    --      0.5696                 0.0756                 1.1615

                      4                      5                      6
                      A                      A                      A
 Frequencies --    119.2401               174.7023               244.1656
 Red. masses --      7.5666                 7.6967                 4.6579
 Frc consts  --      0.0634                 0.1384                 0.1636
 IR Inten    --      1.7641                 1.5804                 0.1421

                      7                      8                      9
                      A                      A                      A
 Frequencies --    262.9455               311.2619               336.5154
 Red. masses --      7.3068                 4.7226                 3.9629
 Frc consts  --      0.2977                 0.2696                 0.2644
 IR Inten    --      3.0220                 3.9974                12.1106

                     10                     11                     12
                      A                      A                      A
 Frequencies --    403.4962               417.7032               436.2732
 Red. masses --      1.5612                 2.6843                 3.0665
 Frc consts  --      0.1498                 0.2759                 0.3439
 IR Inten    --     47.8562                23.9199                 1.5835

                     13                     14                     15
                      A                      A                      A
 Frequencies --    465.2857               530.6894               556.9690
 Red. masses --      5.0355                13.2616                 5.4449
 Frc consts  --      0.6423                 2.2005                 0.9952
 IR Inten    --      2.0119                13.7563                 4.3227

                     16                     17                     18
                      A                      A                      A
 Frequencies --    607.3877               653.2407               665.0851
 Red. masses --      5.8478                 4.4303                 8.3067
 Frc consts  --      1.2711                 1.1139                 2.1649
 IR Inten    --      0.2057                 5.2329                 3.5394

                     19                     20                     21
                      A                      A                      A
 Frequencies --    670.1829               765.8072               783.4726
 Red. masses --      3.4758                 3.6493                 4.6129
 Frc consts  --      0.9198                 1.2609                 1.6683
 IR Inten    --     28.2875                 5.2228                12.0207

                     22                     23                     24
                      A                      A                      A
 Frequencies --    812.6419               838.7470               863.3163
 Red. masses --      1.6031                 2.9138                 3.2671
 Frc consts  --      0.6238                 1.2077                 1.4347
 IR Inten    --     10.3726                 5.3361                 1.8347

                     25                     26                     27
                      A                      A                      A
 Frequencies --    866.3685               876.5363               954.8211
 Red. masses --      1.8563                 1.5780                 1.3219
 Frc consts  --      0.8209                 0.7143                 0.7100
 IR Inten    --     37.0446                17.8744                 0.7941

                     28                     29                     30
                      A                      A                      A
 Frequencies --    957.5497               976.8260              1006.7975
 Red. masses --      3.7933                 3.3703                 3.8121
 Frc consts  --      2.0492                 1.8947                 2.2767
 IR Inten    --     45.0214                 5.7838                37.6596

                     31                     32                     33
                      A                      A                      A
 Frequencies --   1043.0351              1114.1492              1168.4925
 Red. masses --      2.5202                 3.9225                 1.4435
 Frc consts  --      1.6154                 2.8688                 1.1612
 IR Inten    --     29.3433                18.0550                 4.3322

                     34                     35                     36
                      A                      A                      A
 Frequencies --   1177.5130              1180.6988              1238.4473
 Red. masses --      2.1482                 8.3000                 1.6129
 Frc consts  --      1.7550                 6.8172                 1.4575
 IR Inten    --     12.6829                30.1739                 6.3836

                     37                     38                     39
                      A                      A                      A
 Frequencies --   1276.3180              1287.2868              1313.4376
 Red. masses --      1.4382                 1.5850                 2.0664
 Frc consts  --      1.3803                 1.5475                 2.1003
 IR Inten    --      2.8439                11.1380                 4.0193

                     40                     41                     42
                      A                      A                      A
 Frequencies --   1354.4955              1382.4939              1395.8313
 Red. masses --      3.1444                 1.7049                 2.3602
 Frc consts  --      3.3989                 1.9198                 2.7093
 IR Inten    --      6.6945                 6.7057                50.3747

                     43                     44                     45
                      A                      A                      A
 Frequencies --   1430.7690              1471.3070              1502.2843
 Red. masses --      2.2853                 3.0067                 1.1093
 Frc consts  --      2.7563                 3.8348                 1.4750
 IR Inten    --     12.7667                 6.4618                 1.2410

                     46                     47                     48
                      A                      A                      A
 Frequencies --   1535.7931              1557.9002              1633.8155
 Red. masses --      4.3813                 2.8601                 5.9645
 Frc consts  --      6.0886                 4.0898                 9.3805
 IR Inten    --     14.5154                 4.7544                 1.1891

                     49                     50                     51
                      A                      A                      A
 Frequencies --   1685.1952              2195.2230              3059.0057
 Red. masses --      6.6100                13.9760                 1.0570
 Frc consts  --     11.0600                39.6817                 5.8278
 IR Inten    --     12.6944               247.3837                38.3468

                     52                     53                     54
                      A                      A                      A
 Frequencies --   3106.9684              3189.4111              3203.1593
 Red. masses --      1.1084                 1.0873                 1.0909
 Frc consts  --      6.3041                 6.5166                 6.5946
 IR Inten    --     13.2286                 5.9810                 6.0268

                     55                     56                     57
                      A                      A                      A
 Frequencies --   3208.5799              3262.7427              3676.7113
 Red. masses --      1.0947                 1.0960                 1.0810
 Frc consts  --      6.6399                 6.8744                 8.6100
 IR Inten    --     15.3393                 6.9751                76.3282

 - Thermochemistry -
 -------------------
 Temperature   298.150 Kelvin.  Pressure   1.00000 Atm.
 Atom     1 has atomic number  6 and mass  12.00000

 Molecular mass:   189.06506 amu.
 Principal axes and moments of inertia in atomic units:
                           1         2         3
     Eigenvalues --  1379.514013826.430954452.75387
           X            0.99986  -0.01313  -0.01026
           Y            0.01268   0.99903  -0.04221
           Z            0.01080   0.04207   0.99906
 This molecule is an asymmetric top.
 Rotational symmetry number  1.
 Warning -- assumption of classical behavior for rotation
           may cause significant error
 Rotational temperatures (Kelvin)      0.06279     0.02264     0.01945
 Rotational constants (GHZ):           1.30824     0.47165     0.40531
 Zero-point vibrational energy     402721.8 (Joules/Mol)
                                   96.25281 (Kcal/Mol)
 Warning -- explicit consideration of  16 degrees of freedom as
           vibrations may cause significant error
 Vibrational temperatures:     20.97    55.99    96.74   171.56   251.36
          (Kelvin)            351.30   378.32   447.84   484.17   580.54
                              600.98   627.70   669.44   763.54   801.35
                              873.90   939.87   956.91   964.24  1101.83
                             1127.24  1169.21  1206.77  1242.12  1246.51
                             1261.14  1373.77  1377.70  1405.43  1448.56
                             1500.69  1603.01  1681.20  1694.18  1698.76
                             1781.85  1836.34  1852.12  1889.74  1948.82
                             1989.10  2008.29  2058.56  2116.88  2161.45
                             2209.66  2241.47  2350.70  2424.62  3158.44
                             4401.23  4470.23  4588.85  4608.63  4616.43
                             4694.36  5289.97

 Zero-point correction=                           0.153389 (Hartree/Particle)
 Thermal correction to Energy=                    0.164765
 Thermal correction to Enthalpy=                  0.165709
 Thermal correction to Gibbs Free Energy=         0.113561
 Sum of electronic and zero-point Energies=           -657.782664
 Sum of electronic and thermal Energies=              -657.771287
 Sum of electronic and thermal Enthalpies=            -657.770343
 Sum of electronic and thermal Free Energies=         -657.822491

                     E (Thermal)             CV                S
                      KCal/Mol        Cal/Mol-Kelvin    Cal/Mol-Kelvin
 Total                  103.392             42.699            109.755
 Electronic               0.000              0.000              0.000
 Translational            0.889              2.981             41.617
 Rotational               0.889              2.981             31.531
 Vibrational            101.614             36.737             36.608
 Vibration     1          0.593              1.986              7.263
 Vibration     2          0.594              1.981              5.313
 Vibration     3          0.598              1.970              4.233
 Vibration     4          0.609              1.933              3.113
 Vibration     5          0.627              1.874              2.384
 Vibration     6          0.659              1.772              1.772
 Vibration     7          0.670              1.741              1.642
 Vibration     8          0.700              1.652              1.356
 Vibration     9          0.717              1.603              1.229
 Vibration    10          0.769              1.463              0.950
 Vibration    11          0.781              1.432              0.900
 Vibration    12          0.797              1.391              0.838
 Vibration    13          0.823              1.327              0.751
 Vibration    14          0.886              1.182              0.586
 Vibration    15          0.912              1.124              0.530
 Vibration    16          0.966              1.016              0.437

 Optimization completed.
    -- Stationary point found.
 Normal termination of Gaussian 16 at Thu Dec 10 10:17:39 2020.

 ----------------------------------------------------------------------
 # B3LYP/6-311++G(d,p) empiricaldispersion=gd3bj scf=xqc pop=npa geom=c
 heck
 ----------------------------------------------------------------------

 ---------------------------------------
 CID_150691206_JID_4581_Energie_neutraal
 ---------------------------------------
 Structure from the checkpoint file:  "JID_4581.chk"
 Charge =  0 Multiplicity = 1

 SCF Done:  E(RB3LYP) =  -658.112904308     A.U. after   16 cycles
 Normal termination of Gaussian 16 at Thu Dec 10 10:19:31 2020.

 ----------------------------------------------------------------------
 # B3LYP/6-311++G(d,p) empiricaldispersion=gd3bj scf=xqc pop=npa geom=c
 heck
 ----------------------------------------------------------------------

 -------------------------------------
 CID_150691206_JID_4581_Energie_kation
 -------------------------------------
 Structure from the checkpoint file:  "JID_4581.chk"
 Charge =  1 Multiplicity = 2

 SCF Done:  E(UB3LYP) =  -657.805700705     A.U. after   29 cycles
 Normal termination of Gaussian 16 at Thu Dec 10 10:24:05 2020.
 Gaussian 16:  ES64L-G16RevA.03 25-Dec-2016

 ----------------------------------------------------------------------
 # B3LYP/6-311++G(d,p) empiricaldispersion=gd3bj scf=xqc pop=npa geom=c
 heck
 ----------------------------------------------------------------------

 ------------------------------------
 CID_150691206_JID_4581_Energie_anion
 ------------------------------------
 Structure from the checkpoint file:  "JID_4581.chk"
 Charge = -1 Multiplicity = 2

                         Standard orientation:
 ---------------------------------------------------------------------
 Center     Atomic      Atomic             Coordinates (Angstroms)
 Number     Number       Type             X           Y           Z
 ---------------------------------------------------------------------
      1          6           0        0.037615    1.875582   -0.550459
      2          6           0        1.343317    1.648912   -0.953410
      3          6           0        2.030503    0.549322   -0.413437
      4          6           0        1.371233   -0.288445    0.525713
      5          6           0        0.056412   -0.053602    0.943684
      6          6           0       -0.604902    1.038987    0.393831
      7          6           0       -2.028092    1.329177    0.807867
      8          8           0       -2.864015    0.160237    0.805524
      9          7           0       -3.075370   -0.244264   -0.567187
     10          7           0       -2.481866   -1.337613   -0.738197
     11          7           0       -2.034625   -2.344906   -1.031827
     12          7           0        2.280981   -1.254740    0.854265
     13          7           0        3.466348   -1.106255    0.202130
     14          6           0        3.328397   -0.032859   -0.556072
     15          1           0       -0.517577    2.710569   -0.968660
     16          1           0        1.820266    2.299736   -1.680228
     17          1           0       -0.444317   -0.701973    1.656416
     18          1           0       -2.088362    1.659248    1.851354
     19          1           0       -2.472976    2.101716    0.170613
     20          1           0        2.169668   -2.033121    1.484687
     21          1           0        4.150237    0.293929   -1.178974
 ---------------------------------------------------------------------

 SCF Done:  E(UB3LYP) =  -658.130529305     A.U. after   27 cycles

 The electronic state is 2-A.
 Alpha  occ. eigenvalues --  -19.00260 -14.27618 -14.25620 -14.22052 -14.21141
 Alpha  occ. eigenvalues --  -14.19524 -10.08758 -10.08674 -10.07165 -10.04916
 Alpha  occ. eigenvalues --  -10.04867 -10.04717 -10.04669 -10.03949  -0.97348
 Alpha  occ. eigenvalues --   -0.92125  -0.90172  -0.75807  -0.72947  -0.70460
 Alpha  occ. eigenvalues --   -0.64516  -0.61959  -0.55627  -0.50789  -0.48800
 Alpha  occ. eigenvalues --   -0.46902  -0.41747  -0.40837  -0.37618  -0.34961
 Alpha  occ. eigenvalues --   -0.34530  -0.33261  -0.32429  -0.32383  -0.31281
 Alpha  occ. eigenvalues --   -0.30002  -0.29570  -0.28226  -0.25190  -0.24652
 Alpha  occ. eigenvalues --   -0.22364  -0.22069  -0.18491  -0.17824  -0.17305
 Alpha  occ. eigenvalues --   -0.13316  -0.11749  -0.10243  -0.08149   0.04443
 Alpha virt. eigenvalues --    0.07977   0.08656   0.09551   0.09822   0.10971
 Alpha virt. eigenvalues --    0.11894   0.12924   0.13483   0.13999   0.14255
 Alpha virt. eigenvalues --    0.15889   0.15929   0.16846   0.17637   0.18189

  Beta  occ. eigenvalues --  -18.99920 -14.27226 -14.25570 -14.22067 -14.20905
  Beta  occ. eigenvalues --  -14.18868 -10.08799 -10.08657 -10.07167 -10.04851
  Beta  occ. eigenvalues --  -10.04775 -10.04719 -10.04596 -10.03778  -0.96526
  Beta  occ. eigenvalues --   -0.91913  -0.89380  -0.75229  -0.72711  -0.70286
  Beta  occ. eigenvalues --   -0.64271  -0.61716  -0.55266  -0.50663  -0.48711
  Beta  occ. eigenvalues --   -0.46630  -0.41602  -0.40374  -0.37471  -0.34444
  Beta  occ. eigenvalues --   -0.33616  -0.33018  -0.31956  -0.31879  -0.31169
  Beta  occ. eigenvalues --   -0.29657  -0.29067  -0.26979  -0.24955  -0.24234
  Beta  occ. eigenvalues --   -0.22029  -0.21567  -0.17610  -0.17329  -0.16737
  Beta  occ. eigenvalues --   -0.12886  -0.11251  -0.09439  -0.07822
  Beta virt. eigenvalues --    0.08580   0.08986   0.09471   0.09807   0.10932
  Beta virt. eigenvalues --    0.11808   0.12286   0.13143   0.13588   0.13957
  Beta virt. eigenvalues --    0.14435   0.15946   0.16045   0.17175   0.17805

 Mulliken charges and spin densities:
               1          2
     1  C   -1.366151  -0.164132
     2  C   -0.756639   0.128058
     3  C    0.917663   0.000545
     4  C   -0.448704  -0.013455
     5  C   -0.486414   0.291891
     6  C    1.275710   0.098762
     7  C   -0.256220  -0.047986
     8  O   -0.024035   0.005848
     9  N   -0.731952   0.079843
    10  N    0.550504   0.056304
    11  N   -0.331037   0.380623
    12  N   -0.044995   0.010099
    13  N   -0.239439   0.108471
    14  C   -0.028355   0.001488
    15  H    0.094982  -0.000609
    16  H    0.113246  -0.006315
    17  H    0.128937  -0.010443
    18  H    0.105056   0.036675
    19  H    0.103609   0.043550
    20  H    0.286537   0.001571
    21  H    0.137697  -0.000789
 Sum of Mulliken charges =  -1.00000   1.00000

 Dipole moment (field-independent basis, Debye):
    X=              3.5654    Y=              3.2176    Z=              1.8173  Tot=              5.1350
 Quadrupole moment (field-independent basis, Debye-Ang):
   XX=           -129.6920   YY=            -95.8472   ZZ=            -87.6160
   XY=             -2.9780   XZ=             -3.5055   YZ=             -8.6540

 Summary of Natural Population Analysis:

                                       Natural Population
                Natural  -----------------------------------------------
    Atom  No    Charge         Core      Valence    Rydberg      Total
 -----------------------------------------------------------------------
      C    1   -0.11826      0.99954     2.10985    0.00887     3.11826
      C    2   -0.07001      0.99954     2.06209    0.00837     3.07001
      C    3   -0.06454      0.99950     2.05721    0.00783     3.06454
      C    4    0.07269      0.99949     1.91778    0.01004     2.92731
      C    5   -0.08125      0.99947     2.07358    0.00819     3.08125
      C    6   -0.01525      0.99952     2.00610    0.00962     3.01525
      C    7   -0.01345      0.99955     1.99981    0.01409     3.01345
      O    8   -0.20660      0.99990     3.19585    0.01084     4.20660
      N    9   -0.10121      0.99973     2.58407    0.01741     3.60121
      N   10    0.12608      0.99972     2.35783    0.01637     3.37392
      N   11    0.04131      0.99982     2.44578    0.01309     3.45869
      N   12   -0.17844      0.99965     2.66666    0.01212     3.67844
      N   13   -0.11657      0.99973     2.60223    0.01460     3.61657
      C   14   -0.01818      0.99961     2.00324    0.01532     3.01818
      H   15    0.09430      0.00000     0.40430    0.00141     0.40570
      H   16    0.09155      0.00000     0.40688    0.00158     0.40845
      H   17    0.10320      0.00000     0.39523    0.00158     0.39680
      H   18    0.08890      0.00000     0.40922    0.00187     0.41110
      H   19    0.08236      0.00000     0.41557    0.00208     0.41764
      H   20    0.19225      0.00000     0.30573    0.00202     0.30775
      H   21    0.09112      0.00000     0.40775    0.00113     0.40888
 =======================================================================
   * Total *    0.00000     13.99478    34.82679    0.17843    49.00000

 Normal termination of Gaussian 16 at Thu Dec 10 10:28:29 2020.
