 Gaussian 16, Revision A.03,

 -----------------------------------------------------------
 # opt freq B3LYP/6-31G(d) empiricaldispersion=gd3bj scf=xqc
 -----------------------------------------------------------

 -----------------------------
 CID_3665157_JID_2570_neutraal
 -----------------------------
 Symbolic Z-matrix:
 Charge =  0 Multiplicity = 1

 SCF Done:  E(RB3LYP) =  -516.297955573     A.U. after   14 cycles
 SCF Done:  E(RB3LYP) =  -516.303656535     A.U. after   12 cycles
 SCF Done:  E(RB3LYP) =  -516.304800087     A.U. after   12 cycles
 SCF Done:  E(RB3LYP) =  -516.305532816     A.U. after   12 cycles
 SCF Done:  E(RB3LYP) =  -516.305729380     A.U. after   11 cycles
 SCF Done:  E(RB3LYP) =  -516.305838143     A.U. after   11 cycles
 SCF Done:  E(RB3LYP) =  -516.305912243     A.U. after   11 cycles
 SCF Done:  E(RB3LYP) =  -516.305941201     A.U. after   11 cycles
 SCF Done:  E(RB3LYP) =  -516.306007784     A.U. after   12 cycles
 SCF Done:  E(RB3LYP) =  -516.306066184     A.U. after   12 cycles
 SCF Done:  E(RB3LYP) =  -516.307208382     A.U. after   10 cycles
 SCF Done:  E(RB3LYP) =  -516.307209090     A.U. after    8 cycles
 SCF Done:  E(RB3LYP) =  -516.307210318     A.U. after    9 cycles
 SCF Done:  E(RB3LYP) =  -516.307211660     A.U. after    9 cycles
 SCF Done:  E(RB3LYP) =  -516.307211762     A.U. after    7 cycles
 Optimization completed.
    -- Stationary point found.

 1\1\GINC-NODE315\FOpt\RB3LYP\6-31G(d)\C9H15N3\VSC10255\09-Dec-2020\0\\
 # opt freq B3LYP/6-31G(d) empiricaldispersion=gd3bj scf=xqc\\CID_36651
 57_JID_2570_neutraal\\0,1\C,0.7906417177,1.0169830786,-0.3773751884\C,
 1.0417998173,1.3113076141,-1.8588376645\C,1.638339319,0.1313918406,-2.
 6427657701\C,0.7105446998,-1.0894687037,-2.6675821503\C,1.9774295533,0
 .5324986331,-4.0921822196\N,2.9318797664,1.618618585,-4.2051997852\C,2
 .6205939199,2.9197202048,-4.4515054857\N,3.6574935662,3.7892308793,-4.
 3877149369\C,3.3635118424,5.06114707,-4.6435402038\C,2.0764339223,5.50

 Normal termination of Gaussian 16 at Wed Dec  9 18:03:12 2020.

 --------------------------------------------------------------------
 #N Geom=AllCheck Guess=TCheck SCRF=Check GenChk RB3LYP/6-31G(d) Freq
 --------------------------------------------------------------------

 Structure from the checkpoint file:  "JID_2570.chk"
 -----------------------------
 CID_3665157_JID_2570_neutraal
 -----------------------------
 Charge =  0 Multiplicity = 1

 SCF Done:  E(RB3LYP) =  -516.307211762     A.U. after    1 cycles

  Exact polarizability: 146.373 -22.071  91.164  -2.023  -9.361 100.051
 Approx polarizability: 193.741 -39.970 133.677  -4.261 -24.429 170.325

                      1                      2                      3
                      A                      A                      A
 Frequencies --     36.0934                42.5597                58.9436
 Red. masses --      4.5298                 4.0797                 2.4013
 Frc consts  --      0.0035                 0.0044                 0.0049
 IR Inten    --      1.5898                 0.2269                 0.4510

                      4                      5                      6
                      A                      A                      A
 Frequencies --     95.8883               156.9640               211.6473
 Red. masses --      2.1783                 5.2681                 2.3900
 Frc consts  --      0.0118                 0.0765                 0.0631
 IR Inten    --      0.8063                 4.2141                 0.9352

                      7                      8                      9
                      A                      A                      A
 Frequencies --    214.3386               236.4413               273.8675
 Red. masses --      1.2206                 1.5237                 2.3262
 Frc consts  --      0.0330                 0.0502                 0.1028
 IR Inten    --      0.2853                 0.4092                 1.7916

                     10                     11                     12
                      A                      A                      A
 Frequencies --    308.0354               332.6117               414.8385
 Red. masses --      1.8985                 3.8439                 3.7066
 Frc consts  --      0.1061                 0.2506                 0.3758
 IR Inten    --      0.6999                 1.4437                 2.5202

                     13                     14                     15
                      A                      A                      A
 Frequencies --    418.9527               477.5858               510.0249
 Red. masses --      1.9675                 2.8243                 1.1911
 Frc consts  --      0.2035                 0.3795                 0.1826
 IR Inten    --      0.3280                 1.9854                94.4503

                     16                     17                     18
                      A                      A                      A
 Frequencies --    529.6708               576.5513               630.4325
 Red. masses --      2.5649                 3.1454                 5.0850
 Frc consts  --      0.4240                 0.6160                 1.1907
 IR Inten    --      9.4029                13.3149                10.5705

                     19                     20                     21
                      A                      A                      A
 Frequencies --    654.9992               773.9456               794.3638
 Red. masses --      7.0947                 1.6932                 1.2107
 Frc consts  --      1.7934                 0.5975                 0.4501
 IR Inten    --      4.0941                 4.4875                24.7305

                     22                     23                     24
                      A                      A                      A
 Frequencies --    807.7352               812.7055               866.3571
 Red. masses --      1.5033                 9.7525                 3.9658
 Frc consts  --      0.5779                 3.7952                 1.7538
 IR Inten    --      0.6300                18.6633                 1.9131

                     25                     26                     27
                      A                      A                      A
 Frequencies --    927.4417               957.2977               983.5497
 Red. masses --      1.6558                 1.6757                 1.4185
 Frc consts  --      0.8391                 0.9048                 0.8085
 IR Inten    --      5.3743                 0.7616                 0.4308

                     28                     29                     30
                      A                      A                      A
 Frequencies --    993.7540              1000.1426              1002.3876
 Red. masses --      1.2926                 3.0392                 1.3722
 Frc consts  --      0.7521                 1.7911                 0.8124
 IR Inten    --      5.6324                 7.1274                 0.0496

                     31                     32                     33
                      A                      A                      A
 Frequencies --   1007.2373              1059.2739              1096.5026
 Red. masses --      2.3759                 2.7857                 2.7064
 Frc consts  --      1.4202                 1.8416                 1.9172
 IR Inten    --      1.5459                 0.6348                 6.7917

                     34                     35                     36
                      A                      A                      A
 Frequencies --   1116.2932              1130.6402              1162.0494
 Red. masses --      1.5013                 2.3468                 2.0314
 Frc consts  --      1.1022                 1.7676                 1.6162
 IR Inten    --      1.4514                12.0429                 1.2408

                     37                     38                     39
                      A                      A                      A
 Frequencies --   1173.5067              1204.2381              1253.3425
 Red. masses --      2.1589                 1.8614                 1.9583
 Frc consts  --      1.7517                 1.5904                 1.8125
 IR Inten    --     17.3238                 5.3355                 0.4068

                     40                     41                     42
                      A                      A                      A
 Frequencies --   1291.3108              1314.3719              1331.5108
 Red. masses --      2.4398                 1.4351                 1.3813
 Frc consts  --      2.3970                 1.4607                 1.4428
 IR Inten    --     11.7195                13.5842                12.9922

                     43                     44                     45
                      A                      A                      A
 Frequencies --   1354.0248              1371.8777              1390.3562
 Red. masses --      1.1984                 1.2437                 1.5962
 Frc consts  --      1.2945                 1.3791                 1.8180
 IR Inten    --     44.1831                 1.7408                 5.0904

                     46                     47                     48
                      A                      A                      A
 Frequencies --   1414.9188              1420.0932              1438.6122
 Red. masses --      1.4713                 1.4664                 1.2818
 Frc consts  --      1.7355                 1.7424                 1.5630
 IR Inten    --      1.5290                57.6557                 7.2327

                     49                     50                     51
                      A                      A                      A
 Frequencies --   1443.6061              1456.6330              1495.6941
 Red. masses --      1.2236                 1.6642                 1.7360
 Frc consts  --      1.5024                 2.0805                 2.2881
 IR Inten    --      5.7770                62.9857                49.7821

                     52                     53                     54
                      A                      A                      A
 Frequencies --   1509.7876              1514.6976              1527.0881
 Red. masses --      1.1399                 1.2290                 1.0430
 Frc consts  --      1.5309                 1.6614                 1.4331
 IR Inten    --      2.5375                 9.8147                10.4446

                     55                     56                     57
                      A                      A                      A
 Frequencies --   1531.4317              1535.6312              1543.7887
 Red. masses --      1.0609                 1.0601                 1.0497
 Frc consts  --      1.4659                 1.4729                 1.4740
 IR Inten    --      3.6483                12.3484                 3.7165

                     58                     59                     60
                      A                      A                      A
 Frequencies --   1592.2191              1621.2411              1658.9395
 Red. masses --      4.4737                 3.5984                 5.5189
 Frc consts  --      6.6823                 5.5726                 8.9489
 IR Inten    --    252.7985               168.9370               484.8308

                     61                     62                     63
                      A                      A                      A
 Frequencies --   2992.8712              3040.6741              3042.9507
 Red. masses --      1.0825                 1.0458                 1.0557
 Frc consts  --      5.7131                 5.6969                 5.7594
 IR Inten    --     26.9841                 7.2833                36.3982

                     64                     65                     66
                      A                      A                      A
 Frequencies --   3045.8171              3047.3068              3083.4212
 Red. masses --      1.0494                 1.0574                 1.0983
 Frc consts  --      5.7360                 5.7854                 6.1525
 IR Inten    --     51.6974                51.0250                 8.1072

                     67                     68                     69
                      A                      A                      A
 Frequencies --   3102.1214              3108.5098              3117.8064
 Red. masses --      1.1013                 1.1012                 1.1020
 Frc consts  --      6.2444                 6.2691                 6.3114
 IR Inten    --     30.1869                48.6384                49.4262

                     70                     71                     72
                      A                      A                      A
 Frequencies --   3129.6975              3136.5799              3164.4389
 Red. masses --      1.0991                 1.0945                 1.0898
 Frc consts  --      6.3427                 6.3440                 6.4295
 IR Inten    --     35.1757                 8.3482                24.6133

                     73                     74                     75
                      A                      A                      A
 Frequencies --   3165.5430              3233.5700              3626.9615
 Red. masses --      1.0913                 1.0952                 1.0761
 Frc consts  --      6.4428                 6.7472                 8.3404
 IR Inten    --     41.5100                10.9383                38.0138

 - Thermochemistry -
 -------------------
 Temperature   298.150 Kelvin.  Pressure   1.00000 Atm.
 Atom     1 has atomic number  6 and mass  12.00000

 Molecular mass:   165.12660 amu.
 Principal axes and moments of inertia in atomic units:
                           1         2         3
     Eigenvalues --   981.626463709.405573950.97654
           X            1.00000  -0.00004   0.00026
           Y            0.00003   0.99938   0.03515
           Z           -0.00026  -0.03515   0.99938
 This molecule is an asymmetric top.
 Rotational symmetry number  1.
 Warning -- assumption of classical behavior for rotation
           may cause significant error
 Rotational temperatures (Kelvin)      0.08824     0.02335     0.02192
 Rotational constants (GHZ):           1.83852     0.48653     0.45678
 Zero-point vibrational energy     622652.2 (Joules/Mol)
                                  148.81744 (Kcal/Mol)
 Warning -- explicit consideration of  17 degrees of freedom as
           vibrations may cause significant error
 Vibrational temperatures:     51.93    61.23    84.81   137.96   225.84
          (Kelvin)            304.51   308.39   340.19   394.03   443.19
                              478.55   596.86   602.78   687.14   733.81
                              762.08   829.53   907.05   942.40  1113.54
                             1142.91  1162.15  1169.30  1246.49  1334.38
                             1377.34  1415.11  1429.79  1438.98  1442.21
                             1449.19  1524.06  1577.62  1606.10  1626.74
                             1671.93  1688.41  1732.63  1803.28  1857.91
                             1891.09  1915.75  1948.14  1973.83  2000.41
                             2035.75  2043.20  2069.84  2077.03  2095.77
                             2151.97  2172.25  2179.31  2197.14  2203.39
                             2209.43  2221.17  2290.85  2332.60  2386.84
                             4306.07  4374.85  4378.13  4382.25  4384.39
                             4436.36  4463.26  4472.45  4485.83  4502.94
                             4512.84  4552.92  4554.51  4652.39  5218.39

 Zero-point correction=                           0.237156 (Hartree/Particle)
 Thermal correction to Energy=                    0.249377
 Thermal correction to Enthalpy=                  0.250321
 Thermal correction to Gibbs Free Energy=         0.197598
 Sum of electronic and zero-point Energies=           -516.070056
 Sum of electronic and thermal Energies=              -516.057835
 Sum of electronic and thermal Enthalpies=            -516.056891
 Sum of electronic and thermal Free Energies=         -516.109614

                     E (Thermal)             CV                S
                      KCal/Mol        Cal/Mol-Kelvin    Cal/Mol-Kelvin
 Total                  156.486             45.498            110.965
 Electronic               0.000              0.000              0.000
 Translational            0.889              2.981             41.213
 Rotational               0.889              2.981             31.043
 Vibrational            154.709             39.537             38.710
 Vibration     1          0.594              1.982              5.463
 Vibration     2          0.595              1.980              5.136
 Vibration     3          0.596              1.974              4.492
 Vibration     4          0.603              1.952              3.536
 Vibration     5          0.621              1.895              2.586
 Vibration     6          0.643              1.823              2.029
 Vibration     7          0.644              1.819              2.006
 Vibration     8          0.655              1.785              1.830
 Vibration     9          0.676              1.722              1.572
 Vibration    10          0.698              1.658              1.373
 Vibration    11          0.715              1.610              1.247
 Vibration    12          0.778              1.438              0.910
 Vibration    13          0.782              1.429              0.896
 Vibration    14          0.834              1.300              0.717
 Vibration    15          0.865              1.228              0.634
 Vibration    16          0.885              1.184              0.588
 Vibration    17          0.933              1.082              0.492

 Optimization completed.
    -- Stationary point found.

 1\1\GINC-NODE315\Freq\RB3LYP\6-31G(d)\C9H15N3\VSC10255\09-Dec-2020\0\\
 #N Geom=AllCheck Guess=TCheck SCRF=Check GenChk RB3LYP/6-31G(d) Freq\\
 CID_3665157_JID_2570_neutraal\\0,1\C,0.7906417177,1.0169830786,-0.3773
 751884\C,1.0417998173,1.3113076141,-1.8588376645\C,1.638339319,0.13139
 18406,-2.6427657701\C,0.7105446998,-1.0894687037,-2.6675821503\C,1.977
 4295533,0.5324986331,-4.0921822196\N,2.9318797664,1.618618585,-4.20519
 97852\C,2.6205939199,2.9197202048,-4.4515054857\N,3.6574935662,3.78923
 08793,-4.3877149369\C,3.3635118424,5.06114707,-4.6435402038\C,2.076433

 Normal termination of Gaussian 16 at Wed Dec  9 18:09:33 2020.

 ----------------------------------------------------------------------
 # B3LYP/6-311++G(d,p) empiricaldispersion=gd3bj scf=xqc pop=npa geom=c
 heck
 ----------------------------------------------------------------------

 -------------------------------------
 CID_3665157_JID_2570_Energie_neutraal
 -------------------------------------
 Structure from the checkpoint file:  "JID_2570.chk"
 Charge =  0 Multiplicity = 1

 SCF Done:  E(RB3LYP) =  -516.449527388     A.U. after   14 cycles
 Normal termination of Gaussian 16 at Wed Dec  9 18:12:28 2020.

 ----------------------------------------------------------------------
 # B3LYP/6-311++G(d,p) empiricaldispersion=gd3bj scf=xqc pop=npa geom=c
 heck
 ----------------------------------------------------------------------

 -----------------------------------
 CID_3665157_JID_2570_Energie_kation
 -----------------------------------
 Structure from the checkpoint file:  "JID_2570.chk"
 Charge =  1 Multiplicity = 2

 SCF Done:  E(UB3LYP) =  -516.157554774     A.U. after   20 cycles
 Normal termination of Gaussian 16 at Wed Dec  9 18:17:10 2020.
 Gaussian 16:  ES64L-G16RevA.03 25-Dec-2016

 ----------------------------------
 CID_3665157_JID_2570_Energie_anion
 ----------------------------------
 Structure from the checkpoint file:  "JID_2570.chk"
 Charge = -1 Multiplicity = 2

                         Standard orientation:
 ---------------------------------------------------------------------
 Center     Atomic      Atomic             Coordinates (Angstroms)
 Number     Number       Type             X           Y           Z
 ---------------------------------------------------------------------
      1          6           0       -2.876850   -2.022093   -0.632211
      2          6           0       -1.827893   -1.037406   -0.108264
      3          6           0       -2.256342    0.436927   -0.181602
      4          6           0       -3.493341    0.734890    0.674535
      5          6           0       -1.112368    1.377538    0.246477
      6          7           0        0.089106    1.263737   -0.557832
      7          6           0        1.206697    0.569436   -0.212335
      8          7           0        2.162162    0.489248   -1.169380
      9          6           0        3.264881   -0.174403   -0.832895
     10          6           0        3.452642   -0.762145    0.419794
     11          6           0        2.398755   -0.614542    1.318477
     12          7           0        1.274225    0.040007    1.026995
     13          1           0       -3.784754   -2.021104   -0.019468
     14          1           0       -2.484469   -3.045004   -0.635340
     15          1           0       -3.170001   -1.775876   -1.660667
     16          1           0       -1.569107   -1.281087    0.931017
     17          1           0       -0.904943   -1.161619   -0.686269
     18          1           0       -2.501889    0.666002   -1.231535
     19          1           0       -3.306616    0.480419    1.725756
     20          1           0       -3.759862    1.797664    0.630647
     21          1           0       -4.364018    0.162221    0.341889
     22          1           0       -1.461498    2.417215    0.200927
     23          1           0       -0.825933    1.168852    1.279890
     24          1           0        0.073579    1.575017   -1.518914
     25          1           0        4.033572   -0.240620   -1.602201
     26          1           0        4.357607   -1.300732    0.674603
     27          1           0        2.452788   -1.041503    2.319330
 ---------------------------------------------------------------------

 SCF Done:  E(UB3LYP) =  -516.435883535     A.U. after   33 cycles
 SCF Done:  E(UB3LYP) =  -516.435883535     a.u. after    1 cycles

 The electronic state is 2-A.
 Alpha  occ. eigenvalues --  -14.20918 -14.16834 -14.16798 -10.14197 -10.08563
 Alpha  occ. eigenvalues --  -10.07844 -10.07668 -10.06182 -10.04909 -10.04837
 Alpha  occ. eigenvalues --  -10.04696 -10.04633  -0.87187  -0.79548  -0.75362
 Alpha  occ. eigenvalues --   -0.69776  -0.64773  -0.62007  -0.57514  -0.53014
 Alpha  occ. eigenvalues --   -0.52478  -0.49604  -0.45291  -0.42430  -0.39431
 Alpha  occ. eigenvalues --   -0.36143  -0.35092  -0.34768  -0.33990  -0.31393
 Alpha  occ. eigenvalues --   -0.30373  -0.29672  -0.28030  -0.27631  -0.27563
 Alpha  occ. eigenvalues --   -0.26417  -0.24719  -0.23161  -0.21488  -0.21031
 Alpha  occ. eigenvalues --   -0.18938  -0.18747  -0.18168  -0.11972  -0.09945
 Alpha  occ. eigenvalues --    0.05194
 Alpha virt. eigenvalues --    0.06727   0.07947   0.08093   0.08661   0.09549
 Alpha virt. eigenvalues --    0.10021   0.10933   0.11330   0.11700   0.12052
 Alpha virt. eigenvalues --    0.12184   0.12834   0.13794   0.14339   0.15214

  Beta  occ. eigenvalues --  -14.20921 -14.16632 -14.16620 -10.14225 -10.08555
  Beta  occ. eigenvalues --  -10.07626 -10.07419 -10.06169 -10.04877 -10.04835
  Beta  occ. eigenvalues --  -10.04713 -10.04665  -0.86983  -0.79412  -0.74909
  Beta  occ. eigenvalues --   -0.69735  -0.64580  -0.61947  -0.57452  -0.52608
  Beta  occ. eigenvalues --   -0.52375  -0.49477  -0.45219  -0.42289  -0.39295
  Beta  occ. eigenvalues --   -0.36076  -0.35018  -0.34703  -0.33889  -0.31351
  Beta  occ. eigenvalues --   -0.30031  -0.29365  -0.27857  -0.27535  -0.27485
  Beta  occ. eigenvalues --   -0.26366  -0.24680  -0.23035  -0.21450  -0.20983
  Beta  occ. eigenvalues --   -0.18516  -0.17899  -0.17347  -0.11748  -0.09562
  Beta virt. eigenvalues --    0.07507   0.07954   0.08603   0.08999   0.09693
  Beta virt. eigenvalues --    0.09742   0.10305   0.11151   0.11664   0.11894
  Beta virt. eigenvalues --    0.12260   0.12414   0.13127   0.14008   0.14514

 Mulliken charges and spin densities:
               1          2
     1  C    1.464094  -2.200297
     2  C   -1.469158   1.338521
     3  C   -0.245964   0.876268
     4  C    1.325878  -2.029242
     5  C   -0.248069  -0.451885
     6  N   -0.122165   0.062966
     7  C   -0.505471  -0.075356
     8  N   -0.150196   0.123363
     9  C   -0.126308   0.258248
    10  C   -0.082525  -0.217869
    11  C   -0.098347   0.283563
    12  N   -0.095149   0.062966
    13  H   -0.123782   0.262506
    14  H   -0.107190   0.235986
    15  H   -0.316280   0.459634
    16  H    0.030851   0.123461
    17  H    0.146772   0.034942
    18  H   -0.163749   0.314810
    19  H   -0.056716   0.193763
    20  H   -0.255523   0.378549
    21  H   -0.448302   0.593303
    22  H   -0.088743   0.236636
    23  H    0.264163  -0.045120
    24  H    0.209089   0.074147
    25  H    0.090113   0.043009
    26  H    0.087038   0.028828
    27  H    0.085639   0.034299
 Sum of Mulliken charges =  -1.00000   1.00000

 Dipole moment (field-independent basis, Debye):
    X=              4.9852    Y=              0.4653    Z=              1.0362  Tot=              5.1130
 Quadrupole moment (field-independent basis, Debye-Ang):
   XX=           -146.3466   YY=           -102.2640   ZZ=            -97.9225
   XY=             -4.6833   XZ=             -1.0350   YZ=             -1.9653

 Summary of Natural Population Analysis:

                                       Natural Population
                Natural  -----------------------------------------------
    Atom  No    Charge         Core      Valence    Rydberg      Total
 -----------------------------------------------------------------------
      C    1   -0.28521      0.99967     2.28058    0.00496     3.28521
      C    2   -0.19203      0.99962     2.18316    0.00925     3.19203
      C    3   -0.11386      0.99960     2.10366    0.01060     3.11386
      C    4   -0.28738      0.99965     2.28111    0.00663     3.28738
      C    5   -0.08674      0.99959     2.07529    0.01186     3.08674
      N    6   -0.31069      0.99965     2.80019    0.01084     3.81069
      C    7    0.29655      0.99960     1.68546    0.01839     2.70345
      N    8   -0.25276      0.99968     2.74242    0.01067     3.75276
      C    9    0.08115      0.99961     1.90391    0.01533     2.91885
      C   10   -0.19771      0.99956     2.18854    0.00961     3.19771
      C   11    0.08973      0.99961     1.89587    0.01479     2.91027
      N   12   -0.26401      0.99967     2.75421    0.01012     3.76401
      H   13    0.09599      0.00000     0.40282    0.00118     0.40401
      H   14    0.09689      0.00000     0.40234    0.00077     0.40311
      H   15    0.09576      0.00000     0.40292    0.00132     0.40424
      H   16    0.09680      0.00000     0.40185    0.00135     0.40320
      H   17    0.10171      0.00000     0.39672    0.00157     0.39829
      H   18    0.08871      0.00000     0.40912    0.00217     0.41129
      H   19    0.09512      0.00000     0.40382    0.00106     0.40488
      H   20    0.09821      0.00000     0.40045    0.00135     0.40179
      H   21    0.10320      0.00000     0.39542    0.00138     0.39680
      H   22    0.09022      0.00000     0.40886    0.00092     0.40978
      H   23    0.11014      0.00000     0.38793    0.00194     0.38986
      H   24    0.19112      0.00000     0.30551    0.00337     0.30888
      H   25    0.08018      0.00000     0.41878    0.00104     0.41982
      H   26    0.09864      0.00000     0.40047    0.00089     0.40136
      H   27    0.08027      0.00000     0.41870    0.00103     0.41973
 =======================================================================
   * Total *   -0.00000     11.99550    32.85012    0.15438    45.00000

 Normal termination of Gaussian 16 at Wed Dec  9 18:24:21 2020.
