 Gaussian 16, Revision A.03,

 -----------------------------------------------------------
 # opt freq B3LYP/6-31G(d) empiricaldispersion=gd3bj scf=xqc
 -----------------------------------------------------------

 --------------------------------
 CID_107916696_JID_10889_neutraal
 --------------------------------
 Symbolic Z-matrix:
 Charge =  0 Multiplicity = 1

 SCF Done:  E(RB3LYP) =  -844.644809213     A.U. after   15 cycles
 SCF Done:  E(RB3LYP) =  -844.646045257     A.U. after   14 cycles
 SCF Done:  E(RB3LYP) =  -844.643641396     A.U. after   14 cycles
 SCF Done:  E(RB3LYP) =  -844.648617160     A.U. after   14 cycles
 SCF Done:  E(RB3LYP) =  -844.648173582     A.U. after   14 cycles
 SCF Done:  E(RB3LYP) =  -844.651701424     A.U. after   13 cycles
 SCF Done:  E(RB3LYP) =  -844.652131967     A.U. after   13 cycles
 SCF Done:  E(RB3LYP) =  -844.652572421     A.U. after   13 cycles
 SCF Done:  E(RB3LYP) =  -844.653570157     A.U. after   13 cycles
 SCF Done:  E(RB3LYP) =  -844.654305581     A.U. after   13 cycles
 SCF Done:  E(RB3LYP) =  -844.655527485     A.U. after   11 cycles
 SCF Done:  E(RB3LYP) =  -844.655528515     A.U. after   10 cycles
 SCF Done:  E(RB3LYP) =  -844.655528920     A.U. after    8 cycles
 SCF Done:  E(RB3LYP) =  -844.655529111     A.U. after    8 cycles
 SCF Done:  E(RB3LYP) =  -844.655529152     A.U. after    7 cycles
 SCF Done:  E(RB3LYP) =  -844.655529178     A.U. after    7 cycles
 Optimization completed.
    -- Stationary point found.
 Normal termination of Gaussian 16 at Sat Dec 12 16:48:16 2020.

 --------------------------------------------------------------------
 #N Geom=AllCheck Guess=TCheck SCRF=Check GenChk RB3LYP/6-31G(d) Freq
 --------------------------------------------------------------------

 Structure from the checkpoint file:  "JID_10889.chk"
 --------------------------------
 CID_107916696_JID_10889_neutraal
 --------------------------------
 Charge =  0 Multiplicity = 1

 SCF Done:  E(RB3LYP) =  -844.655529178     A.U. after    1 cycles

  Exact polarizability: 269.300 -22.463 198.713 -18.559   8.514 117.847
 Approx polarizability: 389.755 -51.136 336.668 -42.513  27.102 178.485

                      1                      2                      3
                      A                      A                      A
 Frequencies --     14.5341                20.1639                58.6495
 Red. masses --      4.5194                 4.2312                 5.4065
 Frc consts  --      0.0006                 0.0010                 0.0110
 IR Inten    --      2.7417                 0.0153                 3.8317

                      4                      5                      6
                      A                      A                      A
 Frequencies --     69.3447                74.7228               101.5479
 Red. masses --      2.7227                 3.5777                 4.8376
 Frc consts  --      0.0077                 0.0118                 0.0294
 IR Inten    --      0.2086                 1.0682                 1.8892

                      7                      8                      9
                      A                      A                      A
 Frequencies --    109.1866               124.6105               140.5971
 Red. masses --      3.2974                 4.5305                 2.0934
 Frc consts  --      0.0232                 0.0414                 0.0244
 IR Inten    --      0.5458                 3.3967                 0.2516

                     10                     11                     12
                      A                      A                      A
 Frequencies --    162.1378               191.0330               211.4205
 Red. masses --      4.7066                 4.8339                 2.7143
 Frc consts  --      0.0729                 0.1039                 0.0715
 IR Inten    --      0.3932                 1.1494                 0.1114

                     13                     14                     15
                      A                      A                      A
 Frequencies --    232.6721               239.3649               255.2277
 Red. masses --      1.2911                 3.2674                 4.2800
 Frc consts  --      0.0412                 0.1103                 0.1643
 IR Inten    --      0.0546                 1.9786                13.0067

                     16                     17                     18
                      A                      A                      A
 Frequencies --    265.5967               308.8954               338.3340
 Red. masses --      1.2644                 7.1160                 1.9495
 Frc consts  --      0.0526                 0.4000                 0.1315
 IR Inten    --      0.0379                 1.2896                 0.3992

                     19                     20                     21
                      A                      A                      A
 Frequencies --    354.0000               395.4434               406.2769
 Red. masses --      6.4156                 2.4464                 3.2018
 Frc consts  --      0.4737                 0.2254                 0.3114
 IR Inten    --      2.6478                 2.0812                10.3496

                     22                     23                     24
                      A                      A                      A
 Frequencies --    423.0667               449.7208               464.9497
 Red. masses --      3.2551                 2.9101                 4.5524
 Frc consts  --      0.3433                 0.3468                 0.5798
 IR Inten    --      9.4505                 2.4997                10.3023

                     25                     26                     27
                      A                      A                      A
 Frequencies --    475.8298               502.3753               530.4212
 Red. masses --      1.8707                 4.1815                 3.1614
 Frc consts  --      0.2495                 0.6218                 0.5240
 IR Inten    --     43.0592                20.3685                18.5678

                     28                     29                     30
                      A                      A                      A
 Frequencies --    555.0482               568.9879               616.1989
 Red. masses --      6.6589                 4.1829                 3.2154
 Frc consts  --      1.2087                 0.7979                 0.7193
 IR Inten    --      1.1508                 3.8239                24.3059

                     31                     32                     33
                      A                      A                      A
 Frequencies --    632.0604               646.8635               651.3997
 Red. masses --      2.4544                 4.1413                 4.8126
 Frc consts  --      0.5777                 1.0210                 1.2032
 IR Inten    --     16.8231                 1.7406                 1.3642

                     34                     35                     36
                      A                      A                      A
 Frequencies --    732.3685               757.1085               769.1158
 Red. masses --      2.1359                 3.9774                 3.4257
 Frc consts  --      0.6750                 1.3433                 1.1939
 IR Inten    --      8.8777                 2.1994                 0.4822

                     37                     38                     39
                      A                      A                      A
 Frequencies --    779.3523               804.1485               826.7946
 Red. masses --      1.7467                 1.6952                 4.1652
 Frc consts  --      0.6251                 0.6459                 1.6776
 IR Inten    --     11.4322                 4.2123                 3.5648

                     40                     41                     42
                      A                      A                      A
 Frequencies --    831.1891               835.7363               876.5814
 Red. masses --      1.5733                 2.1393                 1.4673
 Frc consts  --      0.6404                 0.8804                 0.6643
 IR Inten    --     18.9821                15.4383                19.5005

                     43                     44                     45
                      A                      A                      A
 Frequencies --    880.6423               891.0940               900.9488
 Red. masses --      1.6028                 2.2667                 1.7529
 Frc consts  --      0.7324                 1.0605                 0.8383
 IR Inten    --      1.5341                 1.8973                 1.1058

                     46                     47                     48
                      A                      A                      A
 Frequencies --    915.8226               953.4078               963.6384
 Red. masses --      1.5707                 1.6717                 2.6179
 Frc consts  --      0.7762                 0.8953                 1.4323
 IR Inten    --     21.1209                 3.3164                 2.9805

                     49                     50                     51
                      A                      A                      A
 Frequencies --    971.2149              1006.8102              1027.0276
 Red. masses --      1.4200                 3.2507                 1.7345
 Frc consts  --      0.7892                 1.9414                 1.0779
 IR Inten    --      1.8333                40.7130                 5.0455

                     52                     53                     54
                      A                      A                      A
 Frequencies --   1067.5565              1082.5035              1089.3845
 Red. masses --      1.7937                 1.5063                 2.8019
 Frc consts  --      1.2044                 1.0400                 1.9592
 IR Inten    --      0.8912                 0.8611                31.9824

                     55                     56                     57
                      A                      A                      A
 Frequencies --   1102.1352              1127.7717              1142.4894
 Red. masses --      1.9433                 1.6820                 1.7044
 Frc consts  --      1.3908                 1.2604                 1.3107
 IR Inten    --     14.9881                10.4519                66.3420

                     58                     59                     60
                      A                      A                      A
 Frequencies --   1173.5147              1183.0777              1193.4126
 Red. masses --      1.9634                 1.9639                 1.7048
 Frc consts  --      1.5931                 1.6196                 1.4305
 IR Inten    --     24.6612                16.9118                 1.3365

                     61                     62                     63
                      A                      A                      A
 Frequencies --   1203.5169              1255.9265              1271.2598
 Red. masses --      1.8063                 1.4266                 1.7275
 Frc consts  --      1.5415                 1.3258                 1.6448
 IR Inten    --      0.7055                 0.2543                46.9121

                     64                     65                     66
                      A                      A                      A
 Frequencies --   1284.7988              1298.6078              1307.9247
 Red. masses --      1.5642                 1.4173                 1.7681
 Frc consts  --      1.5213                 1.4082                 1.7820
 IR Inten    --      0.6777                 1.0335                 1.7290

                     67                     68                     69
                      A                      A                      A
 Frequencies --   1312.7604              1336.9424              1341.9546
 Red. masses --      1.4774                 1.9083                 1.2414
 Frc consts  --      1.5001                 2.0097                 1.3171
 IR Inten    --      4.0700                33.3203                 0.6643

                     70                     71                     72
                      A                      A                      A
 Frequencies --   1359.0550              1365.0990              1381.1940
 Red. masses --      3.3869                 1.2807                 5.4707
 Frc consts  --      3.6858                 1.4061                 6.1490
 IR Inten    --     97.7076                 7.1150                46.6455

                     73                     74                     75
                      A                      A                      A
 Frequencies --   1396.2544              1401.3219              1407.0828
 Red. masses --      1.3484                 1.4421                 1.3942
 Frc consts  --      1.5488                 1.6685                 1.6264
 IR Inten    --     11.6784                 1.1495                 1.4482

                     76                     77                     78
                      A                      A                      A
 Frequencies --   1429.1698              1445.6485              1447.4649
 Red. masses --      1.4748                 1.2802                 1.3119
 Frc consts  --      1.7748                 1.5763                 1.6195
 IR Inten    --      0.1490                 7.7490                 2.7107

                     79                     80                     81
                      A                      A                      A
 Frequencies --   1450.1858              1498.1849              1513.7018
 Red. masses --      2.9935                 3.0978                 1.0799
 Frc consts  --      3.7092                 4.0966                 1.4579
 IR Inten    --     41.6254                36.4377                10.3062

                     82                     83                     84
                      A                      A                      A
 Frequencies --   1519.2898              1527.8806              1528.8087
 Red. masses --      1.0717                 1.4587                 1.7781
 Frc consts  --      1.4575                 2.0062                 2.4486
 IR Inten    --      1.3239                60.2185                71.1715

                     85                     86                     87
                      A                      A                      A
 Frequencies --   1530.0439              1535.2273              1539.0415
 Red. masses --      1.1623                 1.0600                 1.0835
 Frc consts  --      1.6032                 1.4720                 1.5120
 IR Inten    --     21.1344                 8.4352                 7.8687

                     88                     89                     90
                      A                      A                      A
 Frequencies --   1541.6160              1548.7526              1558.0342
 Red. masses --      1.0761                 1.2121                 2.1991
 Frc consts  --      1.5068                 1.7129                 3.1452
 IR Inten    --     11.5012                15.8549                 3.4618

                     91                     92                     93
                      A                      A                      A
 Frequencies --   1597.4108              1680.3093              1714.3491
 Red. masses --      5.7730                 6.3665                11.0915
 Frc consts  --      8.6793                10.5909                19.2061
 IR Inten    --      5.1530                28.4073               151.7031

                     94                     95                     96
                      A                      A                      A
 Frequencies --   2347.3281              3036.4649              3038.7179
 Red. masses --     12.6779                 1.0617                 1.0634
 Frc consts  --     41.1570                 5.7678                 5.7852
 IR Inten    --     71.8858                43.9260                17.1832

                     97                     98                     99
                      A                      A                      A
 Frequencies --   3045.1695              3045.4453              3049.5798
 Red. masses --      1.0620                 1.0510                 1.0643
 Frc consts  --      5.8021                 5.7430                 5.8314
 IR Inten    --     17.7829                20.8110                13.8730

                    100                    101                    102
                      A                      A                      A
 Frequencies --   3049.6579              3059.7786              3067.6697
 Red. masses --      1.0395                 1.0753                 1.0955
 Frc consts  --      5.6960                 5.9316                 6.0741
 IR Inten    --     22.1882                34.7116                34.2979

                    103                    104                    105
                      A                      A                      A
 Frequencies --   3078.0858              3098.9356              3102.1215
 Red. masses --      1.0964                 1.0996                 1.0994
 Frc consts  --      6.1203                 6.2216                 6.2331
 IR Inten    --     21.4551                37.1847                16.8605

                    106                    107                    108
                      A                      A                      A
 Frequencies --   3111.0945              3113.0067              3119.0369
 Red. masses --      1.1017                 1.1014                 1.1020
 Frc consts  --      6.2826                 6.2886                 6.3163
 IR Inten    --     33.2100                59.7071                44.1263

                    109                    110                    111
                      A                      A                      A
 Frequencies --   3136.2733              3215.8209              3219.9183
 Red. masses --      1.0992                 1.0923                 1.0912
 Frc consts  --      6.3704                 6.6555                 6.6658
 IR Inten    --     37.1289                 2.7008                 2.6656

                    112                    113                    114
                      A                      A                      A
 Frequencies --   3303.0904              3304.8964              3658.0556
 Red. masses --      1.0891                 1.0970                 1.0805
 Frc consts  --      7.0013                 7.0595                 8.5186
 IR Inten    --      2.2189                 5.7877                85.9368

 - Thermochemistry -
 -------------------
 Temperature   298.150 Kelvin.  Pressure   1.00000 Atm.
 Atom     1 has atomic number  6 and mass  12.00000

 Molecular mass:   268.15756 amu.
 Principal axes and moments of inertia in atomic units:
                           1         2         3
     Eigenvalues --  3380.080749112.53569**********
           X            0.99954   0.02972   0.00615
           Y           -0.02945   0.99877  -0.03981
           Z           -0.00733   0.03961   0.99919
 This molecule is an asymmetric top.
 Rotational symmetry number  1.
 Warning -- assumption of classical behavior for rotation
           may cause significant error
 Rotational temperatures (Kelvin)      0.02562     0.00950     0.00810
 Rotational constants (GHZ):           0.53393     0.19805     0.16870
 Zero-point vibrational energy     892441.1 (Joules/Mol)
                                  213.29853 (Kcal/Mol)
 Warning -- explicit consideration of  30 degrees of freedom as
           vibrations may cause significant error
 Vibrational temperatures:     20.91    29.01    84.38    99.77   107.51
          (Kelvin)            146.10   157.10   179.29   202.29   233.28
                              274.85   304.19   334.76   344.39   367.22
                              382.13   444.43   486.79   509.33   568.95
                              584.54   608.70   647.05   668.96   684.61
                              722.81   763.16   798.59   818.65   886.57
                              909.39   930.69   937.22  1053.71  1089.31
                             1106.59  1121.31  1156.99  1189.57  1195.90
                             1202.44  1261.21  1267.05  1282.09  1296.26
                             1317.66  1371.74  1386.46  1397.36  1448.58
                             1477.66  1535.98  1557.48  1567.38  1585.73
                             1622.61  1643.79  1688.43  1702.18  1717.05
                             1731.59  1807.00  1829.06  1848.54  1868.41
                             1881.81  1888.77  1923.56  1930.77  1955.38
                             1964.07  1987.23  2008.90  2016.19  2024.48
                             2056.26  2079.97  2082.58  2086.49  2155.55
                             2177.88  2185.92  2198.28  2199.61  2201.39
                             2208.85  2214.34  2218.04  2228.31  2241.66
                             2298.32  2417.59  2466.57  3377.28  4368.80
                             4372.04  4381.32  4381.72  4387.67  4387.78
                             4402.34  4413.69  4428.68  4458.68  4463.26
                             4476.17  4478.92  4487.60  4512.40  4626.85
                             4632.74  4752.41  4755.01  5263.13

 Zero-point correction=                           0.339913 (Hartree/Particle)
 Thermal correction to Energy=                    0.359165
 Thermal correction to Enthalpy=                  0.360110
 Thermal correction to Gibbs Free Energy=         0.290570
 Sum of electronic and zero-point Energies=           -844.315616
 Sum of electronic and thermal Energies=              -844.296364
 Sum of electronic and thermal Enthalpies=            -844.295420
 Sum of electronic and thermal Free Energies=         -844.364959

                     E (Thermal)             CV                S
                      KCal/Mol        Cal/Mol-Kelvin    Cal/Mol-Kelvin
 Total                  225.380             73.318            146.359
 Electronic               0.000              0.000              0.000
 Translational            0.889              2.981             42.658
 Rotational               0.889              2.981             34.154
 Vibrational            223.602             67.357             69.546
 Vibration     1          0.593              1.986              7.268
 Vibration     2          0.593              1.986              6.618
 Vibration     3          0.596              1.974              4.502
 Vibration     4          0.598              1.969              4.172
 Vibration     5          0.599              1.966              4.025
 Vibration     6          0.604              1.948              3.424
 Vibration     7          0.606              1.942              3.283
 Vibration     8          0.610              1.928              3.028
 Vibration     9          0.615              1.913              2.796
 Vibration    10          0.622              1.889              2.525
 Vibration    11          0.634              1.852              2.218
 Vibration    12          0.643              1.823              2.031
 Vibration    13          0.653              1.791              1.858
 Vibration    14          0.657              1.780              1.808
 Vibration    15          0.666              1.754              1.694
 Vibration    16          0.671              1.736              1.625
 Vibration    17          0.698              1.657              1.368
 Vibration    18          0.719              1.599              1.220
 Vibration    19          0.730              1.567              1.148
 Vibration    20          0.762              1.480              0.980
 Vibration    21          0.771              1.457              0.940
 Vibration    22          0.785              1.420              0.882
 Vibration    23          0.809              1.362              0.797
 Vibration    24          0.822              1.328              0.752
 Vibration    25          0.832              1.304              0.721
 Vibration    26          0.858              1.245              0.652
 Vibration    27          0.885              1.183              0.586
 Vibration    28          0.910              1.129              0.534
 Vibration    29          0.925              1.098              0.506
 Vibration    30          0.976              0.998              0.423

 Optimization completed.
    -- Stationary point found.
 Normal termination of Gaussian 16 at Sat Dec 12 17:08:13 2020.

 ----------------------------------------------------------------------
 # B3LYP/6-311++G(d,p) empiricaldispersion=gd3bj scf=xqc pop=npa geom=c
 heck
 ----------------------------------------------------------------------

 ----------------------------------------
 CID_107916696_JID_10889_Energie_neutraal
 ----------------------------------------
 Structure from the checkpoint file:  "JID_10889.chk"
 Charge =  0 Multiplicity = 1

 SCF Done:  E(RB3LYP) =  -844.880616505     A.U. after   16 cycles
 Normal termination of Gaussian 16 at Sat Dec 12 17:16:38 2020.

 ----------------------------------------------------------------------
 # B3LYP/6-311++G(d,p) empiricaldispersion=gd3bj scf=xqc pop=npa geom=c
 heck
 ----------------------------------------------------------------------

 --------------------------------------
 CID_107916696_JID_10889_Energie_kation
 --------------------------------------
 Structure from the checkpoint file:  "JID_10889.chk"
 Charge =  1 Multiplicity = 2

 SCF Done:  E(UB3LYP) =  -844.580543645     A.U. after   27 cycles
 Normal termination of Gaussian 16 at Sat Dec 12 17:35:41 2020.
 Gaussian 16:  ES64L-G16RevA.03 25-Dec-2016

 ----------------------------------------------------------------------
 # B3LYP/6-311++G(d,p) empiricaldispersion=gd3bj scf=xqc pop=npa geom=c
 heck
 ----------------------------------------------------------------------

 -------------------------------------
 CID_107916696_JID_10889_Energie_anion
 -------------------------------------
 Structure from the checkpoint file:  "JID_10889.chk"
 Charge = -1 Multiplicity = 2

                         Standard orientation:
 ---------------------------------------------------------------------
 Center     Atomic      Atomic             Coordinates (Angstroms)
 Number     Number       Type             X           Y           Z
 ---------------------------------------------------------------------
      1          6           0        3.968671    2.698522   -1.080276
      2          6           0        2.993496    2.482550    0.080642
      3          6           0        1.925249    1.408344   -0.186641
      4          6           0        2.484939    0.016279   -0.481670
      5          6           0        3.419193   -0.519560    0.641135
      6          6           0        2.883393   -0.488901    2.079493
      7          6           0        1.656849   -1.367202    2.341606
      8          6           0        1.511620   -1.098915   -0.903411
      9          8           0        2.034311   -2.090516   -1.408010
     10          6           0        0.033995   -1.160069   -0.687179
     11          6           0       -0.506113   -2.438608   -0.718591
     12          7           0       -1.840696   -2.407996   -0.465438
     13          6           0       -2.241776   -1.098781   -0.274711
     14          6           0       -1.085398   -0.266150   -0.408586
     15          6           0       -1.301379    1.123111   -0.300228
     16          6           0       -2.568715    1.618866   -0.042243
     17          6           0       -3.680552    0.758582    0.109583
     18          6           0       -3.521187   -0.623530   -0.014734
     19          6           0       -4.974945    1.304222    0.380265
     20          7           0       -6.027441    1.748590    0.601210
     21          1           0        4.591641    1.815824   -1.261613
     22          1           0        4.641953    3.537623   -0.874567
     23          1           0        3.431379    2.921617   -2.010415
     24          1           0        3.554241    2.236136    0.990189
     25          1           0        2.475155    3.426468    0.293367
     26          1           0        1.245664    1.367598    0.671152
     27          1           0        1.335466    1.733967   -1.052710
     28          1           0        3.125832    0.094732   -1.368000
     29          1           0        3.700093   -1.542900    0.370524
     30          1           0        4.342737    0.070898    0.608289
     31          1           0        3.700732   -0.813970    2.736769
     32          1           0        2.658797    0.543940    2.375792
     33          1           0        1.824094   -2.393389    1.992673
     34          1           0        1.430478   -1.408511    3.413021
     35          1           0        0.766919   -0.987819    1.831554
     36          1           0        0.022018   -3.362458   -0.896679
     37          1           0       -2.444810   -3.214580   -0.415334
     38          1           0       -0.493367    1.825461   -0.423449
     39          1           0       -2.720984    2.689286    0.042087
     40          1           0       -4.369596   -1.292515    0.084295
 ---------------------------------------------------------------------

 SCF Done:  E(UB3LYP) =  -844.896340359     A.U. after   30 cycles

 The electronic state is 2-A.
 Alpha  occ. eigenvalues --  -18.95723 -14.23238 -14.17793 -10.11450 -10.08713
 Alpha  occ. eigenvalues --  -10.08054 -10.08016 -10.07807 -10.07132 -10.06973
 Alpha  occ. eigenvalues --  -10.06623 -10.06600 -10.06334 -10.06139 -10.05824
 Alpha  occ. eigenvalues --  -10.05465 -10.05349 -10.04785 -10.04602 -10.03930
 Alpha  occ. eigenvalues --   -0.89656  -0.86121  -0.77963  -0.73020  -0.72097
 Alpha  occ. eigenvalues --   -0.68336  -0.66919  -0.63850  -0.62508  -0.61678
 Alpha  occ. eigenvalues --   -0.58680  -0.55283  -0.52051  -0.49983  -0.49804
 Alpha  occ. eigenvalues --   -0.49285  -0.45682  -0.43660  -0.40395  -0.39312
 Alpha  occ. eigenvalues --   -0.38440  -0.37335  -0.35177  -0.34322  -0.33999
 Alpha  occ. eigenvalues --   -0.32976  -0.32483  -0.31971  -0.31132  -0.30745
 Alpha  occ. eigenvalues --   -0.29745  -0.29371  -0.28915  -0.28298  -0.26703
 Alpha  occ. eigenvalues --   -0.26228  -0.25501  -0.25433  -0.24990  -0.24827
 Alpha  occ. eigenvalues --   -0.24200  -0.24178  -0.23136  -0.22602  -0.21052
 Alpha  occ. eigenvalues --   -0.20666  -0.20425  -0.20128  -0.15998  -0.11817
 Alpha  occ. eigenvalues --   -0.11649  -0.09432   0.03692
 Alpha virt. eigenvalues --    0.06071   0.07302   0.07587   0.08013   0.08304
 Alpha virt. eigenvalues --    0.09099   0.09756   0.10266   0.10818   0.11018
 Alpha virt. eigenvalues --    0.11431   0.11799   0.12308   0.12420   0.13213

  Beta  occ. eigenvalues --  -18.95635 -14.23082 -14.17678 -10.11245 -10.08786
  Beta  occ. eigenvalues --  -10.08046 -10.08015 -10.07801 -10.07046 -10.06972
  Beta  occ. eigenvalues --  -10.06638 -10.06603 -10.06313 -10.06103 -10.05873
  Beta  occ. eigenvalues --  -10.05347 -10.04872 -10.04463 -10.04443 -10.04033
  Beta  occ. eigenvalues --   -0.89434  -0.85723  -0.77779  -0.72772  -0.72066
  Beta  occ. eigenvalues --   -0.68324  -0.66645  -0.63809  -0.62207  -0.61255
  Beta  occ. eigenvalues --   -0.58660  -0.55168  -0.51548  -0.49824  -0.49432
  Beta  occ. eigenvalues --   -0.49188  -0.45604  -0.43479  -0.40275  -0.39025
  Beta  occ. eigenvalues --   -0.38352  -0.37168  -0.35102  -0.34267  -0.33876
  Beta  occ. eigenvalues --   -0.32898  -0.32399  -0.31883  -0.30710  -0.30276
  Beta  occ. eigenvalues --   -0.29610  -0.29179  -0.28735  -0.28186  -0.26600
  Beta  occ. eigenvalues --   -0.25789  -0.25373  -0.25030  -0.24847  -0.24801
  Beta  occ. eigenvalues --   -0.24026  -0.23936  -0.23026  -0.22527  -0.20987
  Beta  occ. eigenvalues --   -0.20414  -0.20003  -0.19772  -0.14982  -0.11607
  Beta  occ. eigenvalues --   -0.10828  -0.08146
  Beta virt. eigenvalues --    0.06041   0.07493   0.07862   0.08197   0.08728
  Beta virt. eigenvalues --    0.09030   0.09273   0.09892   0.10234   0.10811
  Beta virt. eigenvalues --    0.10979   0.11665   0.11870   0.12248   0.12421

 Mulliken charges and spin densities:
               1          2
     1  C   -0.546136  -0.077433
     2  C   -0.598409   0.073450
     3  C   -0.099331  -0.032365
     4  C    0.773573   0.002378
     5  C   -0.398015  -0.048766
     6  C   -0.240893  -0.030375
     7  C   -0.593352  -0.007261
     8  C   -0.623460   0.125271
     9  O   -0.269401   0.034563
    10  C    0.447496  -0.099831
    11  C    0.053037   0.469105
    12  N   -0.098841   0.024929
    13  C   -0.399741  -0.061615
    14  C    0.726203   0.031158
    15  C   -0.603116   0.129849
    16  C   -0.813330  -0.047761
    17  C    1.824487   0.060575
    18  C   -0.399971   0.301368
    19  C   -1.723655  -0.023338
    20  N   -0.282122   0.061937
    21  H    0.124840   0.020716
    22  H    0.086580   0.045065
    23  H    0.132033   0.005103
    24  H    0.104699   0.011036
    25  H    0.143425   0.006719
    26  H    0.170013   0.000246
    27  H    0.170340   0.001722
    28  H    0.189351   0.039502
    29  H    0.200289  -0.005013
    30  H    0.103923   0.033128
    31  H    0.122504   0.002594
    32  H    0.118363  -0.000144
    33  H    0.136043   0.017786
    34  H    0.130593  -0.001475
    35  H    0.178974  -0.001817
    36  H    0.173665  -0.035042
    37  H    0.276972   0.001176
    38  H   -0.018575  -0.010761
    39  H    0.183108   0.003707
    40  H    0.137838  -0.020085
 Sum of Mulliken charges =  -1.00000   1.00000

 Dipole moment (field-independent basis, Debye):
    X=              7.4384    Y=             -0.2624    Z=              1.4255  Tot=              7.5783
 Quadrupole moment (field-independent basis, Debye-Ang):
   XX=           -213.7116   YY=           -138.8926   ZZ=           -138.5082
   XY=             31.5225   XZ=             11.6406   YZ=             -7.5318

 Summary of Natural Population Analysis:

                                       Natural Population
                Natural  -----------------------------------------------
    Atom  No    Charge         Core      Valence    Rydberg      Total
 -----------------------------------------------------------------------
      C    1   -0.28871      0.99967     2.28378    0.00526     3.28871
      C    2   -0.19085      0.99964     2.18262    0.00858     3.19085
      C    3   -0.20867      0.99965     2.19550    0.01352     3.20867
      C    4   -0.09231      0.99955     2.07797    0.01479     3.09231
      C    5   -0.19780      0.99964     2.18302    0.01513     3.19780
      C    6   -0.19210      0.99964     2.18512    0.00734     3.19210
      C    7   -0.29076      0.99966     2.28589    0.00520     3.29076
      C    8    0.28002      0.99967     1.69115    0.02916     2.71998
      O    9   -0.31547      0.99988     3.30837    0.00722     4.31547
      C   10   -0.09393      0.99944     2.08316    0.01133     3.09393
      C   11    0.14885      0.99961     1.83502    0.01652     2.85115
      N   12   -0.25075      0.99965     2.74291    0.00819     3.75075
      C   13    0.05970      0.99949     1.92802    0.01278     2.94030
      C   14   -0.04093      0.99952     2.02743    0.01399     3.04093
      C   15   -0.08604      0.99954     2.07846    0.00804     3.08604
      C   16   -0.10071      0.99955     2.09331    0.00785     3.10071
      C   17   -0.09748      0.99943     2.08708    0.01097     3.09748
      C   18   -0.03089      0.99950     2.02423    0.00717     3.03089
      C   19    0.15840      0.99964     1.82353    0.01843     2.84160
      N   20   -0.19661      0.99979     2.68554    0.01128     3.69661
      H   21    0.09723      0.00000     0.40125    0.00152     0.40277
      H   22    0.09459      0.00000     0.40433    0.00107     0.40541
      H   23    0.09545      0.00000     0.40335    0.00119     0.40455
      H   24    0.09279      0.00000     0.40557    0.00165     0.40721
      H   25    0.09266      0.00000     0.40612    0.00122     0.40734
      H   26    0.10302      0.00000     0.39553    0.00145     0.39698
      H   27    0.09702      0.00000     0.40145    0.00153     0.40298
      H   28    0.10191      0.00000     0.39630    0.00179     0.39809
      H   29    0.10712      0.00000     0.39159    0.00129     0.39288
      H   30    0.09077      0.00000     0.40740    0.00183     0.40923
      H   31    0.08993      0.00000     0.40892    0.00115     0.41007
      H   32    0.09016      0.00000     0.40853    0.00131     0.40984
      H   33    0.09847      0.00000     0.40045    0.00107     0.40153
      H   34    0.09136      0.00000     0.40769    0.00096     0.40864
      H   35    0.10900      0.00000     0.38960    0.00140     0.39100
      H   36    0.09772      0.00000     0.40115    0.00113     0.40228
      H   37    0.19157      0.00000     0.30691    0.00152     0.30843
      H   38    0.09656      0.00000     0.40180    0.00164     0.40344
      H   39    0.09775      0.00000     0.40133    0.00092     0.40225
      H   40    0.09570      0.00000     0.40335    0.00094     0.40430
 =======================================================================
   * Total *    0.00374     19.99218    51.74476    0.25933    71.99626

 Normal termination of Gaussian 16 at Sat Dec 12 17:56:42 2020.
