 Gaussian 16, Revision A.03,

 -----------------------------------------------------------
 # opt freq B3LYP/6-31G(d) empiricaldispersion=gd3bj scf=xqc
 -----------------------------------------------------------

 -------------------------------
 CID_152372723_JID_1449_neutraal
 -------------------------------
 Symbolic Z-matrix:
 Charge =  0 Multiplicity = 1

 SCF Done:  E(RB3LYP) =  -586.863761214     A.U. after   17 cycles
 SCF Done:  E(RB3LYP) =  -586.875105984     A.U. after   15 cycles
 SCF Done:  E(RB3LYP) =  -586.876775054     A.U. after   15 cycles
 SCF Done:  E(RB3LYP) =  -586.876522725     A.U. after   17 cycles
 SCF Done:  E(RB3LYP) =  -586.878866571     A.U. after   15 cycles
 SCF Done:  E(RB3LYP) =  -586.880512574     A.U. after   17 cycles
 SCF Done:  E(RB3LYP) =  -586.881973878     A.U. after   17 cycles
 SCF Done:  E(RB3LYP) =  -586.883322118     A.U. after   14 cycles
 SCF Done:  E(RB3LYP) =  -586.885471707     A.U. after   16 cycles
 SCF Done:  E(RB3LYP) =  -586.886276803     A.U. after   14 cycles
 SCF Done:  E(RB3LYP) =  -586.892370803     A.U. after    8 cycles
 SCF Done:  E(RB3LYP) =  -586.892370996     A.U. after    9 cycles
 SCF Done:  E(RB3LYP) =  -586.892371204     A.U. after   10 cycles
 SCF Done:  E(RB3LYP) =  -586.892371328     A.U. after    9 cycles
 SCF Done:  E(RB3LYP) =  -586.892371364     A.U. after    9 cycles
 SCF Done:  E(RB3LYP) =  -586.892371357     A.U. after    8 cycles
 Optimization completed.
    -- Stationary point found.
 Normal termination of Gaussian 16 at Tue Dec  8 20:09:10 2020.

 --------------------------------------------------------------------
 #N Geom=AllCheck Guess=TCheck SCRF=Check GenChk RB3LYP/6-31G(d) Freq
 --------------------------------------------------------------------

 Structure from the checkpoint file:  "JID_1449.chk"
 -------------------------------
 CID_152372723_JID_1449_neutraal
 -------------------------------
 Charge =  0 Multiplicity = 1

 SCF Done:  E(RB3LYP) =  -586.892371357     A.U. after    1 cycles

  Exact polarizability: 121.818   9.242  82.550   5.003   3.893  67.811
 Approx polarizability: 159.250  27.318 139.446   9.506  16.756 105.111

                      1                      2                      3
                      A                      A                      A
 Frequencies --     28.9953                39.2035                70.0594
 Red. masses --      7.1075                 7.3563                 4.0275
 Frc consts  --      0.0035                 0.0067                 0.0116
 IR Inten    --      0.3723                 0.6039                 0.7596

                      4                      5                      6
                      A                      A                      A
 Frequencies --     94.1707               133.4281               189.3594
 Red. masses --      2.7255                 3.5466                 7.2936
 Frc consts  --      0.0142                 0.0372                 0.1541
 IR Inten    --      0.9522                 1.6655                 2.0611

                      7                      8                      9
                      A                      A                      A
 Frequencies --    211.3167               233.1312               252.5295
 Red. masses --      1.3586                 1.1488                 2.1308
 Frc consts  --      0.0357                 0.0368                 0.0801
 IR Inten    --      1.0890                 0.4439                 1.8912

                     10                     11                     12
                      A                      A                      A
 Frequencies --    268.3955               288.6912               310.8340
 Red. masses --      1.1549                 2.3915                 3.9057
 Frc consts  --      0.0490                 0.1174                 0.2223
 IR Inten    --      0.2719                 0.8803                 4.4576

                     13                     14                     15
                      A                      A                      A
 Frequencies --    368.1778               401.4126               454.4616
 Red. masses --      2.5203                 3.1898                 4.4698
 Frc consts  --      0.2013                 0.3028                 0.5439
 IR Inten    --      0.6831                 0.6541                11.5859

                     16                     17                     18
                      A                      A                      A
 Frequencies --    473.6427               523.7246               552.7470
 Red. masses --      3.4511                 3.8174                 6.6180
 Frc consts  --      0.4562                 0.6169                 1.1913
 IR Inten    --      2.1560                 6.7196                 2.4955

                     19                     20                     21
                      A                      A                      A
 Frequencies --    582.2916               686.7327               747.2530
 Red. masses --      6.1222                12.3984                 4.3851
 Frc consts  --      1.2230                 3.4450                 1.4427
 IR Inten    --     12.5571                46.5496                23.4035

                     22                     23                     24
                      A                      A                      A
 Frequencies --    751.7054               800.4087               839.5900
 Red. masses --     11.3733                 1.4617                 1.9037
 Frc consts  --      3.7865                 0.5517                 0.7906
 IR Inten    --     17.0022                28.3564                26.8152

                     25                     26                     27
                      A                      A                      A
 Frequencies --    894.5318               927.3088               945.2458
 Red. masses --      9.2715                 2.3466                 1.5971
 Frc consts  --      4.3711                 1.1889                 0.8407
 IR Inten    --      9.3352                33.9189                 5.1452

                     28                     29                     30
                      A                      A                      A
 Frequencies --   1005.8952              1023.8497              1094.2025
 Red. masses --      1.9844                 1.3278                 3.2905
 Frc consts  --      1.1830                 0.8201                 2.3211
 IR Inten    --     21.1991                 2.3947               116.6570

                     31                     32                     33
                      A                      A                      A
 Frequencies --   1103.4605              1130.9271              1184.2583
 Red. masses --     11.0996                 2.1740                 1.8416
 Frc consts  --      7.9629                 1.6383                 1.5217
 IR Inten    --     72.4006                50.8097                70.6855

                     34                     35                     36
                      A                      A                      A
 Frequencies --   1210.6147              1277.9405              1284.6107
 Red. masses --      1.9313                 2.7526                 3.1024
 Frc consts  --      1.6676                 2.6486                 3.0164
 IR Inten    --     76.2610                39.2106               135.4983

                     37                     38                     39
                      A                      A                      A
 Frequencies --   1336.5933              1415.4145              1430.6676
 Red. masses --      1.1772                 1.2481                 1.3526
 Frc consts  --      1.2391                 1.4732                 1.6312
 IR Inten    --     18.3728                 3.6244                26.9569

                     40                     41                     42
                      A                      A                      A
 Frequencies --   1442.3583              1443.7073              1506.3657
 Red. masses --      1.2680                 1.2982                 1.0513
 Frc consts  --      1.5543                 1.5942                 1.4055
 IR Inten    --     21.5899                16.5070                 0.0858

                     43                     44                     45
                      A                      A                      A
 Frequencies --   1508.4850              1518.2144              1523.3962
 Red. masses --      1.0487                 1.0438                 1.0589
 Frc consts  --      1.4060                 1.4175                 1.4479
 IR Inten    --      1.4730                 2.0273                 3.2270

                     46                     47                     48
                      A                      A                      A
 Frequencies --   1529.3551              1537.2178              1552.0452
 Red. masses --      1.0545                 1.0486                 1.0795
 Frc consts  --      1.4532                 1.4599                 1.5321
 IR Inten    --      2.8558                 1.6537                 5.4723

                     49                     50                     51
                      A                      A                      A
 Frequencies --   2202.5257              3056.7420              3072.7894
 Red. masses --     14.0002                 1.0363                 1.0583
 Frc consts  --     40.0153                 5.7051                 5.8873
 IR Inten    --    375.7249                19.6835                23.4002

                     52                     53                     54
                      A                      A                      A
 Frequencies --   3075.4671              3080.9689              3113.1714
 Red. masses --      1.0377                 1.0372                 1.1050
 Frc consts  --      5.7831                 5.8005                 6.3101
 IR Inten    --     14.5977                 6.4977                 5.0219

                     55                     56                     57
                      A                      A                      A
 Frequencies --   3125.4027              3141.9010              3149.3810
 Red. masses --      1.0998                 1.1049                 1.1022
 Frc consts  --      6.3293                 6.4262                 6.4409
 IR Inten    --     31.4625                44.0415                 8.0566

                     58                     59                     60
                      A                      A                      A
 Frequencies --   3153.1853              3164.9396              3169.7733
 Red. masses --      1.1027                 1.1027                 1.1028
 Frc consts  --      6.4594                 6.5077                 6.5284
 IR Inten    --     29.3234                 8.4385                16.8587

 - Thermochemistry -
 -------------------
 Temperature   298.150 Kelvin.  Pressure   1.00000 Atm.
 Atom     1 has atomic number  6 and mass  12.00000

 Molecular mass:   161.08004 amu.
 Principal axes and moments of inertia in atomic units:
                           1         2         3
     Eigenvalues --   781.927983255.898493449.61523
           X            0.99986  -0.01312   0.01025
           Y            0.01359   0.99882  -0.04656
           Z           -0.00963   0.04669   0.99886
 This molecule is an asymmetric top.
 Rotational symmetry number  1.
 Warning -- assumption of classical behavior for rotation
           may cause significant error
 Rotational temperatures (Kelvin)      0.11077     0.02660     0.02511
 Rotational constants (GHZ):           2.30807     0.55430     0.52317
 Zero-point vibrational energy     458380.1 (Joules/Mol)
                                  109.55548 (Kcal/Mol)
 Warning -- explicit consideration of  19 degrees of freedom as
           vibrations may cause significant error
 Vibrational temperatures:     41.72    56.41   100.80   135.49   191.97
          (Kelvin)            272.45   304.04   335.42   363.33   386.16
                              415.36   447.22   529.73   577.54   653.87
                              681.47   753.52   795.28   837.79   988.06
                             1075.13  1081.54  1151.61  1207.98  1287.03
                             1334.19  1360.00  1447.26  1473.09  1574.31
                             1587.63  1627.15  1703.88  1741.80  1838.67
                             1848.27  1923.06  2036.47  2058.41  2075.23
                             2077.17  2167.32  2170.37  2184.37  2191.83
                             2200.40  2211.71  2233.05  3168.94  4397.97
                             4421.06  4424.91  4432.83  4479.16  4496.76
                             4520.49  4531.26  4536.73  4553.64  4560.60

 Zero-point correction=                           0.174588 (Hartree/Particle)
 Thermal correction to Energy=                    0.187374
 Thermal correction to Enthalpy=                  0.188318
 Thermal correction to Gibbs Free Energy=         0.134525
 Sum of electronic and zero-point Energies=           -586.717784
 Sum of electronic and thermal Energies=              -586.704997
 Sum of electronic and thermal Enthalpies=            -586.704053
 Sum of electronic and thermal Free Energies=         -586.757847

                     E (Thermal)             CV                S
                      KCal/Mol        Cal/Mol-Kelvin    Cal/Mol-Kelvin
 Total                  117.579             45.384            113.219
 Electronic               0.000              0.000              0.000
 Translational            0.889              2.981             41.139
 Rotational               0.889              2.981             30.552
 Vibrational            115.802             39.423             41.527
 Vibration     1          0.593              1.984              5.897
 Vibration     2          0.594              1.981              5.299
 Vibration     3          0.598              1.968              4.152
 Vibration     4          0.603              1.953              3.572
 Vibration     5          0.613              1.920              2.896
 Vibration     6          0.633              1.855              2.234
 Vibration     7          0.643              1.824              2.032
 Vibration     8          0.654              1.790              1.855
 Vibration     9          0.664              1.759              1.713
 Vibration    10          0.673              1.731              1.607
 Vibration    11          0.685              1.695              1.482
 Vibration    12          0.700              1.653              1.358
 Vibration    13          0.741              1.538              1.087
 Vibration    14          0.767              1.467              0.957
 Vibration    15          0.813              1.351              0.782
 Vibration    16          0.830              1.309              0.727
 Vibration    17          0.879              1.197              0.601
 Vibration    18          0.908              1.134              0.539
 Vibration    19          0.939              1.070              0.481

 Optimization completed.
    -- Stationary point found.
 Normal termination of Gaussian 16 at Tue Dec  8 20:13:25 2020.

 ----------------------------------------------------------------------
 # B3LYP/6-311++G(d,p) empiricaldispersion=gd3bj scf=xqc pop=npa geom=c
 heck
 ----------------------------------------------------------------------

 ---------------------------------------
 CID_152372723_JID_1449_Energie_neutraal
 ---------------------------------------
 Structure from the checkpoint file:  "JID_1449.chk"
 Charge =  0 Multiplicity = 1

 SCF Done:  E(RB3LYP) =  -587.064310060     A.U. after   16 cycles
 Normal termination of Gaussian 16 at Tue Dec  8 20:15:41 2020.

 ----------------------------------------------------------------------
 # B3LYP/6-311++G(d,p) empiricaldispersion=gd3bj scf=xqc pop=npa geom=c
 heck
 ----------------------------------------------------------------------

 -------------------------------------
 CID_152372723_JID_1449_Energie_kation
 -------------------------------------
 Structure from the checkpoint file:  "JID_1449.chk"
 Charge =  1 Multiplicity = 2

 SCF Done:  E(UB3LYP) =  -586.716832808     A.U. after   28 cycles
 Normal termination of Gaussian 16 at Tue Dec  8 20:21:13 2020.
 Gaussian 16:  ES64L-G16RevA.03 25-Dec-2016

 ----------------------------------------------------------------------
 # B3LYP/6-311++G(d,p) empiricaldispersion=gd3bj scf=xqc pop=npa geom=c
 heck
 ----------------------------------------------------------------------

 ------------------------------------
 CID_152372723_JID_1449_Energie_anion
 ------------------------------------
 Structure from the checkpoint file:  "JID_1449.chk"
 Charge = -1 Multiplicity = 2

                         Standard orientation:
 ---------------------------------------------------------------------
 Center     Atomic      Atomic             Coordinates (Angstroms)
 Number     Number       Type             X           Y           Z
 ---------------------------------------------------------------------
      1          6           0        3.755461   -0.739200    0.181372
      2          6           0        2.323068   -1.202571   -0.043674
      3          8           0        1.593806   -0.254687   -0.841871
      4          6           0        0.639254    0.550261   -0.215409
      5          6           0        1.148132    1.308108    1.007967
      6          6           0        0.089400    1.472210   -1.293533
      7          8           0       -0.376374   -0.438452    0.178821
      8          8           0       -1.378138    0.172340    1.048446
      9          7           0       -2.498296    0.571066    0.255551
     10          7           0       -3.164826   -0.467138   -0.030271
     11          7           0       -3.854527   -1.296676   -0.387589
     12          1           0        4.238879   -0.523527   -0.776869
     13          1           0        4.331420   -1.521287    0.689983
     14          1           0        3.792833    0.166685    0.794115
     15          1           0        2.310351   -2.137803   -0.612903
     16          1           0        1.801938   -1.390248    0.899345
     17          1           0        1.971860    1.961452    0.706500
     18          1           0        0.350300    1.919758    1.432844
     19          1           0        1.501140    0.624265    1.783936
     20          1           0       -0.263857    0.872610   -2.135724
     21          1           0       -0.739006    2.069099   -0.906376
     22          1           0        0.881444    2.141778   -1.642196
 ---------------------------------------------------------------------

 SCF Done:  E(UB3LYP) =  -587.078078504     A.U. after   30 cycles

 The electronic state is 2-A.
 Alpha  occ. eigenvalues --  -19.03964 -19.02000 -19.01609 -14.25596 -14.21159
 Alpha  occ. eigenvalues --  -14.18079 -10.15594 -10.11247 -10.06494 -10.04817
 Alpha  occ. eigenvalues --  -10.03831  -0.99338  -0.94567  -0.91982  -0.81184
 Alpha  occ. eigenvalues --   -0.70718  -0.66311  -0.63462  -0.58299  -0.52658
 Alpha  occ. eigenvalues --   -0.46249  -0.41292  -0.38545  -0.37455  -0.35665
 Alpha  occ. eigenvalues --   -0.33713  -0.32389  -0.31647  -0.31217  -0.29593
 Alpha  occ. eigenvalues --   -0.28241  -0.27888  -0.27516  -0.27001  -0.25824
 Alpha  occ. eigenvalues --   -0.24664  -0.24214  -0.22007  -0.19471  -0.16952
 Alpha  occ. eigenvalues --   -0.14463  -0.11744  -0.08331   0.05038
 Alpha virt. eigenvalues --    0.06541   0.08680   0.09499   0.10091   0.11158
 Alpha virt. eigenvalues --    0.12154   0.12217   0.12880   0.14567   0.14795
 Alpha virt. eigenvalues --    0.15502   0.16273   0.17009   0.17702   0.18319

  Beta  occ. eigenvalues --  -19.03543 -19.01929 -19.01591 -14.25085 -14.21174
  Beta  occ. eigenvalues --  -14.17198 -10.15597 -10.11246 -10.06476 -10.04800
  Beta  occ. eigenvalues --  -10.03822  -0.98690  -0.94119  -0.91229  -0.80681
  Beta  occ. eigenvalues --   -0.70069  -0.66092  -0.63415  -0.58271  -0.52623
  Beta  occ. eigenvalues --   -0.46021  -0.40982  -0.38417  -0.37408  -0.35190
  Beta  occ. eigenvalues --   -0.32971  -0.31529  -0.31278  -0.30621  -0.29418
  Beta  occ. eigenvalues --   -0.28011  -0.27514  -0.27325  -0.25859  -0.25549
  Beta  occ. eigenvalues --   -0.24257  -0.23975  -0.21473  -0.18180  -0.16838
  Beta  occ. eigenvalues --   -0.14185  -0.11254  -0.07994
  Beta virt. eigenvalues --    0.06845   0.08772   0.09551   0.10012   0.11136
  Beta virt. eigenvalues --    0.12052   0.12241   0.12832   0.13767   0.14530
  Beta virt. eigenvalues --    0.15073   0.15947   0.16238   0.16994   0.17642

 Mulliken charges and spin densities:
               1          2
     1  C    0.261637  -0.673577
     2  C   -0.395257   0.282756
     3  O   -0.033799   0.008575
     4  C   -0.769476   0.360862
     5  C    0.117067  -0.513598
     6  C   -0.174769  -0.305144
     7  O   -0.128644   0.029422
     8  O    0.103368   0.011361
     9  N   -0.732683   0.264267
    10  N    0.373463   0.000628
    11  N   -0.227472   0.438966
    12  H    0.038684   0.100437
    13  H   -0.120943   0.235689
    14  H   -0.089606   0.223472
    15  H    0.103594   0.044135
    16  H    0.215698  -0.030160
    17  H    0.001434   0.141985
    18  H    0.093533   0.100647
    19  H    0.008499   0.152793
    20  H    0.145574   0.036915
    21  H    0.133494   0.048669
    22  H    0.076604   0.040902
 Sum of Mulliken charges =  -1.00000   1.00000

 Dipole moment (field-independent basis, Debye):
    X=              6.2482    Y=              1.5525    Z=             -0.2717  Tot=              6.4439
 Quadrupole moment (field-independent basis, Debye-Ang):
   XX=           -125.3569   YY=            -81.8654   ZZ=            -79.5863
   XY=             -7.6648   XZ=             -2.1499   YZ=             -2.2144

 Summary of Natural Population Analysis:

                                       Natural Population
                Natural  -----------------------------------------------
    Atom  No    Charge         Core      Valence    Rydberg      Total
 -----------------------------------------------------------------------
      C    1   -0.29838      0.99966     2.29377    0.00495     3.29838
      C    2   -0.01614      0.99958     2.00330    0.01326     3.01614
      O    3   -0.30650      0.99985     3.29606    0.01059     4.30650
      C    4    0.29027      0.99958     1.68919    0.02096     2.70973
      C    5   -0.31584      0.99959     2.30976    0.00649     3.31584
      C    6   -0.30058      0.99959     2.29454    0.00644     3.30058
      O    7   -0.18780      0.99988     3.17891    0.00901     4.18780
      O    8   -0.07182      0.99993     3.06135    0.01053     4.07182
      N    9   -0.10977      0.99975     2.59230    0.01772     3.60977
      N   10    0.13506      0.99971     2.34808    0.01714     3.36494
      N   11    0.08209      0.99981     2.40468    0.01342     3.41791
      H   12    0.09815      0.00000     0.40069    0.00116     0.40185
      H   13    0.09576      0.00000     0.40322    0.00102     0.40424
      H   14    0.09899      0.00000     0.39980    0.00121     0.40101
      H   15    0.08543      0.00000     0.41354    0.00103     0.41457
      H   16    0.09192      0.00000     0.40646    0.00161     0.40808
      H   17    0.09784      0.00000     0.40121    0.00095     0.40216
      H   18    0.11469      0.00000     0.38392    0.00139     0.38531
      H   19    0.10154      0.00000     0.39727    0.00119     0.39846
      H   20    0.10792      0.00000     0.39097    0.00111     0.39208
      H   21    0.11367      0.00000     0.38505    0.00128     0.38633
      H   22    0.09350      0.00000     0.40538    0.00111     0.40650
 =======================================================================
   * Total *   -0.00000     10.99694    31.85946    0.14360    43.00000

 Normal termination of Gaussian 16 at Tue Dec  8 20:26:48 2020.
