 Gaussian 16, Revision A.03,

 -----------------------------------------------------------
 # opt freq B3LYP/6-31G(d) empiricaldispersion=gd3bj scf=xqc
 -----------------------------------------------------------

 -------------------------------
 CID_114122394_JID_7361_neutraal
 -------------------------------
 Symbolic Z-matrix:
 Charge =  0 Multiplicity = 1

 SCF Done:  E(RB3LYP) =  -1054.51867723     A.U. after   14 cycles
 SCF Done:  E(RB3LYP) =  -1054.52297288     A.U. after   12 cycles
 SCF Done:  E(RB3LYP) =  -1054.52289510     A.U. after   12 cycles
 SCF Done:  E(RB3LYP) =  -1054.52359554     A.U. after   12 cycles
 SCF Done:  E(RB3LYP) =  -1054.52372507     A.U. after   12 cycles
 SCF Done:  E(RB3LYP) =  -1054.52386845     A.U. after   11 cycles
 SCF Done:  E(RB3LYP) =  -1054.52388753     A.U. after   10 cycles
 SCF Done:  E(RB3LYP) =  -1054.52390318     A.U. after   10 cycles
 SCF Done:  E(RB3LYP) =  -1054.52391465     A.U. after   10 cycles
 SCF Done:  E(RB3LYP) =  -1054.52393731     A.U. after   11 cycles
 SCF Done:  E(RB3LYP) =  -1054.52402562     A.U. after   11 cycles
 SCF Done:  E(RB3LYP) =  -1054.52403241     A.U. after   10 cycles
 SCF Done:  E(RB3LYP) =  -1054.52403490     A.U. after   10 cycles
 SCF Done:  E(RB3LYP) =  -1054.52403502     A.U. after    8 cycles
 SCF Done:  E(RB3LYP) =  -1054.52403507     A.U. after    7 cycles
 Optimization completed.
    -- Stationary point found.
 Normal termination of Gaussian 16 at Fri Dec 11 12:22:01 2020.

 --------------------------------------------------------------------
 #N Geom=AllCheck Guess=TCheck SCRF=Check GenChk RB3LYP/6-31G(d) Freq
 --------------------------------------------------------------------

 Structure from the checkpoint file:  "JID_7361.chk"
 -------------------------------
 CID_114122394_JID_7361_neutraal
 -------------------------------
 Charge =  0 Multiplicity = 1

 SCF Done:  E(RB3LYP) =  -1054.52403507     A.U. after    1 cycles

  Exact polarizability: 225.472  -0.774 162.663   4.134 -21.077 145.109
 Approx polarizability: 299.205  -2.101 244.732   5.653 -53.235 239.997

                      1                      2                      3
                      A                      A                      A
 Frequencies --     18.9035                42.8505                49.9081
 Red. masses --      4.0428                 1.0441                 4.2990
 Frc consts  --      0.0009                 0.0011                 0.0063
 IR Inten    --      0.3030                 0.1670                 0.2412

                      4                      5                      6
                      A                      A                      A
 Frequencies --     66.2686                92.7662               107.3857
 Red. masses --      2.9649                 3.3994                 3.3018
 Frc consts  --      0.0077                 0.0172                 0.0224
 IR Inten    --      1.7755                 1.8657                 0.8730

                      7                      8                      9
                      A                      A                      A
 Frequencies --    137.1806               148.5868               196.2710
 Red. masses --      3.5027                 4.6359                 1.4537
 Frc consts  --      0.0388                 0.0603                 0.0330
 IR Inten    --      1.1176                 0.2516                 2.5610

                     10                     11                     12
                      A                      A                      A
 Frequencies --    201.9042               221.4818               225.2099
 Red. masses --      1.5867                 3.0865                 3.0178
 Frc consts  --      0.0381                 0.0892                 0.0902
 IR Inten    --      1.6165                 0.5578                 4.8944

                     13                     14                     15
                      A                      A                      A
 Frequencies --    260.9971               295.1839               307.3879
 Red. masses --      2.8078                 2.7816                 3.3807
 Frc consts  --      0.1127                 0.1428                 0.1882
 IR Inten    --      8.6472                 1.6933                 0.4626

                     16                     17                     18
                      A                      A                      A
 Frequencies --    327.3220               337.0292               358.0449
 Red. masses --      2.0462                 2.1166                 4.8503
 Frc consts  --      0.1292                 0.1417                 0.3663
 IR Inten    --      1.6994                 1.9225                 0.5020

                     19                     20                     21
                      A                      A                      A
 Frequencies --    372.9352               411.5185               453.9613
 Red. masses --      2.0725                 2.5351                 2.8337
 Frc consts  --      0.1698                 0.2529                 0.3441
 IR Inten    --      9.2680                 3.8459                10.5939

                     22                     23                     24
                      A                      A                      A
 Frequencies --    472.2766               489.3363               501.8757
 Red. masses --      3.7094                 2.1648                 3.3677
 Frc consts  --      0.4875                 0.3054                 0.4998
 IR Inten    --      5.6583                 1.4381                 0.3983

                     25                     26                     27
                      A                      A                      A
 Frequencies --    558.9749               594.1231               595.4041
 Red. masses --      3.3977                 3.2119                 3.7175
 Frc consts  --      0.6255                 0.6680                 0.7765
 IR Inten    --      4.5850                10.6013                18.6456

                     28                     29                     30
                      A                      A                      A
 Frequencies --    620.4750               693.8244               703.4791
 Red. masses --      2.7272                 4.3775                 2.5894
 Frc consts  --      0.6186                 1.2416                 0.7550
 IR Inten    --     24.8600                 4.3482                17.2611

                     31                     32                     33
                      A                      A                      A
 Frequencies --    728.7872               748.0938               756.1779
 Red. masses --      3.1296                 3.4193                 2.8159
 Frc consts  --      0.9794                 1.1274                 0.9487
 IR Inten    --     25.5007                11.7960                13.8012

                     34                     35                     36
                      A                      A                      A
 Frequencies --    810.2749               813.2034               829.4785
 Red. masses --      1.8254                 1.3521                 3.2657
 Frc consts  --      0.7061                 0.5268                 1.3238
 IR Inten    --     97.8872                57.8567                 8.1135

                     37                     38                     39
                      A                      A                      A
 Frequencies --    833.1445               868.0344               875.1950
 Red. masses --      1.6237                 1.5097                 2.0734
 Frc consts  --      0.6641                 0.6702                 0.9357
 IR Inten    --     75.7732                45.5692                18.2019

                     40                     41                     42
                      A                      A                      A
 Frequencies --    890.6130               910.1606               918.1752
 Red. masses --      2.3797                 2.1395                 1.4003
 Frc consts  --      1.1121                 1.0442                 0.6955
 IR Inten    --     11.9322                 3.0575                 2.3326

                     43                     44                     45
                      A                      A                      A
 Frequencies --    933.9938               971.5301               992.0475
 Red. masses --      1.5577                 2.7120                 1.2692
 Frc consts  --      0.8006                 1.5082                 0.7359
 IR Inten    --      2.2795                 3.8313                 7.4545

                     46                     47                     48
                      A                      A                      A
 Frequencies --   1008.3258              1011.5577              1029.3241
 Red. masses --      1.5768                 1.5348                 1.7429
 Frc consts  --      0.9446                 0.9253                 1.0880
 IR Inten    --      3.3806                17.3016                10.9871

                     49                     50                     51
                      A                      A                      A
 Frequencies --   1037.5548              1062.8818              1074.5223
 Red. masses --      1.9233                 1.6401                 1.4770
 Frc consts  --      1.2199                 1.0916                 1.0047
 IR Inten    --      9.3122                 0.8144                 3.5794

                     52                     53                     54
                      A                      A                      A
 Frequencies --   1091.5358              1103.4526              1130.1591
 Red. masses --      1.9678                 1.6866                 1.6423
 Frc consts  --      1.3813                 1.2099                 1.2359
 IR Inten    --      0.5416                 3.9624                 3.1248

                     55                     56                     57
                      A                      A                      A
 Frequencies --   1163.3800              1173.2464              1190.2455
 Red. masses --      1.9291                 1.5824                 1.2817
 Frc consts  --      1.5383                 1.2833                 1.0698
 IR Inten    --      5.8820                 6.0276                12.4034

                     58                     59                     60
                      A                      A                      A
 Frequencies --   1200.4459              1234.2111              1267.6440
 Red. masses --      1.9410                 1.5285                 1.2191
 Frc consts  --      1.6480                 1.3718                 1.1542
 IR Inten    --      3.5708                 1.8609                 6.0885

                     61                     62                     63
                      A                      A                      A
 Frequencies --   1272.8451              1294.5256              1314.3922
 Red. masses --      2.2848                 1.3046                 1.3636
 Frc consts  --      2.1810                 1.2881                 1.3880
 IR Inten    --     45.5914                 0.5792                 6.8223

                     64                     65                     66
                      A                      A                      A
 Frequencies --   1325.6870              1338.1980              1346.5321
 Red. masses --      2.8010                 1.5318                 1.2834
 Frc consts  --      2.9003                 1.6162                 1.3710
 IR Inten    --     53.6379                66.8203                 0.2181

                     67                     68                     69
                      A                      A                      A
 Frequencies --   1354.4481              1382.6686              1385.8365
 Red. masses --      1.3946                 1.4238                 1.3800
 Frc consts  --      1.5074                 1.6038                 1.5615
 IR Inten    --      4.2418                 7.3869                 6.3106

                     70                     71                     72
                      A                      A                      A
 Frequencies --   1395.4809              1399.3815              1404.6545
 Red. masses --      3.2592                 1.2596                 1.3062
 Frc consts  --      3.7395                 1.4533                 1.5185
 IR Inten    --      9.9126                 2.0051                 0.8441

                     73                     74                     75
                      A                      A                      A
 Frequencies --   1415.4846              1425.1740              1443.1459
 Red. masses --      1.5312                 1.4211                 1.2493
 Frc consts  --      1.8076                 1.7007                 1.5330
 IR Inten    --      1.1174                32.7159                 0.5350

                     76                     77                     78
                      A                      A                      A
 Frequencies --   1483.4272              1503.0750              1510.1751
 Red. masses --      2.9622                 1.0939                 1.1227
 Frc consts  --      3.8406                 1.4561                 1.5086
 IR Inten    --      8.1535                 3.6077                11.3532

                     79                     80                     81
                      A                      A                      A
 Frequencies --   1513.3746              1514.6750              1515.4088
 Red. masses --      1.1447                 1.0965                 1.0449
 Frc consts  --      1.5446                 1.4821                 1.4137
 IR Inten    --     12.0057                 6.9324                 5.3071

                     82                     83                     84
                      A                      A                      A
 Frequencies --   1518.4315              1521.6780              1531.8370
 Red. masses --      1.1174                 1.0797                 1.1219
 Frc consts  --      1.5180                 1.4730                 1.5511
 IR Inten    --     27.2134                 4.7967                12.6161

                     85                     86                     87
                      A                      A                      A
 Frequencies --   1534.5265              1569.0341              1644.4600
 Red. masses --      1.1797                 3.0071                 3.4454
 Frc consts  --      1.6367                 4.3617                 5.4895
 IR Inten    --      8.9747               174.0922                 3.3862

                     88                     89                     90
                      A                      A                      A
 Frequencies --   1663.8415              1691.5074              2980.3356
 Red. masses --      1.9088                 2.3668                 1.0831
 Frc consts  --      3.1134                 3.9899                 5.6683
 IR Inten    --     20.3562                57.4718                34.3270

                     91                     92                     93
                      A                      A                      A
 Frequencies --   3025.5008              3037.0442              3038.9842
 Red. masses --      1.0657                 1.0379                 1.0702
 Frc consts  --      5.7473                 5.6406                 5.8235
 IR Inten    --     31.6801                58.7105                25.1895

                     94                     95                     96
                      A                      A                      A
 Frequencies --   3051.5419              3056.9946              3062.6661
 Red. masses --      1.0633                 1.0610                 1.0433
 Frc consts  --      5.8337                 5.8420                 5.7661
 IR Inten    --     17.6636                13.5254                 5.9612

                     97                     98                     99
                      A                      A                      A
 Frequencies --   3063.5281              3075.8660              3085.3882
 Red. masses --      1.0733                 1.0918                 1.1009
 Frc consts  --      5.9349                 6.0857                 6.1748
 IR Inten    --     30.5747                59.3880                26.5140

                    100                    101                    102
                      A                      A                      A
 Frequencies --   3092.5998              3104.2287              3108.3429
 Red. masses --      1.1029                 1.1029                 1.0957
 Frc consts  --      6.2149                 6.2618                 6.2372
 IR Inten    --     36.2520                36.9200                55.7903

                    103                    104                    105
                      A                      A                      A
 Frequencies --   3121.5477              3141.7155              3156.8315
 Red. masses --      1.0999                 1.1044                 1.0895
 Frc consts  --      6.3148                 6.4226                 6.3973
 IR Inten    --     18.8030                 7.9264                26.3996

                    106                    107                    108
                      A                      A                      A
 Frequencies --   3158.7162              3183.5502              3219.3734
 Red. masses --      1.1051                 1.0887                 1.0912
 Frc consts  --      6.4964                 6.5009                 6.6632
 IR Inten    --      7.6722                22.1058                15.6565

                    109                    110                    111
                      A                      A                      A
 Frequencies --   3489.3502              3531.4522              3603.2030
 Red. masses --      1.0506                 1.0724                 1.0935
 Frc consts  --      7.5369                 7.8800                 8.3647
 IR Inten    --      4.2298                26.4807                 8.2469

 - Thermochemistry -
 -------------------
 Temperature   298.150 Kelvin.  Pressure   1.00000 Atm.
 Atom     1 has atomic number  6 and mass  12.00000

 Molecular mass:   250.15037 amu.
 Principal axes and moments of inertia in atomic units:
                           1         2         3
     Eigenvalues --  2558.461907432.937558411.53620
           X            0.99991   0.00835   0.01088
           Y           -0.00788   0.99908  -0.04227
           Z           -0.01122   0.04218   0.99905
 This molecule is an asymmetric top.
 Rotational symmetry number  1.
 Warning -- assumption of classical behavior for rotation
           may cause significant error
 Rotational temperatures (Kelvin)      0.03385     0.01165     0.01030
 Rotational constants (GHZ):           0.70540     0.24280     0.21456
 Zero-point vibrational energy     903915.9 (Joules/Mol)
                                  216.04107 (Kcal/Mol)
 Warning -- explicit consideration of  28 degrees of freedom as
           vibrations may cause significant error
 Vibrational temperatures:     27.20    61.65    71.81    95.35   133.47
          (Kelvin)            154.50   197.37   213.78   282.39   290.50
                              318.66   324.03   375.52   424.70   442.26
                              470.94   484.91   515.15   536.57   592.08
                              653.15   679.50   704.05   722.09   804.24
                              854.81   856.65   892.73   998.26  1012.15
                             1048.56  1076.34  1087.97  1165.80  1170.02
                             1193.43  1198.71  1248.91  1259.21  1281.39
                             1309.52  1321.05  1343.81  1397.82  1427.34
                             1450.76  1455.41  1480.97  1492.81  1529.25
                             1546.00  1570.48  1587.62  1626.05  1673.84
                             1688.04  1712.50  1727.17  1775.75  1823.86
                             1831.34  1862.53  1891.12  1907.37  1925.37
                             1937.36  1948.75  1989.35  1993.91  2007.79
                             2013.40  2020.98  2036.57  2050.51  2076.37
                             2134.32  2162.59  2172.81  2177.41  2179.28
                             2180.34  2184.68  2189.36  2203.97  2207.84
                             2257.49  2366.01  2393.90  2433.70  4288.04
                             4353.02  4369.63  4372.42  4390.49  4398.33
                             4406.49  4407.73  4425.49  4439.19  4449.56
                             4466.29  4472.21  4491.21  4520.23  4541.98
                             4544.69  4580.42  4631.96  5020.40  5080.97
                             5184.21

 Zero-point correction=                           0.344283 (Hartree/Particle)
 Thermal correction to Energy=                    0.361899
 Thermal correction to Enthalpy=                  0.362843
 Thermal correction to Gibbs Free Energy=         0.297843
 Sum of electronic and zero-point Energies=          -1054.179752
 Sum of electronic and thermal Energies=             -1054.162136
 Sum of electronic and thermal Enthalpies=           -1054.161192
 Sum of electronic and thermal Free Energies=        -1054.226192

                     E (Thermal)             CV                S
                      KCal/Mol        Cal/Mol-Kelvin    Cal/Mol-Kelvin
 Total                  227.095             68.047            136.805
 Electronic               0.000              0.000              0.000
 Translational            0.889              2.981             42.451
 Rotational               0.889              2.981             33.436
 Vibrational            225.318             62.086             60.918
 Vibration     1          0.593              1.986              6.746
 Vibration     2          0.595              1.980              5.123
 Vibration     3          0.595              1.978              4.821
 Vibration     4          0.598              1.970              4.261
 Vibration     5          0.602              1.954              3.601
 Vibration     6          0.606              1.943              3.316
 Vibration     7          0.614              1.916              2.843
 Vibration     8          0.618              1.904              2.690
 Vibration     9          0.636              1.845              2.168
 Vibration    10          0.639              1.837              2.116
 Vibration    11          0.648              1.808              1.947
 Vibration    12          0.650              1.803              1.917
 Vibration    13          0.669              1.744              1.655
 Vibration    14          0.689              1.683              1.444
 Vibration    15          0.697              1.660              1.376
 Vibration    16          0.711              1.621              1.273
 Vibration    17          0.718              1.602              1.226
 Vibration    18          0.733              1.559              1.131
 Vibration    19          0.744              1.528              1.068
 Vibration    20          0.775              1.445              0.921
 Vibration    21          0.812              1.352              0.784
 Vibration    22          0.829              1.312              0.731
 Vibration    23          0.845              1.274              0.685
 Vibration    24          0.857              1.246              0.653
 Vibration    25          0.915              1.120              0.526
 Vibration    26          0.952              1.044              0.460
 Vibration    27          0.953              1.042              0.458
 Vibration    28          0.981              0.989              0.416

 Optimization completed.
    -- Stationary point found.
 Normal termination of Gaussian 16 at Fri Dec 11 12:42:13 2020.

 ----------------------------------------------------------------------
 # B3LYP/6-311++G(d,p) empiricaldispersion=gd3bj scf=xqc pop=npa geom=c
 heck
 ----------------------------------------------------------------------

 ---------------------------------------
 CID_114122394_JID_7361_Energie_neutraal
 ---------------------------------------
 Structure from the checkpoint file:  "JID_7361.chk"
 Charge =  0 Multiplicity = 1

 SCF Done:  E(RB3LYP) =  -1054.73289448     A.U. after   16 cycles
 Normal termination of Gaussian 16 at Fri Dec 11 12:52:58 2020.

 ----------------------------------------------------------------------
 # B3LYP/6-311++G(d,p) empiricaldispersion=gd3bj scf=xqc pop=npa geom=c
 heck
 ----------------------------------------------------------------------

 -------------------------------------
 CID_114122394_JID_7361_Energie_kation
 -------------------------------------
 Structure from the checkpoint file:  "JID_7361.chk"
 Charge =  1 Multiplicity = 2

 SCF Done:  E(UB3LYP) =  -1054.47885100     A.U. after   24 cycles
 Normal termination of Gaussian 16 at Fri Dec 11 13:15:37 2020.
 Gaussian 16:  ES64L-G16RevA.03 25-Dec-2016

 ----------------------------------------------------------------------
 # B3LYP/6-311++G(d,p) empiricaldispersion=gd3bj scf=xqc pop=npa geom=c
 heck
 ----------------------------------------------------------------------

 ------------------------------------
 CID_114122394_JID_7361_Energie_anion
 ------------------------------------
 Structure from the checkpoint file:  "JID_7361.chk"
 Charge = -1 Multiplicity = 2

                         Standard orientation:
 ---------------------------------------------------------------------
 Center     Atomic      Atomic             Coordinates (Angstroms)
 Number     Number       Type             X           Y           Z
 ---------------------------------------------------------------------
      1          6           0       -5.537874    0.032276   -0.266350
      2          6           0       -4.030243    0.050461   -0.194288
      3          6           0       -3.356052   -0.749899    0.740591
      4          6           0       -1.967810   -0.751303    0.829511
      5          6           0       -1.203926    0.058782   -0.047108
      6          6           0       -1.872483    0.859664   -0.971147
      7          6           0       -3.270534    0.859271   -1.037016
      8          7           0        0.195538   -0.027372    0.109231
      9          6           0        1.088710    0.715896   -0.771233
     10          6           0        1.126796    2.208657   -0.383232
     11          6           0        1.749225    2.432756    0.998736
     12          6           0        3.157219    1.832950    1.074331
     13          6           0        3.144783    0.341771    0.707389
     14          6           0        2.512524    0.127914   -0.672215
     15         16           0        2.617239   -1.623545   -1.279878
     16          6           0        2.481842   -2.662812    0.223300
     17          7           0       -1.258961   -1.576252    1.727966
     18          1           0       -5.916411   -0.961303   -0.538745
     19          1           0       -5.992208    0.294875    0.697506
     20          1           0       -5.906783    0.743315   -1.012188
     21          1           0       -3.928071   -1.379088    1.421231
     22          1           0       -1.310055    1.478393   -1.661138
     23          1           0       -3.767654    1.492813   -1.766883
     24          1           0        0.458841   -1.008302    0.137636
     25          1           0        0.766391    0.626752   -1.821595
     26          1           0        1.709798    2.744028   -1.145634
     27          1           0        0.114388    2.622715   -0.410851
     28          1           0        1.110741    1.962106    1.755968
     29          1           0        1.779222    3.505428    1.224347
     30          1           0        3.578970    1.962338    2.078702
     31          1           0        3.821904    2.369988    0.382109
     32          1           0        2.571825   -0.204521    1.464850
     33          1           0        4.162368   -0.064945    0.710554
     34          1           0        3.121401    0.661961   -1.411321
     35          1           0        3.251219   -2.412808    0.956869
     36          1           0        1.494699   -2.627149    0.694070
     37          1           0        2.654344   -3.684607   -0.125083
     38          1           0       -1.854302   -1.984094    2.440957
     39          1           0       -0.485543   -1.074114    2.158696
 ---------------------------------------------------------------------

 SCF Done:  E(UB3LYP) =  -1054.72150590     A.U. after   33 cycles
 SCF Done:  E(UB3LYP) =  -1054.72150590     a.u. after    1 cycles

 The electronic state is 2-A.
 Alpha  occ. eigenvalues --  -88.74506 -14.22031 -14.21474 -10.11691 -10.11518
 Alpha  occ. eigenvalues --  -10.11032 -10.10815 -10.09772 -10.08160 -10.08034
 Alpha  occ. eigenvalues --  -10.07710 -10.07584 -10.07375 -10.07318 -10.06982
 Alpha  occ. eigenvalues --  -10.06966 -10.06858  -7.83104  -5.79514  -5.79127
 Alpha  occ. eigenvalues --   -5.78469  -0.85150  -0.80689  -0.74959  -0.73705
 Alpha  occ. eigenvalues --   -0.69438  -0.67000  -0.64877  -0.63978  -0.63176
 Alpha  occ. eigenvalues --   -0.58529  -0.55625  -0.53005  -0.51115  -0.49448
 Alpha  occ. eigenvalues --   -0.48569  -0.45713  -0.43392  -0.41459  -0.39799
 Alpha  occ. eigenvalues --   -0.38408  -0.37738  -0.35849  -0.35561  -0.34945
 Alpha  occ. eigenvalues --   -0.33622  -0.33185  -0.33172  -0.32815  -0.32236
 Alpha  occ. eigenvalues --   -0.30506  -0.30361  -0.29606  -0.28891  -0.28471
 Alpha  occ. eigenvalues --   -0.27442  -0.26286  -0.26009  -0.24954  -0.24412
 Alpha  occ. eigenvalues --   -0.23435  -0.22133  -0.21133  -0.20242  -0.18791
 Alpha  occ. eigenvalues --   -0.13609  -0.13221  -0.09987   0.04121
 Alpha virt. eigenvalues --    0.05927   0.06161   0.07165   0.07586   0.07895
 Alpha virt. eigenvalues --    0.08395   0.08627   0.09464   0.09665   0.09747
 Alpha virt. eigenvalues --    0.09972   0.10517   0.11141   0.11365   0.12078

  Beta  occ. eigenvalues --  -88.74501 -14.22021 -14.21418 -10.11691 -10.11518
  Beta  occ. eigenvalues --  -10.11028 -10.10813 -10.09726 -10.08158 -10.08023
  Beta  occ. eigenvalues --  -10.07704 -10.07559 -10.07373 -10.07297 -10.06979
  Beta  occ. eigenvalues --  -10.06951 -10.06843  -7.83098  -5.79509  -5.79112
  Beta  occ. eigenvalues --   -5.78466  -0.85130  -0.80634  -0.74931  -0.73687
  Beta  occ. eigenvalues --   -0.69400  -0.66981  -0.64850  -0.63940  -0.63140
  Beta  occ. eigenvalues --   -0.58506  -0.55576  -0.52972  -0.51071  -0.49406
  Beta  occ. eigenvalues --   -0.48534  -0.45682  -0.43366  -0.41416  -0.39770
  Beta  occ. eigenvalues --   -0.38362  -0.37707  -0.35821  -0.35536  -0.34917
  Beta  occ. eigenvalues --   -0.33593  -0.33163  -0.33146  -0.32774  -0.32205
  Beta  occ. eigenvalues --   -0.30476  -0.30337  -0.29590  -0.28871  -0.28449
  Beta  occ. eigenvalues --   -0.27412  -0.26266  -0.25987  -0.24929  -0.24376
  Beta  occ. eigenvalues --   -0.23405  -0.22103  -0.21102  -0.20207  -0.18776
  Beta  occ. eigenvalues --   -0.13584  -0.13196  -0.09963
  Beta virt. eigenvalues --    0.05998   0.06351   0.06918   0.07685   0.07964
  Beta virt. eigenvalues --    0.08170   0.08482   0.08996   0.09543   0.09844
  Beta virt. eigenvalues --    0.10114   0.10216   0.10737   0.11157   0.11715

 Mulliken charges and spin densities:
               1          2
     1  C    0.625810  -1.120186
     2  C    1.022641  -0.480275
     3  C    0.281176  -0.054721
     4  C   -0.554465   0.576663
     5  C   -0.322957  -0.290634
     6  C   -0.066638  -0.058221
     7  C   -1.327843   0.131812
     8  N    0.139134   0.046661
     9  C    0.488761  -0.529393
    10  C   -0.267998  -0.019404
    11  C   -0.127054  -0.128183
    12  C    0.652171  -1.425074
    13  C    0.161797  -0.385140
    14  C   -0.472328   0.640569
    15  S   -0.070025   0.145261
    16  C    0.136325  -0.837628
    17  N   -0.292886  -0.049690
    18  H    0.097423   0.050943
    19  H    0.012561   0.136461
    20  H    0.037659   0.099846
    21  H   -0.378931   0.525030
    22  H    0.073452   0.077706
    23  H    0.032992   0.082115
    24  H    0.252083  -0.013717
    25  H    0.224652  -0.071872
    26  H   -0.003182   0.139261
    27  H    0.188341  -0.049372
    28  H    0.033261   0.110438
    29  H   -0.198006   0.376089
    30  H   -0.509589   0.693309
    31  H    0.085494   0.034582
    32  H    0.135205   0.038764
    33  H   -0.117104   0.316271
    34  H    0.143852   0.144321
    35  H   -0.410808   0.592519
    36  H   -0.033124   0.197131
    37  H   -0.178859   0.341645
    38  H   -0.391075   0.660409
    39  H   -0.101918   0.355704
 Sum of Mulliken charges =  -1.00000   1.00000

 Dipole moment (field-independent basis, Debye):
    X=             -1.8406    Y=              3.3829    Z=             -6.6739  Tot=              7.7054
 Quadrupole moment (field-independent basis, Debye-Ang):
   XX=           -189.3189   YY=           -160.2306   ZZ=           -159.5489
   XY=             -1.3385   XZ=             -3.8270   YZ=              2.1156

 Summary of Natural Population Analysis:

                                       Natural Population
                Natural  -----------------------------------------------
    Atom  No    Charge         Core      Valence    Rydberg      Total
 -----------------------------------------------------------------------
      C    1   -0.28918      0.99964     2.28484    0.00469     3.28918
      C    2   -0.02703      0.99952     2.01791    0.00959     3.02703
      C    3   -0.12035      0.99948     2.11123    0.00964     3.12035
      C    4    0.08107      0.99945     1.90821    0.01127     2.91893
      C    5    0.07242      0.99945     1.91732    0.01082     2.92758
      C    6   -0.12245      0.99953     2.11557    0.00735     3.12245
      C    7   -0.11393      0.99952     2.10560    0.00881     3.11393
      N    8   -0.33966      0.99967     2.82870    0.01129     3.83966
      C    9   -0.01076      0.99955     1.99768    0.01353     3.01076
      C   10   -0.19324      0.99960     2.18454    0.00910     3.19324
      C   11   -0.19240      0.99962     2.18433    0.00844     3.19240
      C   12   -0.18596      0.99962     2.17752    0.00882     3.18596
      C   13   -0.20016      0.99959     2.18966    0.01091     3.20016
      C   14   -0.15976      0.99951     2.14685    0.01339     3.15976
      S   15    0.08185      4.99962     2.90181    0.01672     7.91815
      C   16   -0.35230      0.99961     2.34605    0.00664     3.35230
      N   17   -0.40331      0.99972     2.89276    0.01082     3.90331
      H   18    0.10038      0.00000     0.39842    0.00121     0.39962
      H   19    0.10142      0.00000     0.39734    0.00125     0.39858
      H   20    0.09838      0.00000     0.40078    0.00084     0.40162
      H   21    0.09792      0.00000     0.40060    0.00148     0.40208
      H   22    0.09953      0.00000     0.39909    0.00138     0.40047
      H   23    0.09482      0.00000     0.40429    0.00089     0.40518
      H   24    0.19217      0.00000     0.30335    0.00448     0.30783
      H   25    0.08969      0.00000     0.40814    0.00217     0.41031
      H   26    0.09376      0.00000     0.40520    0.00104     0.40624
      H   27    0.10483      0.00000     0.39397    0.00119     0.39517
      H   28    0.10303      0.00000     0.39536    0.00160     0.39697
      H   29    0.09802      0.00000     0.40109    0.00089     0.40198
      H   30    0.10310      0.00000     0.39557    0.00133     0.39690
      H   31    0.08961      0.00000     0.40922    0.00118     0.41039
      H   32    0.10379      0.00000     0.39362    0.00259     0.39621
      H   33    0.10420      0.00000     0.39451    0.00129     0.39580
      H   34    0.10533      0.00000     0.39334    0.00132     0.39467
      H   35    0.10638      0.00000     0.39167    0.00195     0.39362
      H   36    0.10236      0.00000     0.39566    0.00198     0.39764
      H   37    0.10866      0.00000     0.39031    0.00103     0.39134
      H   38    0.18733      0.00000     0.30804    0.00462     0.31267
      H   39    0.19043      0.00000     0.30593    0.00364     0.30957
 =======================================================================
   * Total *   -0.00000     20.99272    46.79611    0.21117    68.00000

 Normal termination of Gaussian 16 at Fri Dec 11 13:44:44 2020.
