 Gaussian 16, Revision A.03,

 -----------------------------------------------------------
 # opt freq B3LYP/6-31G(d) empiricaldispersion=gd3bj scf=xqc
 -----------------------------------------------------------

 ------------------------------
 CID_79471380_JID_5777_neutraal
 ------------------------------
 Symbolic Z-matrix:
 Charge =  0 Multiplicity = 1

 SCF Done:  E(RB3LYP) =  -718.460715172     A.U. after   15 cycles
 SCF Done:  E(RB3LYP) =  -718.465655515     A.U. after   13 cycles
 SCF Done:  E(RB3LYP) =  -718.465137591     A.U. after   14 cycles
 SCF Done:  E(RB3LYP) =  -718.467071340     A.U. after   13 cycles
 SCF Done:  E(RB3LYP) =  -718.467243273     A.U. after   12 cycles
 SCF Done:  E(RB3LYP) =  -718.467282235     A.U. after   11 cycles
 SCF Done:  E(RB3LYP) =  -718.467304924     A.U. after   11 cycles
 SCF Done:  E(RB3LYP) =  -718.467310655     A.U. after    9 cycles
 SCF Done:  E(RB3LYP) =  -718.467313426     A.U. after    9 cycles
 SCF Done:  E(RB3LYP) =  -718.467314531     A.U. after    9 cycles
 SCF Done:  E(RB3LYP) =  -718.467321014     A.U. after    9 cycles
 SCF Done:  E(RB3LYP) =  -718.467321152     A.U. after    7 cycles
 SCF Done:  E(RB3LYP) =  -718.467321235     A.U. after    7 cycles
 SCF Done:  E(RB3LYP) =  -718.467321282     A.U. after    7 cycles
 SCF Done:  E(RB3LYP) =  -718.467321301     A.U. after    7 cycles
 Optimization completed.
    -- Stationary point found.
 Normal termination of Gaussian 16 at Thu Dec 10 16:56:31 2020.

 --------------------------------------------------------------------
 #N Geom=AllCheck Guess=TCheck SCRF=Check GenChk RB3LYP/6-31G(d) Freq
 --------------------------------------------------------------------

 Structure from the checkpoint file:  "JID_5777.chk"
 ------------------------------
 CID_79471380_JID_5777_neutraal
 ------------------------------
 Charge =  0 Multiplicity = 1

 SCF Done:  E(RB3LYP) =  -718.467321301     A.U. after    1 cycles

  Exact polarizability: 162.183 -18.608 124.316  11.045  10.482  78.370
 Approx polarizability: 236.426 -39.512 221.474  19.636  37.179 127.915

                      1                      2                      3
                      A                      A                      A
 Frequencies --     19.6884                53.4254                57.5196
 Red. masses --      6.8812                 4.2714                 4.3509
 Frc consts  --      0.0016                 0.0072                 0.0085
 IR Inten    --      1.5161                 0.1023                 0.9928

                      4                      5                      6
                      A                      A                      A
 Frequencies --    117.2491               129.2353               133.5966
 Red. masses --      3.2448                 1.1035                 1.1711
 Frc consts  --      0.0263                 0.0109                 0.0123
 IR Inten    --      0.0393                 0.2323                 0.0642

                      7                      8                      9
                      A                      A                      A
 Frequencies --    169.8984               182.9004               206.2832
 Red. masses --      3.7413                 4.2902                 4.7478
 Frc consts  --      0.0636                 0.0846                 0.1190
 IR Inten    --      1.3957                 2.9933                 9.6668

                     10                     11                     12
                      A                      A                      A
 Frequencies --    253.8504               297.6258               328.3827
 Red. masses --      3.8009                 3.9346                 3.2725
 Frc consts  --      0.1443                 0.2054                 0.2079
 IR Inten    --      6.3929                 5.3111                 1.8757

                     13                     14                     15
                      A                      A                      A
 Frequencies --    380.9692               403.4117               434.2636
 Red. masses --      4.1770                 4.6327                 2.6280
 Frc consts  --      0.3572                 0.4442                 0.2920
 IR Inten    --      6.6024                 0.9866                 8.4395

                     16                     17                     18
                      A                      A                      A
 Frequencies --    475.3982               508.4780               569.8072
 Red. masses --      5.4704                 5.4062                 3.9718
 Frc consts  --      0.7284                 0.8235                 0.7598
 IR Inten    --      1.8807                 1.9491                 6.9166

                     19                     20                     21
                      A                      A                      A
 Frequencies --    631.8580               650.5129               672.7714
 Red. masses --      6.6059                 5.2773                 8.6478
 Frc consts  --      1.5539                 1.3157                 2.3062
 IR Inten    --      1.4141                 1.1140                 1.3497

                     22                     23                     24
                      A                      A                      A
 Frequencies --    710.1122               760.1784               783.0288
 Red. masses --      4.4891                 5.9245                 5.2323
 Frc consts  --      1.3337                 2.0171                 1.8902
 IR Inten    --     16.1938                 5.5268                13.2681

                     25                     26                     27
                      A                      A                      A
 Frequencies --    810.2465               857.1786               875.3836
 Red. masses --      6.3990                 5.0359                 1.4228
 Frc consts  --      2.4751                 2.1801                 0.6424
 IR Inten    --      1.0755                18.4692                14.0942

                     28                     29                     30
                      A                      A                      A
 Frequencies --    881.7774               912.2280               944.3772
 Red. masses --      4.8050                 1.3336                 3.6503
 Frc consts  --      2.2012                 0.6539                 1.9181
 IR Inten    --      0.6262                 0.3547                13.0743

                     31                     32                     33
                      A                      A                      A
 Frequencies --    959.5799              1039.7590              1050.1577
 Red. masses --      2.7019                 1.6351                 5.8215
 Frc consts  --      1.4658                 1.0415                 3.7826
 IR Inten    --      0.4900                13.1282                46.7386

                     34                     35                     36
                      A                      A                      A
 Frequencies --   1079.2362              1092.3523              1110.4439
 Red. masses --      1.5511                 6.7694                 6.4942
 Frc consts  --      1.0645                 4.7591                 4.7181
 IR Inten    --      4.6240                14.6270                14.1743

                     37                     38                     39
                      A                      A                      A
 Frequencies --   1186.6829              1190.3240              1209.5112
 Red. masses --      1.2920                 2.0898                 1.7668
 Frc consts  --      1.0720                 1.7445                 1.5229
 IR Inten    --      2.5286                39.8681                51.2694

                     40                     41                     42
                      A                      A                      A
 Frequencies --   1219.6874              1288.2779              1303.1294
 Red. masses --      1.4668                 4.1229                 1.9213
 Frc consts  --      1.2856                 4.0316                 1.9223
 IR Inten    --      2.8524               244.5390                 8.6409

                     43                     44                     45
                      A                      A                      A
 Frequencies --   1330.3262              1342.9767              1372.0105
 Red. masses --      1.7677                 3.3847                 4.2904
 Frc consts  --      1.8432                 3.5967                 4.7584
 IR Inten    --      9.3478                 0.5445                26.4585

                     46                     47                     48
                      A                      A                      A
 Frequencies --   1403.4979              1439.2482              1469.5708
 Red. masses --      2.0874                 1.3206                 3.7372
 Frc consts  --      2.4226                 1.6117                 4.7553
 IR Inten    --     34.1957                 0.7066                21.5489

                     49                     50                     51
                      A                      A                      A
 Frequencies --   1476.8337              1492.7767              1501.9986
 Red. masses --      1.0907                 1.1980                 1.0448
 Frc consts  --      1.4015                 1.5729                 1.3888
 IR Inten    --     10.3781                 6.6545                 6.6602

                     52                     53                     54
                      A                      A                      A
 Frequencies --   1505.3870              1512.9576              1524.0212
 Red. masses --      1.2369                 1.0476                 1.0478
 Frc consts  --      1.6515                 1.4128                 1.4339
 IR Inten    --     12.7694                 6.6186                 7.3923

                     55                     56                     57
                      A                      A                      A
 Frequencies --   1549.3037              1554.7462              1585.8780
 Red. masses --      8.3643                 4.8559                 4.6698
 Frc consts  --     11.8291                 6.9157                 6.9197
 IR Inten    --      2.8739                 9.6450                10.5351

                     58                     59                     60
                      A                      A                      A
 Frequencies --   1687.0982              1845.7975              3041.2204
 Red. masses --      7.8365                11.3859                 1.0714
 Frc consts  --     13.1418                22.8552                 5.8383
 IR Inten    --    154.2263               309.3562                 9.4992

                     61                     62                     63
                      A                      A                      A
 Frequencies --   3055.9055              3082.7989              3112.1282
 Red. masses --      1.0367                 1.0292                 1.1007
 Frc consts  --      5.7038                 5.7629                 6.2809
 IR Inten    --     18.3812                26.1895                11.1434

                     64                     65                     66
                      A                      A                      A
 Frequencies --   3146.5106              3161.3562              3162.0611
 Red. masses --      1.1026                 1.1079                 1.0915
 Frc consts  --      6.4317                 6.5239                 6.4298
 IR Inten    --     14.1171                15.1669                 0.3306

                     67                     68                     69
                      A                      A                      A
 Frequencies --   3191.9221              3237.7442              3241.1812
 Red. masses --      1.1078                 1.0927                 1.0926
 Frc consts  --      6.6501                 6.7489                 6.7627
 IR Inten    --     10.6918                 4.7221                 1.3699

 - Thermochemistry -
 -------------------
 Temperature   298.150 Kelvin.  Pressure   1.00000 Atm.
 Atom     1 has atomic number  6 and mass  12.00000

 Molecular mass:   206.08038 amu.
 Principal axes and moments of inertia in atomic units:
                           1         2         3
     Eigenvalues --  1597.316544476.423275569.32595
           X            0.99999  -0.00308   0.00088
           Y            0.00310   0.99964  -0.02658
           Z           -0.00080   0.02658   0.99965
 This molecule is an asymmetric top.
 Rotational symmetry number  1.
 Warning -- assumption of classical behavior for rotation
           may cause significant error
 Rotational temperatures (Kelvin)      0.05422     0.01935     0.01555
 Rotational constants (GHZ):           1.12986     0.40317     0.32405
 Zero-point vibrational energy     508221.7 (Joules/Mol)
                                  121.46790 (Kcal/Mol)
 Warning -- explicit consideration of  18 degrees of freedom as
           vibrations may cause significant error
 Vibrational temperatures:     28.33    76.87    82.76   168.70   185.94
          (Kelvin)            192.22   244.45   263.15   296.80   365.23
                              428.22   472.47   548.13   580.42   624.81
                              683.99   731.59   819.83   909.10   935.94
                              967.97  1021.69  1093.73  1126.60  1165.76
                             1233.29  1259.48  1268.68  1312.49  1358.75
                             1380.62  1495.98  1510.94  1552.78  1571.65
                             1597.68  1707.37  1712.61  1740.22  1754.86
                             1853.54  1874.91  1914.04  1932.24  1974.02
                             2019.32  2070.76  2114.38  2124.83  2147.77
                             2161.04  2165.92  2176.81  2192.73  2229.10
                             2236.93  2281.72  2427.36  2655.69  4375.64
                             4396.77  4435.46  4477.66  4527.13  4548.49
                             4549.50  4592.46  4658.39  4663.34

 Zero-point correction=                           0.193571 (Hartree/Particle)
 Thermal correction to Energy=                    0.206994
 Thermal correction to Enthalpy=                  0.207938
 Thermal correction to Gibbs Free Energy=         0.151679
 Sum of electronic and zero-point Energies=           -718.273750
 Sum of electronic and thermal Energies=              -718.260328
 Sum of electronic and thermal Enthalpies=            -718.259384
 Sum of electronic and thermal Free Energies=         -718.315642

                     E (Thermal)             CV                S
                      KCal/Mol        Cal/Mol-Kelvin    Cal/Mol-Kelvin
 Total                  129.890             48.871            118.407
 Electronic               0.000              0.000              0.000
 Translational            0.889              2.981             41.873
 Rotational               0.889              2.981             32.054
 Vibrational            128.113             42.910             44.479
 Vibration     1          0.593              1.986              6.665
 Vibration     2          0.596              1.976              4.686
 Vibration     3          0.596              1.974              4.541
 Vibration     4          0.608              1.935              3.145
 Vibration     5          0.612              1.924              2.957
 Vibration     6          0.613              1.920              2.894
 Vibration     7          0.625              1.880              2.437
 Vibration     8          0.630              1.863              2.299
 Vibration     9          0.641              1.831              2.076
 Vibration    10          0.665              1.756              1.704
 Vibration    11          0.691              1.678              1.430
 Vibration    12          0.712              1.619              1.268
 Vibration    13          0.751              1.511              1.035
 Vibration    14          0.769              1.463              0.950
 Vibration    15          0.795              1.396              0.845
 Vibration    16          0.832              1.305              0.723
 Vibration    17          0.864              1.231              0.637
 Vibration    18          0.926              1.097              0.505

 Optimization completed.
    -- Stationary point found.
 Normal termination of Gaussian 16 at Thu Dec 10 17:03:42 2020.

 ----------------------------------------------------------------------
 # B3LYP/6-311++G(d,p) empiricaldispersion=gd3bj scf=xqc pop=npa geom=c
 heck
 ----------------------------------------------------------------------

 --------------------------------------
 CID_79471380_JID_5777_Energie_neutraal
 --------------------------------------
 Structure from the checkpoint file:  "JID_5777.chk"
 Charge =  0 Multiplicity = 1

 SCF Done:  E(RB3LYP) =  -718.662325973     A.U. after   15 cycles
 Normal termination of Gaussian 16 at Thu Dec 10 17:06:49 2020.

 ----------------------------------------------------------------------
 # B3LYP/6-311++G(d,p) empiricaldispersion=gd3bj scf=xqc pop=npa geom=c
 heck
 ----------------------------------------------------------------------

 ------------------------------------
 CID_79471380_JID_5777_Energie_kation
 ------------------------------------
 Structure from the checkpoint file:  "JID_5777.chk"
 Charge =  1 Multiplicity = 2

 SCF Done:  E(UB3LYP) =  -718.352925958     A.U. after   21 cycles
 Normal termination of Gaussian 16 at Thu Dec 10 17:13:07 2020.
 Gaussian 16:  ES64L-G16RevA.03 25-Dec-2016

 ----------------------------------------------------------------------
 # B3LYP/6-311++G(d,p) empiricaldispersion=gd3bj scf=xqc pop=npa geom=c
 heck
 ----------------------------------------------------------------------

 -----------------------------------
 CID_79471380_JID_5777_Energie_anion
 -----------------------------------
 Structure from the checkpoint file:  "JID_5777.chk"
 Charge = -1 Multiplicity = 2

                         Standard orientation:
 ---------------------------------------------------------------------
 Center     Atomic      Atomic             Coordinates (Angstroms)
 Number     Number       Type             X           Y           Z
 ---------------------------------------------------------------------
      1          6           0        4.241542   -1.389861    0.061754
      2          6           0        2.928078   -0.669680   -0.031001
      3          6           0        2.722511    0.575641    0.503993
      4          6           0        1.445691    1.172164    0.359382
      5          7           0        0.938294    2.330428    0.746692
      6          7           0       -0.366029    2.360399    0.313854
      7          6           0       -0.647368    1.243097   -0.320953
      8          7           0        0.474759    0.434187   -0.329560
      9          6           0        0.761837   -0.816051   -0.825150
     10          7           0        1.927483   -1.360770   -0.698819
     11          6           0       -1.960691    0.917727   -0.946364
     12          6           0       -2.807590   -0.105317   -0.195878
     13          8           0       -4.007176   -0.047126   -0.073628
     14          8           0       -2.046028   -1.114058    0.281606
     15          6           0       -2.758298   -2.139837    0.998310
     16          1           0        4.986951   -0.797321    0.598522
     17          1           0        4.623211   -1.614615   -0.940771
     18          1           0        4.113794   -2.348847    0.576777
     19          1           0        3.500302    1.115790    1.030108
     20          1           0       -0.047513   -1.340270   -1.320394
     21          1           0       -2.542774    1.837826   -1.011293
     22          1           0       -1.821945    0.540483   -1.969718
     23          1           0       -3.267433   -1.709965    1.863803
     24          1           0       -3.495973   -2.615226    0.347411
     25          1           0       -1.998808   -2.855387    1.312000
 ---------------------------------------------------------------------

 SCF Done:  E(UB3LYP) =  -718.669473088     A.U. after   33 cycles
 SCF Done:  E(UB3LYP) =  -718.669473088     a.u. after    1 cycles

 The electronic state is 2-A.
 Alpha  occ. eigenvalues --  -19.07650 -19.02183 -14.24008 -14.17949 -14.16944
 Alpha  occ. eigenvalues --  -14.15103 -10.20945 -10.13702 -10.09953 -10.09242
 Alpha  occ. eigenvalues --  -10.09099 -10.07401 -10.06300 -10.04505 -10.01681
 Alpha  occ. eigenvalues --   -1.01758  -0.93222  -0.92194  -0.82061  -0.75089
 Alpha  occ. eigenvalues --   -0.70649  -0.66437  -0.64206  -0.61111  -0.57477
 Alpha  occ. eigenvalues --   -0.53022  -0.48695  -0.47452  -0.46727  -0.41952
 Alpha  occ. eigenvalues --   -0.40539  -0.39258  -0.38441  -0.36220  -0.34884
 Alpha  occ. eigenvalues --   -0.33811  -0.32795  -0.32090  -0.31337  -0.29753
 Alpha  occ. eigenvalues --   -0.28894  -0.28325  -0.27212  -0.26511  -0.23871
 Alpha  occ. eigenvalues --   -0.23095  -0.22041  -0.19754  -0.17600  -0.17362
 Alpha  occ. eigenvalues --   -0.14607  -0.12620  -0.11832  -0.08469   0.05084
 Alpha virt. eigenvalues --    0.06761   0.08502   0.08713   0.09666   0.10630
 Alpha virt. eigenvalues --    0.10777   0.11513   0.11801   0.12389   0.12605
 Alpha virt. eigenvalues --    0.13508   0.13636   0.14538   0.15257   0.16218

  Beta  occ. eigenvalues --  -19.07642 -19.02180 -14.23959 -14.17677 -14.16882
  Beta  occ. eigenvalues --  -14.14974 -10.20941 -10.13689 -10.09981 -10.09234
  Beta  occ. eigenvalues --  -10.09125 -10.06830 -10.06183 -10.04515 -10.01351
  Beta  occ. eigenvalues --   -1.01744  -0.93210  -0.91933  -0.81562  -0.74734
  Beta  occ. eigenvalues --   -0.70527  -0.66163  -0.63953  -0.61036  -0.57177
  Beta  occ. eigenvalues --   -0.52282  -0.48608  -0.47312  -0.46501  -0.41822
  Beta  occ. eigenvalues --   -0.40491  -0.39196  -0.38361  -0.35968  -0.34683
  Beta  occ. eigenvalues --   -0.33597  -0.32314  -0.31854  -0.31145  -0.29527
  Beta  occ. eigenvalues --   -0.28791  -0.28283  -0.27160  -0.26430  -0.23696
  Beta  occ. eigenvalues --   -0.22027  -0.21608  -0.19636  -0.17332  -0.16472
  Beta  occ. eigenvalues --   -0.13298  -0.12408  -0.11588  -0.07122
  Beta virt. eigenvalues --    0.06834   0.08509   0.08632   0.09657   0.10596
  Beta virt. eigenvalues --    0.10790   0.11207   0.11473   0.12047   0.12546
  Beta virt. eigenvalues --    0.12917   0.13536   0.13733   0.14453   0.15202

 Mulliken charges and spin densities:
               1          2
     1  C   -0.562913   0.023920
     2  C   -0.023855  -0.021041
     3  C   -0.424042   0.348707
     4  C    0.186921  -0.062755
     5  N   -0.241490   0.010086
     6  N   -0.046341   0.142101
     7  C    0.164028   0.018457
     8  N    0.102572  -0.018189
     9  C   -0.337660   0.479550
    10  N   -0.079294   0.027510
    11  C   -0.615809  -0.095679
    12  C    0.148192  -0.079544
    13  O   -0.289299   0.005073
    14  O   -0.062022   0.017548
    15  C   -0.048756  -0.211531
    16  H    0.122554   0.000041
    17  H    0.130513   0.005243
    18  H    0.127588   0.007381
    19  H    0.157729  -0.022836
    20  H    0.123217  -0.017455
    21  H    0.206651   0.011546
    22  H    0.042670   0.154832
    23  H    0.088302   0.083128
    24  H    0.089763   0.073060
    25  H    0.040782   0.120848
 Sum of Mulliken charges =  -1.00000   1.00000

 Dipole moment (field-independent basis, Debye):
    X=             -2.3824    Y=             -4.0565    Z=             -0.4966  Tot=              4.7305
 Quadrupole moment (field-independent basis, Debye-Ang):
   XX=           -125.5349   YY=           -118.7734   ZZ=            -98.6746
   XY=              4.4955   XZ=              1.5522   YZ=             -8.0593

 Summary of Natural Population Analysis:

                                       Natural Population
                Natural  -----------------------------------------------
    Atom  No    Charge         Core      Valence    Rydberg      Total
 -----------------------------------------------------------------------
      C    1   -0.29297      0.99964     2.28848    0.00486     3.29297
      C    2    0.10940      0.99953     1.87760    0.01347     2.89060
      C    3   -0.09184      0.99946     2.08360    0.00879     3.09184
      C    4    0.17749      0.99959     1.80532    0.01760     2.82251
      N    5   -0.17836      0.99969     2.66481    0.01386     3.67836
      N    6   -0.11828      0.99968     2.60512    0.01349     3.61828
      C    7    0.14760      0.99961     1.83390    0.01890     2.85240
      N    8   -0.20426      0.99958     2.69442    0.01026     3.70426
      C    9    0.24670      0.99965     1.73575    0.01791     2.75330
      N   10   -0.25325      0.99967     2.74287    0.01071     3.75325
      C   11   -0.25369      0.99955     2.24456    0.00959     3.25369
      C   12    0.41441      0.99971     1.56002    0.02586     2.58559
      O   13   -0.30867      0.99987     3.30326    0.00555     4.30867
      O   14   -0.27256      0.99986     3.26506    0.00764     4.27256
      C   15   -0.10493      0.99960     2.09722    0.00811     3.10493
      H   16    0.09359      0.00000     0.40576    0.00066     0.40641
      H   17    0.10035      0.00000     0.39862    0.00103     0.39965
      H   18    0.10036      0.00000     0.39860    0.00104     0.39964
      H   19    0.09928      0.00000     0.39995    0.00078     0.40072
      H   20    0.07723      0.00000     0.42150    0.00126     0.42277
      H   21    0.12345      0.00000     0.37536    0.00118     0.37655
      H   22    0.11552      0.00000     0.38242    0.00206     0.38448
      H   23    0.09053      0.00000     0.40821    0.00127     0.40947
      H   24    0.08809      0.00000     0.41058    0.00133     0.41191
      H   25    0.09482      0.00000     0.40413    0.00104     0.40518
 =======================================================================
   * Total *   -0.00000     14.99467    38.80710    0.19823    54.00000

 Normal termination of Gaussian 16 at Thu Dec 10 17:22:34 2020.
