 Gaussian 16, Revision A.03,

 -----------------------------------------------------------
 # opt freq B3LYP/6-31G(d) empiricaldispersion=gd3bj scf=xqc
 -----------------------------------------------------------

 -------------------------------
 CID_105148762_JID_2339_neutraal
 -------------------------------
 Symbolic Z-matrix:
 Charge =  0 Multiplicity = 1

 SCF Done:  E(RB3LYP) =  -876.337733401     A.U. after   14 cycles
 SCF Done:  E(RB3LYP) =  -876.340046165     A.U. after   12 cycles
 SCF Done:  E(RB3LYP) =  -876.341842644     A.U. after   12 cycles
 SCF Done:  E(RB3LYP) =  -876.343085462     A.U. after   13 cycles
 SCF Done:  E(RB3LYP) =  -876.343817006     A.U. after   12 cycles
 SCF Done:  E(RB3LYP) =  -876.344586562     A.U. after   12 cycles
 SCF Done:  E(RB3LYP) =  -876.345142663     A.U. after   12 cycles
 SCF Done:  E(RB3LYP) =  -876.345970709     A.U. after   12 cycles
 SCF Done:  E(RB3LYP) =  -876.345393536     A.U. after   15 cycles
 SCF Done:  E(RB3LYP) =  -876.347302405     A.U. after   12 cycles
 SCF Done:  E(RB3LYP) =  -876.348383468     A.U. after    9 cycles
 SCF Done:  E(RB3LYP) =  -876.348387467     A.U. after    9 cycles
 SCF Done:  E(RB3LYP) =  -876.348388609     A.U. after    8 cycles
 SCF Done:  E(RB3LYP) =  -876.348389404     A.U. after    8 cycles
 SCF Done:  E(RB3LYP) =  -876.348389469     A.U. after    7 cycles
 Optimization completed.
    -- Stationary point found.
 Normal termination of Gaussian 16 at Wed Dec  9 17:29:06 2020.

 --------------------------------------------------------------------
 #N Geom=AllCheck Guess=TCheck SCRF=Check GenChk RB3LYP/6-31G(d) Freq
 --------------------------------------------------------------------

 Structure from the checkpoint file:  "JID_2339.chk"
 -------------------------------
 CID_105148762_JID_2339_neutraal
 -------------------------------
 Charge =  0 Multiplicity = 1

 SCF Done:  E(RB3LYP) =  -876.348389469     A.U. after    1 cycles

  Exact polarizability: 141.573  -1.116 121.067  -3.270   0.450  89.996
 Approx polarizability: 184.897  -0.154 190.706 -11.236   2.989 139.261

                      1                      2                      3
                      A                      A                      A
 Frequencies --     32.9853                45.0398                62.5092
 Red. masses --      3.5237                 4.5695                 3.1922
 Frc consts  --      0.0023                 0.0055                 0.0073
 IR Inten    --      0.2887                 2.7995                 1.0118

                      4                      5                      6
                      A                      A                      A
 Frequencies --    112.6678               130.5883               157.0160
 Red. masses --      2.2483                 1.2419                 3.2648
 Frc consts  --      0.0168                 0.0125                 0.0474
 IR Inten    --      0.8430                 1.0540                 0.8654

                      7                      8                      9
                      A                      A                      A
 Frequencies --    173.5800               189.3514               201.6094
 Red. masses --      1.5798                 2.2832                 3.2342
 Frc consts  --      0.0280                 0.0482                 0.0775
 IR Inten    --      0.4105                 1.3379                 1.3683

                     10                     11                     12
                      A                      A                      A
 Frequencies --    211.6048               253.0354               322.6513
 Red. masses --      3.6233                 2.8036                 3.5332
 Frc consts  --      0.0956                 0.1058                 0.2167
 IR Inten    --      3.4096                 4.4607                 4.6502

                     13                     14                     15
                      A                      A                      A
 Frequencies --    344.8438               361.7511               402.8340
 Red. masses --      1.2284                 2.3104                 3.2879
 Frc consts  --      0.0861                 0.1781                 0.3144
 IR Inten    --     39.5335                 1.4874                 4.6643

                     16                     17                     18
                      A                      A                      A
 Frequencies --    472.2230               568.6671               631.9408
 Red. masses --      2.8686                 2.8134                 4.0024
 Frc consts  --      0.3769                 0.5360                 0.9417
 IR Inten    --     11.8379                 4.2015                 6.3433

                     19                     20                     21
                      A                      A                      A
 Frequencies --    665.6909               670.6681               722.5129
 Red. masses --      5.3285                 3.8428                 4.9536
 Frc consts  --      1.3912                 1.0184                 1.5236
 IR Inten    --      4.4322                 2.0733                 2.7156

                     22                     23                     24
                      A                      A                      A
 Frequencies --    725.1813               766.8882               794.6514
 Red. masses --      5.6661                 2.3864                 1.3966
 Frc consts  --      1.7556                 0.8269                 0.5196
 IR Inten    --      2.6728                13.5114                22.6527

                     25                     26                     27
                      A                      A                      A
 Frequencies --    846.2945               871.1365               901.9717
 Red. masses --      2.5414                 1.2969                 1.6226
 Frc consts  --      1.0724                 0.5799                 0.7778
 IR Inten    --     29.2107                 1.5813                 4.9994

                     28                     29                     30
                      A                      A                      A
 Frequencies --    950.1633               955.5958               983.9674
 Red. masses --      1.9362                 3.4523                 1.3354
 Frc consts  --      1.0299                 1.8574                 0.7618
 IR Inten    --    151.9751                22.8673                13.4864

                     31                     32                     33
                      A                      A                      A
 Frequencies --   1001.9582              1022.9767              1031.8757
 Red. masses --      1.3204                 1.7430                 2.2522
 Frc consts  --      0.7810                 1.0747                 1.4129
 IR Inten    --      0.5697                16.2633                21.9592

                     34                     35                     36
                      A                      A                      A
 Frequencies --   1073.5417              1089.7378              1118.1139
 Red. masses --      1.7740                 1.4677                 2.4088
 Frc consts  --      1.2046                 1.0269                 1.7743
 IR Inten    --     34.2990                11.1709                 3.7376

                     37                     38                     39
                      A                      A                      A
 Frequencies --   1164.2473              1170.6287              1193.2567
 Red. masses --      1.4088                 1.3503                 1.5107
 Frc consts  --      1.1251                 1.0902                 1.2673
 IR Inten    --      8.9896                 1.3243                 4.6017

                     40                     41                     42
                      A                      A                      A
 Frequencies --   1220.2574              1243.6592              1279.3446
 Red. masses --      1.3246                 1.4116                 1.3530
 Frc consts  --      1.1621                 1.2863                 1.3047
 IR Inten    --      4.6151                 1.7056                22.0609

                     43                     44                     45
                      A                      A                      A
 Frequencies --   1321.2640              1341.2071              1356.8808
 Red. masses --      4.4898                 1.2421                 1.5365
 Frc consts  --      4.6180                 1.3165                 1.6667
 IR Inten    --     16.7885                23.6644                 5.9607

                     46                     47                     48
                      A                      A                      A
 Frequencies --   1378.7506              1392.1329              1412.6637
 Red. masses --      3.2965                 1.1666                 1.3699
 Frc consts  --      3.6921                 1.3321                 1.6107
 IR Inten    --      6.7889                 3.9555                10.8204

                     49                     50                     51
                      A                      A                      A
 Frequencies --   1431.5768              1442.7948              1471.7110
 Red. masses --      1.4892                 2.5497                 1.4669
 Frc consts  --      1.7982                 3.1272                 1.8720
 IR Inten    --      6.4279                49.6592                 7.5405

                     52                     53                     54
                      A                      A                      A
 Frequencies --   1498.2975              1506.6722              1510.4010
 Red. masses --      1.0536                 2.1345                 1.1588
 Frc consts  --      1.3935                 2.8548                 1.5575
 IR Inten    --      7.7098                14.1371                15.2488

                     55                     56                     57
                      A                      A                      A
 Frequencies --   1511.9442              1517.7720              1526.5080
 Red. masses --      1.1162                 1.0896                 1.2277
 Frc consts  --      1.5034                 1.4788                 1.6856
 IR Inten    --     14.7978                 0.8438                 2.6902

                     58                     59                     60
                      A                      A                      A
 Frequencies --   1544.0130              1585.8003              1695.3349
 Red. masses --      1.1348                 4.3742                 1.0944
 Frc consts  --      1.5939                 6.4811                 1.8533
 IR Inten    --      9.2489                 4.4530                43.9682

                     61                     62                     63
                      A                      A                      A
 Frequencies --   3005.9549              3047.4762              3054.2613
 Red. masses --      1.0827                 1.0616                 1.0452
 Frc consts  --      5.7638                 5.8090                 5.7444
 IR Inten    --     27.3268                27.0828                65.8751

                     64                     65                     66
                      A                      A                      A
 Frequencies --   3056.2396              3063.5759              3084.9291
 Red. masses --      1.0316                 1.0619                 1.1017
 Frc consts  --      5.6771                 5.8719                 6.1775
 IR Inten    --     28.0805                14.3842                25.4824

                     67                     68                     69
                      A                      A                      A
 Frequencies --   3120.8520              3134.5171              3143.4964
 Red. masses --      1.1040                 1.1076                 1.0894
 Frc consts  --      6.3355                 6.4116                 6.3428
 IR Inten    --     21.1699                 9.0807                14.9442

                     70                     71                     72
                      A                      A                      A
 Frequencies --   3156.9639              3189.9406              3254.2091
 Red. masses --      1.1035                 1.1070                 1.0933
 Frc consts  --      6.4796                 6.6371                 6.8216
 IR Inten    --      7.2129                 1.3880                13.2178

                     73                     74                     75
                      A                      A                      A
 Frequencies --   3283.1150              3469.2210              3555.3373
 Red. masses --      1.0995                 1.0496                 1.0926
 Frc consts  --      6.9826                 7.4429                 8.1373
 IR Inten    --      5.0015                 0.8259                 6.9344

 - Thermochemistry -
 -------------------
 Temperature   298.150 Kelvin.  Pressure   1.00000 Atm.
 Atom     1 has atomic number  6 and mass  12.00000

 Molecular mass:   185.09867 amu.
 Principal axes and moments of inertia in atomic units:
                           1         2         3
     Eigenvalues --  1153.434464299.348934778.60794
           X            0.99966  -0.02615   0.00216
           Y            0.02615   0.99966  -0.00029
           Z           -0.00215   0.00035   1.00000
 This molecule is an asymmetric top.
 Rotational symmetry number  1.
 Warning -- assumption of classical behavior for rotation
           may cause significant error
 Rotational temperatures (Kelvin)      0.07509     0.02015     0.01813
 Rotational constants (GHZ):           1.56467     0.41977     0.37767
 Zero-point vibrational energy     611321.9 (Joules/Mol)
                                  146.10943 (Kcal/Mol)
 Warning -- explicit consideration of  17 degrees of freedom as
           vibrations may cause significant error
 Vibrational temperatures:     47.46    64.80    89.94   162.10   187.89
          (Kelvin)            225.91   249.74   272.43   290.07   304.45
                              364.06   464.22   496.15   520.48   579.59
                              679.42   818.19   909.22   957.78   964.94
                             1039.53  1043.37  1103.38  1143.33  1217.63
                             1253.37  1297.74  1367.07  1374.89  1415.71
                             1441.59  1471.84  1484.64  1544.59  1567.89
                             1608.72  1675.09  1684.27  1716.83  1755.68
                             1789.35  1840.69  1901.00  1929.70  1952.25
                             1983.71  2002.97  2032.51  2059.72  2075.86
                             2117.46  2155.72  2167.77  2173.13  2175.35
                             2183.74  2196.30  2221.49  2281.61  2439.21
                             4324.90  4384.64  4394.40  4397.25  4407.80
                             4438.52  4490.21  4509.87  4522.79  4542.17
                             4589.61  4682.08  4723.67  4991.44  5115.34

 Zero-point correction=                           0.232840 (Hartree/Particle)
 Thermal correction to Energy=                    0.246282
 Thermal correction to Enthalpy=                  0.247227
 Thermal correction to Gibbs Free Energy=         0.191637
 Sum of electronic and zero-point Energies=           -876.115549
 Sum of electronic and thermal Energies=              -876.102107
 Sum of electronic and thermal Enthalpies=            -876.101163
 Sum of electronic and thermal Free Energies=         -876.156753

                     E (Thermal)             CV                S
                      KCal/Mol        Cal/Mol-Kelvin    Cal/Mol-Kelvin
 Total                  154.545             48.692            116.999
 Electronic               0.000              0.000              0.000
 Translational            0.889              2.981             41.553
 Rotational               0.889              2.981             31.539
 Vibrational            152.767             42.730             43.907
 Vibration     1          0.594              1.983              5.641
 Vibration     2          0.595              1.979              5.024
 Vibration     3          0.597              1.972              4.376
 Vibration     4          0.607              1.939              3.222
 Vibration     5          0.612              1.923              2.937
 Vibration     6          0.621              1.895              2.585
 Vibration     7          0.627              1.875              2.396
 Vibration     8          0.633              1.855              2.234
 Vibration     9          0.638              1.838              2.118
 Vibration    10          0.643              1.823              2.030
 Vibration    11          0.664              1.758              1.709
 Vibration    12          0.708              1.630              1.297
 Vibration    13          0.723              1.586              1.190
 Vibration    14          0.736              1.551              1.115
 Vibration    15          0.768              1.464              0.952
 Vibration    16          0.829              1.312              0.731
 Vibration    17          0.925              1.099              0.507

 Optimization completed.
    -- Stationary point found.
 Normal termination of Gaussian 16 at Wed Dec  9 17:35:16 2020.

 ----------------------------------------------------------------------
 # B3LYP/6-311++G(d,p) empiricaldispersion=gd3bj scf=xqc pop=npa geom=c
 heck
 ----------------------------------------------------------------------

 ---------------------------------------
 CID_105148762_JID_2339_Energie_neutraal
 ---------------------------------------
 Structure from the checkpoint file:  "JID_2339.chk"
 Charge =  0 Multiplicity = 1

 SCF Done:  E(RB3LYP) =  -876.512363200     A.U. after   15 cycles
 Normal termination of Gaussian 16 at Wed Dec  9 17:39:10 2020.

 ----------------------------------------------------------------------
 # B3LYP/6-311++G(d,p) empiricaldispersion=gd3bj scf=xqc pop=npa geom=c
 heck
 ----------------------------------------------------------------------

 -------------------------------------
 CID_105148762_JID_2339_Energie_kation
 -------------------------------------
 Structure from the checkpoint file:  "JID_2339.chk"
 Charge =  1 Multiplicity = 2

 SCF Done:  E(UB3LYP) =  -876.215612059     A.U. after   33 cycles
 SCF Done:  E(UB3LYP) =  -876.216160676     a.u. after    9 cycles
 Normal termination of Gaussian 16 at Wed Dec  9 18:34:39 2020.
 Gaussian 16:  ES64L-G16RevA.03 25-Dec-2016

 ----------------------------------------------------------------------
 # B3LYP/6-311++G(d,p) empiricaldispersion=gd3bj scf=xqc pop=npa geom=c
 heck
 ----------------------------------------------------------------------

 ------------------------------------
 CID_105148762_JID_2339_Energie_anion
 ------------------------------------
 Structure from the checkpoint file:  "JID_2339.chk"
 Charge = -1 Multiplicity = 2

                         Standard orientation:
 ---------------------------------------------------------------------
 Center     Atomic      Atomic             Coordinates (Angstroms)
 Number     Number       Type             X           Y           Z
 ---------------------------------------------------------------------
      1          6           0        3.041586   -1.547101   -0.532170
      2          7           0        2.510315   -0.211098   -0.319861
      3          6           0        1.355098    0.154514    0.315663
      4          6           0        1.389005    1.542007    0.387915
      5          6           0        2.599950    1.913517   -0.229849
      6          7           0        3.281034    0.850692   -0.653550
      7          6           0        0.349130   -0.846137    0.831462
      8          6           0       -0.844085   -0.159636    1.535256
      9          6           0       -1.802853    0.642861    0.644743
     10         16           0       -2.931647   -0.432598   -0.335820
     11          6           0       -4.073546    0.852256   -0.947079
     12          7           0       -0.011914   -1.795629   -0.234758
     13          1           0        3.715598   -1.500219   -1.388232
     14          1           0        3.605862   -1.881485    0.346863
     15          1           0        2.211544   -2.227258   -0.724287
     16          1           0        0.648153    2.193076    0.826408
     17          1           0        2.999667    2.906114   -0.391096
     18          1           0        0.850171   -1.446754    1.605716
     19          1           0       -1.416237   -0.929591    2.067596
     20          1           0       -0.447420    0.515982    2.303577
     21          1           0       -2.433678    1.275233    1.278771
     22          1           0       -1.252400    1.292884   -0.040914
     23          1           0       -4.571858    1.361156   -0.115921
     24          1           0       -3.547275    1.586084   -1.564729
     25          1           0       -4.827566    0.351749   -1.559571
     26          1           0       -0.663929   -2.488056    0.131460
     27          1           0       -0.506033   -1.308782   -0.980989
 ---------------------------------------------------------------------

 SCF Done:  E(UB3LYP) =  -876.498816575     A.U. after   32 cycles

 The electronic state is 2-A.
 Alpha  occ. eigenvalues --  -88.73650 -14.28796 -14.22734 -14.19846 -10.11803
 Alpha  occ. eigenvalues --  -10.11112 -10.10472 -10.09538 -10.09049 -10.08986
 Alpha  occ. eigenvalues --  -10.07611 -10.06469  -7.82265  -5.78663  -5.78306
 Alpha  occ. eigenvalues --   -5.77619  -0.94891  -0.80132  -0.73958  -0.70770
 Alpha  occ. eigenvalues --   -0.69250  -0.65034  -0.60063  -0.58760  -0.53078
 Alpha  occ. eigenvalues --   -0.49907  -0.48301  -0.45503  -0.42475  -0.39023
 Alpha  occ. eigenvalues --   -0.37227  -0.36040  -0.35224  -0.34618  -0.33641
 Alpha  occ. eigenvalues --   -0.32852  -0.32072  -0.31176  -0.30280  -0.29482
 Alpha  occ. eigenvalues --   -0.28987  -0.27344  -0.25638  -0.24286  -0.21471
 Alpha  occ. eigenvalues --   -0.19577  -0.15810  -0.15356  -0.14411  -0.12113
 Alpha  occ. eigenvalues --    0.04487
 Alpha virt. eigenvalues --    0.06233   0.07400   0.07772   0.08577   0.09040
 Alpha virt. eigenvalues --    0.09830   0.10109   0.10264   0.10749   0.11704
 Alpha virt. eigenvalues --    0.12098   0.12622   0.12955   0.13198   0.13689

  Beta  occ. eigenvalues --  -88.73643 -14.28786 -14.22727 -14.19828 -10.11787
  Beta  occ. eigenvalues --  -10.11108 -10.10456 -10.09510 -10.08998 -10.08986
  Beta  occ. eigenvalues --  -10.07585 -10.06456  -7.82258  -5.78658  -5.78291
  Beta  occ. eigenvalues --   -5.77615  -0.94875  -0.80093  -0.73942  -0.70730
  Beta  occ. eigenvalues --   -0.69225  -0.64982  -0.60035  -0.58694  -0.53015
  Beta  occ. eigenvalues --   -0.49870  -0.48227  -0.45470  -0.42434  -0.38978
  Beta  occ. eigenvalues --   -0.37189  -0.35999  -0.35186  -0.34584  -0.33601
  Beta  occ. eigenvalues --   -0.32821  -0.32024  -0.31128  -0.30247  -0.29450
  Beta  occ. eigenvalues --   -0.28961  -0.27295  -0.25590  -0.24230  -0.21402
  Beta  occ. eigenvalues --   -0.19564  -0.15784  -0.15321  -0.14371  -0.12091
  Beta virt. eigenvalues --    0.06818   0.07160   0.07894   0.08165   0.08953
  Beta virt. eigenvalues --    0.09639   0.10273   0.10422   0.10945   0.11172
  Beta virt. eigenvalues --    0.12022   0.12400   0.12923   0.13090   0.13361

 Mulliken charges and spin densities:
               1          2
     1  C    0.079714  -0.403507
     2  N    0.269403   0.111190
     3  C    0.637379  -1.344474
     4  C   -0.551854   0.732599
     5  C    0.422609  -0.743268
     6  N   -0.350778   0.037911
     7  C    0.229606  -0.040112
     8  C   -0.386819  -0.092303
     9  C    0.391742  -0.734195
    10  S   -0.296804   0.303759
    11  C    0.975175  -1.561760
    12  N   -0.420516   0.017805
    13  H    0.089918   0.060918
    14  H   -0.081282   0.246137
    15  H    0.058753   0.154174
    16  H   -0.619753   0.795685
    17  H    0.033923   0.116260
    18  H   -0.398898   0.630664
    19  H   -0.479832   0.671171
    20  H   -0.142913   0.315715
    21  H   -0.273873   0.502293
    22  H    0.596185  -0.481407
    23  H   -0.389423   0.548832
    24  H   -0.375271   0.545511
    25  H   -0.209254   0.369142
    26  H    0.034997   0.203061
    27  H    0.157865   0.038199
 Sum of Mulliken charges =  -1.00000   1.00000

 Dipole moment (field-independent basis, Debye):
    X=              3.9377    Y=             -1.1481    Z=             -2.5717  Tot=              4.8412
 Quadrupole moment (field-independent basis, Debye-Ang):
   XX=           -156.4601   YY=           -118.1852   ZZ=           -120.8671
   XY=              6.7010   XZ=              0.9658   YZ=              1.8236

 Summary of Natural Population Analysis:

                                       Natural Population
                Natural  -----------------------------------------------
    Atom  No    Charge         Core      Valence    Rydberg      Total
 -----------------------------------------------------------------------
      C    1   -0.18002      0.99963     2.17371    0.00668     3.18002
      N    2   -0.10449      0.99962     2.59214    0.01274     3.60449
      C    3    0.08665      0.99951     1.90057    0.01328     2.91335
      C    4   -0.16502      0.99950     2.15699    0.00852     3.16502
      C    5   -0.01600      0.99963     2.00212    0.01425     3.01600
      N    6   -0.15828      0.99974     2.64722    0.01133     3.65828
      C    7   -0.02892      0.99956     2.01539    0.01397     3.02892
      C    8   -0.19967      0.99961     2.18861    0.01145     3.19967
      C    9   -0.25148      0.99959     2.24097    0.01092     3.25148
      S   10    0.07661      4.99963     2.90453    0.01923     7.92339
      C   11   -0.34929      0.99963     2.34331    0.00635     3.34929
      N   12   -0.42649      0.99977     2.91621    0.01050     3.92649
      H   13    0.10237      0.00000     0.39631    0.00132     0.39763
      H   14    0.09336      0.00000     0.40510    0.00154     0.40664
      H   15    0.11916      0.00000     0.37928    0.00156     0.38084
      H   16    0.11122      0.00000     0.38769    0.00109     0.38878
      H   17    0.09518      0.00000     0.40397    0.00085     0.40482
      H   18    0.10285      0.00000     0.39381    0.00334     0.39715
      H   19    0.10407      0.00000     0.39347    0.00247     0.39593
      H   20    0.10883      0.00000     0.38903    0.00215     0.39117
      H   21    0.10699      0.00000     0.39041    0.00260     0.39301
      H   22    0.10089      0.00000     0.39683    0.00229     0.39911
      H   23    0.10400      0.00000     0.39343    0.00257     0.39600
      H   24    0.10117      0.00000     0.39692    0.00191     0.39883
      H   25    0.10662      0.00000     0.39204    0.00133     0.39338
      H   26    0.17852      0.00000     0.31922    0.00227     0.32148
      H   27    0.18118      0.00000     0.31573    0.00309     0.31882
 =======================================================================
   * Total *    0.00000     15.99543    33.83498    0.16959    50.00000

 Normal termination of Gaussian 16 at Wed Dec  9 18:41:10 2020.
