 Gaussian 16, Revision A.03,

 -----------------------------------------------------------
 # opt freq B3LYP/6-31G(d) empiricaldispersion=gd3bj scf=xqc
 -----------------------------------------------------------

 -------------------------------
 CID_152156598_JID_4282_neutraal
 -------------------------------
 Symbolic Z-matrix:
 Charge =  0 Multiplicity = 1

 SCF Done:  E(RB3LYP) =  -647.988396821     A.U. after   17 cycles
 SCF Done:  E(RB3LYP) =  -647.991171738     A.U. after   14 cycles
 SCF Done:  E(RB3LYP) =  -647.992202483     A.U. after   13 cycles
 SCF Done:  E(RB3LYP) =  -647.992296837     A.U. after   13 cycles
 SCF Done:  E(RB3LYP) =  -647.992358504     A.U. after   12 cycles
 SCF Done:  E(RB3LYP) =  -647.992383433     A.U. after   12 cycles
 SCF Done:  E(RB3LYP) =  -647.992418914     A.U. after   13 cycles
 SCF Done:  E(RB3LYP) =  -647.992446125     A.U. after   13 cycles
 SCF Done:  E(RB3LYP) =  -647.992452173     A.U. after   14 cycles
 SCF Done:  E(RB3LYP) =  -647.992423276     A.U. after   13 cycles
 SCF Done:  E(RB3LYP) =  -647.997250162     A.U. after   10 cycles
 SCF Done:  E(RB3LYP) =  -647.997250229     A.U. after    9 cycles
 SCF Done:  E(RB3LYP) =  -647.997250229     A.U. after    8 cycles
 SCF Done:  E(RB3LYP) =  -647.997250199     A.U. after    7 cycles
 Optimization completed.
    -- Stationary point found.
 Normal termination of Gaussian 16 at Thu Dec 10 09:36:58 2020.

 --------------------------------------------------------------------
 #N Geom=AllCheck Guess=TCheck SCRF=Check GenChk RB3LYP/6-31G(d) Freq
 --------------------------------------------------------------------

 Structure from the checkpoint file:  "JID_4282.chk"
 -------------------------------
 CID_152156598_JID_4282_neutraal
 -------------------------------
 Charge =  0 Multiplicity = 1

 SCF Done:  E(RB3LYP) =  -647.997250199     A.U. after    1 cycles

  Exact polarizability: 130.691  -1.294 139.811   0.929   1.021  97.705
 Approx polarizability: 156.920   6.051 247.375  -0.768   0.753 148.980

                      1                      2                      3
                      A                      A                      A
 Frequencies --     12.8707                28.2398                35.9420
 Red. masses --      6.2701                 4.5029                 4.4351
 Frc consts  --      0.0006                 0.0021                 0.0034
 IR Inten    --      0.0683                 0.0896                 0.0420

                      4                      5                      6
                      A                      A                      A
 Frequencies --     45.8978                57.9576                85.8826
 Red. masses --      3.6508                 3.5409                 3.0960
 Frc consts  --      0.0045                 0.0070                 0.0135
 IR Inten    --      0.0604                 0.0151                 0.3709

                      7                      8                      9
                      A                      A                      A
 Frequencies --    108.1212               133.7957               174.9656
 Red. masses --      5.8194                 3.8424                 1.7421
 Frc consts  --      0.0401                 0.0405                 0.0314
 IR Inten    --      3.5774                 0.4527                 0.2209

                     10                     11                     12
                      A                      A                      A
 Frequencies --    210.3992               249.4680               261.9171
 Red. masses --      3.4793                 1.6837                 2.7573
 Frc consts  --      0.0907                 0.0617                 0.1114
 IR Inten    --      0.6700                 2.3246                 1.9891

                     13                     14                     15
                      A                      A                      A
 Frequencies --    264.5354               309.7666               329.4589
 Red. masses --      8.3850                 1.7406                 2.3752
 Frc consts  --      0.3457                 0.0984                 0.1519
 IR Inten    --      3.0182                 0.0522                 5.9100

                     16                     17                     18
                      A                      A                      A
 Frequencies --    373.8241               403.6629               454.7709
 Red. masses --      2.0056                 1.8607                 1.9342
 Frc consts  --      0.1651                 0.1786                 0.2357
 IR Inten    --      3.2127                 3.4034                 7.7306

                     19                     20                     21
                      A                      A                      A
 Frequencies --    484.0309               507.6880               547.7088
 Red. masses --      3.0820                 3.7718                 2.8130
 Frc consts  --      0.4254                 0.5728                 0.4972
 IR Inten    --     18.9153                 6.6445                 1.9520

                     22                     23                     24
                      A                      A                      A
 Frequencies --    575.2269               596.7111               665.3317
 Red. masses --      6.9046                 2.8674                 2.3247
 Frc consts  --      1.3461                 0.6015                 0.6063
 IR Inten    --     12.6167                26.1473               106.8544

                     25                     26                     27
                      A                      A                      A
 Frequencies --    706.0719               732.0395               765.1575
 Red. masses --      1.3488                 1.5020                 2.3394
 Frc consts  --      0.3962                 0.4742                 0.8070
 IR Inten    --     29.7472                 7.4423                27.8312

                     28                     29                     30
                      A                      A                      A
 Frequencies --    788.9262               811.0099               837.8369
 Red. masses --      2.3040                 2.9828                 2.3576
 Frc consts  --      0.8449                 1.1559                 0.9751
 IR Inten    --      5.2296                 2.2665                 1.9604

                     31                     32                     33
                      A                      A                      A
 Frequencies --    860.9287               903.3119               926.8940
 Red. masses --      1.7339                 1.7855                 1.8686
 Frc consts  --      0.7572                 0.8584                 0.9458
 IR Inten    --      5.5386                 2.8467                 0.7137

                     34                     35                     36
                      A                      A                      A
 Frequencies --    969.9332               997.0302              1001.0785
 Red. masses --      1.6652                 1.6402                 2.2239
 Frc consts  --      0.9230                 0.9607                 1.3131
 IR Inten    --      5.4467                 0.8423                 2.4999

                     37                     38                     39
                      A                      A                      A
 Frequencies --   1015.7146              1049.3150              1067.5216
 Red. masses --      3.6711                 1.5085                 1.5090
 Frc consts  --      2.2315                 0.9786                 1.0132
 IR Inten    --     12.4853                 1.3064                 0.8701

                     40                     41                     42
                      A                      A                      A
 Frequencies --   1080.5870              1119.6181              1140.2104
 Red. masses --      1.9947                 2.0117                 1.7250
 Frc consts  --      1.3723                 1.4858                 1.3213
 IR Inten    --      0.1918                 0.1129                 0.3402

                     43                     44                     45
                      A                      A                      A
 Frequencies --   1145.5761              1195.2066              1207.7668
 Red. masses --      2.0540                 1.3892                 2.1419
 Frc consts  --      1.5882                 1.1693                 1.8408
 IR Inten    --      3.8888                 5.5776                53.1837

                     46                     47                     48
                      A                      A                      A
 Frequencies --   1210.3087              1247.4295              1265.1671
 Red. masses --      3.0293                 1.3251                 1.7081
 Frc consts  --      2.6145                 1.2149                 1.6109
 IR Inten    --     24.7663                12.4415                54.6263

                     49                     50                     51
                      A                      A                      A
 Frequencies --   1285.3037              1308.4304              1332.4238
 Red. masses --      1.6556                 1.2467                 1.1600
 Frc consts  --      1.6115                 1.2576                 1.2133
 IR Inten    --     72.3661                15.2225                 6.1098

                     52                     53                     54
                      A                      A                      A
 Frequencies --   1352.8715              1378.9758              1386.0430
 Red. masses --      1.1103                 1.3797                 1.5604
 Frc consts  --      1.1973                 1.5458                 1.7662
 IR Inten    --      5.9838                10.1878                 4.3501

                     55                     56                     57
                      A                      A                      A
 Frequencies --   1401.3409              1409.8595              1420.5602
 Red. masses --      1.4160                 1.4497                 1.4869
 Frc consts  --      1.6383                 1.6977                 1.7678
 IR Inten    --     11.5066                 0.3530                21.7425

                     58                     59                     60
                      A                      A                      A
 Frequencies --   1425.8563              1429.8837              1432.5585
 Red. masses --      1.4215                 1.2690                 1.6372
 Frc consts  --      1.7028                 1.5287                 1.9796
 IR Inten    --      0.8930                 1.8040                37.8573

                     61                     62                     63
                      A                      A                      A
 Frequencies --   1443.6201              1486.4064              1507.3283
 Red. masses --      1.2733                 1.0885                 1.0779
 Frc consts  --      1.5635                 1.4169                 1.4430
 IR Inten    --      4.9578                10.1165                 2.3364

                     64                     65                     66
                      A                      A                      A
 Frequencies --   1514.9730              1519.9700              1526.1160
 Red. masses --      1.0835                 1.0783                 1.0652
 Frc consts  --      1.4652                 1.4678                 1.4617
 IR Inten    --      7.6261                 0.6594                12.0543

                     67                     68                     69
                      A                      A                      A
 Frequencies --   1533.3406              1534.3480              1538.8111
 Red. masses --      1.0620                 1.0797                 1.0652
 Frc consts  --      1.4711                 1.4977                 1.4861
 IR Inten    --      8.3049                 2.7585                 2.6082

                     70                     71                     72
                      A                      A                      A
 Frequencies --   1545.4375              1807.2918              2233.4754
 Red. masses --      1.0890                 9.3300                13.9120
 Frc consts  --      1.5324                17.9552                40.8887
 IR Inten    --      2.3878               224.6398               335.3352

                     73                     74                     75
                      A                      A                      A
 Frequencies --   3025.9772              3030.4816              3035.3716
 Red. masses --      1.0638                 1.0649                 1.0618
 Frc consts  --      5.7393                 5.7622                 5.7640
 IR Inten    --     12.6991                31.9472                39.9454

                     76                     77                     78
                      A                      A                      A
 Frequencies --   3042.0091              3045.0853              3047.0073
 Red. masses --      1.0594                 1.0442                 1.0670
 Frc consts  --      5.7759                 5.7047                 5.8369
 IR Inten    --      9.2245                20.2471                 9.3490

                     79                     80                     81
                      A                      A                      A
 Frequencies --   3049.9457              3057.2782              3062.2304
 Red. masses --      1.0690                 1.0972                 1.0725
 Frc consts  --      5.8591                 6.0423                 5.9254
 IR Inten    --      3.8608                 2.4179                14.1446

                     82                     83                     84
                      A                      A                      A
 Frequencies --   3065.7744              3074.7215              3077.5175
 Red. masses --      1.0877                 1.0958                 1.1001
 Frc consts  --      6.0235                 6.1038                 6.1389
 IR Inten    --     64.8835                52.7402               126.8660

                     85                     86                     87
                      A                      A                      A
 Frequencies --   3090.5666              3101.7001              3109.2314
 Red. masses --      1.0963                 1.0958                 1.1015
 Frc consts  --      6.1697                 6.2115                 6.2739
 IR Inten    --      0.5573                33.5835                47.9436

                     88                     89                     90
                      A                      A                      A
 Frequencies --   3110.2160              3116.3191              3546.9263
 Red. masses --      1.0996                 1.1019                 1.0763
 Frc consts  --      6.2669                 6.3051                 7.9777
 IR Inten    --     38.9920                50.0269                25.6924

 - Thermochemistry -
 -------------------
 Temperature   298.150 Kelvin.  Pressure   1.00000 Atm.
 Atom     1 has atomic number  6 and mass  12.00000

 Molecular mass:   198.14806 amu.
 Principal axes and moments of inertia in atomic units:
                           1         2         3
     Eigenvalues --  1694.225086356.056297398.55526
           X            0.99987   0.01585  -0.00400
           Y           -0.01591   0.99972  -0.01745
           Z            0.00372   0.01751   0.99984
 This molecule is an asymmetric top.
 Rotational symmetry number  1.
 Warning -- assumption of classical behavior for rotation
           may cause significant error
 Rotational temperatures (Kelvin)      0.05112     0.01363     0.01171
 Rotational constants (GHZ):           1.06523     0.28394     0.24393
 Zero-point vibrational energy     732152.9 (Joules/Mol)
                                  174.98873 (Kcal/Mol)
 Warning -- explicit consideration of  23 degrees of freedom as
           vibrations may cause significant error
 Vibrational temperatures:     18.52    40.63    51.71    66.04    83.39
          (Kelvin)            123.57   155.56   192.50   251.74   302.72
                              358.93   376.84   380.61   445.68   474.02
                              537.85   580.78   654.31   696.41   730.45
                              788.03   827.62   858.53   957.26  1015.88
                             1053.24  1100.89  1135.09  1166.86  1205.46
                             1238.68  1299.66  1333.59  1395.52  1434.50
                             1440.33  1461.39  1509.73  1535.93  1554.72
                             1610.88  1640.51  1648.23  1719.64  1737.71
                             1741.36  1794.77  1820.29  1849.27  1882.54
                             1917.06  1946.48  1984.04  1994.21  2016.22
                             2028.47  2043.87  2051.49  2057.28  2061.13
                             2077.05  2138.61  2168.71  2179.71  2186.90
                             2195.74  2206.14  2207.58  2214.01  2223.54
                             2600.29  3213.47  4353.71  4360.19  4367.22
                             4376.77  4381.20  4383.96  4388.19  4398.74
                             4405.87  4410.97  4423.84  4427.86  4446.64
                             4462.65  4473.49  4474.91  4483.69  5103.24

 Zero-point correction=                           0.278862 (Hartree/Particle)
 Thermal correction to Energy=                    0.294756
 Thermal correction to Enthalpy=                  0.295701
 Thermal correction to Gibbs Free Energy=         0.232005
 Sum of electronic and zero-point Energies=           -647.718388
 Sum of electronic and thermal Energies=              -647.702494
 Sum of electronic and thermal Enthalpies=            -647.701550
 Sum of electronic and thermal Free Energies=         -647.765245

                     E (Thermal)             CV                S
                      KCal/Mol        Cal/Mol-Kelvin    Cal/Mol-Kelvin
 Total                  184.962             56.913            134.059
 Electronic               0.000              0.000              0.000
 Translational            0.889              2.981             41.756
 Rotational               0.889              2.981             32.743
 Vibrational            183.185             50.952             59.559
 Vibration     1          0.593              1.987              7.510
 Vibration     2          0.593              1.984              5.949
 Vibration     3          0.594              1.982              5.471
 Vibration     4          0.595              1.979              4.987
 Vibration     5          0.596              1.974              4.526
 Vibration     6          0.601              1.959              3.752
 Vibration     7          0.606              1.943              3.302
 Vibration     8          0.613              1.920              2.891
 Vibration     9          0.627              1.873              2.381
 Vibration    10          0.643              1.825              2.040
 Vibration    11          0.662              1.764              1.734
 Vibration    12          0.669              1.743              1.649
 Vibration    13          0.671              1.738              1.632
 Vibration    14          0.699              1.655              1.364
 Vibration    15          0.712              1.617              1.263
 Vibration    16          0.745              1.526              1.064
 Vibration    17          0.769              1.462              0.949
 Vibration    18          0.813              1.350              0.781
 Vibration    19          0.840              1.285              0.699
 Vibration    20          0.863              1.233              0.639
 Vibration    21          0.903              1.145              0.549
 Vibration    22          0.932              1.085              0.494
 Vibration    23          0.955              1.039              0.455

 Optimization completed.
    -- Stationary point found.
 Normal termination of Gaussian 16 at Thu Dec 10 09:45:47 2020.

 ----------------------------------------------------------------------
 # B3LYP/6-311++G(d,p) empiricaldispersion=gd3bj scf=xqc pop=npa geom=c
 heck
 ----------------------------------------------------------------------

 ---------------------------------------
 CID_152156598_JID_4282_Energie_neutraal
 ---------------------------------------
 Structure from the checkpoint file:  "JID_4282.chk"
 Charge =  0 Multiplicity = 1

 SCF Done:  E(RB3LYP) =  -648.184794785     A.U. after   16 cycles
 Normal termination of Gaussian 16 at Thu Dec 10 09:50:41 2020.

 ----------------------------------------------------------------------
 # B3LYP/6-311++G(d,p) empiricaldispersion=gd3bj scf=xqc pop=npa geom=c
 heck
 ----------------------------------------------------------------------

 -------------------------------------
 CID_152156598_JID_4282_Energie_kation
 -------------------------------------
 Structure from the checkpoint file:  "JID_4282.chk"
 Charge =  1 Multiplicity = 2

 SCF Done:  E(UB3LYP) =  -647.840916532     A.U. after   33 cycles
 SCF Done:  E(UB3LYP) =  -647.840916532     a.u. after    2 cycles
 Normal termination of Gaussian 16 at Thu Dec 10 10:23:52 2020.
 Gaussian 16:  ES64L-G16RevA.03 25-Dec-2016

 ----------------------------------------------------------------------
 # B3LYP/6-311++G(d,p) empiricaldispersion=gd3bj scf=xqc pop=npa geom=c
 heck
 ----------------------------------------------------------------------

 ------------------------------------
 CID_152156598_JID_4282_Energie_anion
 ------------------------------------
 Structure from the checkpoint file:  "JID_4282.chk"
 Charge = -1 Multiplicity = 2

                         Standard orientation:
 ---------------------------------------------------------------------
 Center     Atomic      Atomic             Coordinates (Angstroms)
 Number     Number       Type             X           Y           Z
 ---------------------------------------------------------------------
      1          6           0        4.872463    1.123196   -0.819965
      2          6           0        4.366927   -0.108642   -0.063275
      3          6           0        3.278779    0.201612    0.975896
      4          6           0        2.004950    0.851570    0.412056
      5          6           0        1.302112    0.046655   -0.692451
      6          6           0        0.898516   -1.384471   -0.303680
      7          6           0        0.002825   -1.496916    0.940323
      8          6           0       -1.289578   -0.679120    0.864677
      9          6           0       -2.237597   -1.178136   -0.209214
     10          8           0       -2.148725   -2.253858   -0.773574
     11          7           0       -3.254806   -0.297570   -0.590790
     12          7           0       -3.729026    0.666428    0.353414
     13          7           0       -3.372637    1.830132    0.032416
     14          7           0       -3.130740    2.934087   -0.089469
     15          1           0        4.082413    1.578642   -1.427332
     16          1           0        5.696434    0.862850   -1.493578
     17          1           0        5.238089    1.889351   -0.124881
     18          1           0        3.993413   -0.849917   -0.781823
     19          1           0        5.210825   -0.587367    0.450555
     20          1           0        3.014301   -0.727446    1.497755
     21          1           0        3.699570    0.868788    1.741180
     22          1           0        1.307405    1.022661    1.243078
     23          1           0        2.245501    1.847787    0.019547
     24          1           0        0.413987    0.603805   -1.020753
     25          1           0        1.951859   -0.006813   -1.575289
     26          1           0        0.382334   -1.850639   -1.149441
     27          1           0        1.801145   -1.983188   -0.128081
     28          1           0       -0.256613   -2.549769    1.092753
     29          1           0        0.554509   -1.173736    1.831118
     30          1           0       -1.832171   -0.726101    1.819095
     31          1           0       -1.077202    0.383199    0.703605
     32          1           0       -4.021920   -0.757268   -1.074126
 ---------------------------------------------------------------------

 SCF Done:  E(UB3LYP) =  -648.193598813     A.U. after   33 cycles
 SCF Done:  E(UB3LYP) =  -648.193598813     a.u. after    1 cycles

 The electronic state is 2-A.
 Alpha  occ. eigenvalues --  -18.98429 -14.29043 -14.23453 -14.23073 -14.21014
 Alpha  occ. eigenvalues --  -10.16139 -10.07591 -10.07252 -10.07103 -10.07043
 Alpha  occ. eigenvalues --  -10.06910 -10.06659 -10.06606 -10.06206  -0.98201
 Alpha  occ. eigenvalues --   -0.93551  -0.86045  -0.73857  -0.72260  -0.69508
 Alpha  occ. eigenvalues --   -0.65571  -0.61381  -0.57602  -0.53740  -0.49790
 Alpha  occ. eigenvalues --   -0.47755  -0.45033  -0.42542  -0.39445  -0.38889
 Alpha  occ. eigenvalues --   -0.37328  -0.37071  -0.35442  -0.34315  -0.33383
 Alpha  occ. eigenvalues --   -0.32498  -0.31480  -0.31079  -0.30142  -0.29720
 Alpha  occ. eigenvalues --   -0.28906  -0.27799  -0.26753  -0.25991  -0.24704
 Alpha  occ. eigenvalues --   -0.24309  -0.23798  -0.22454  -0.22073  -0.21396
 Alpha  occ. eigenvalues --   -0.21287  -0.15779  -0.13402  -0.11534   0.04256
 Alpha virt. eigenvalues --    0.05459   0.07375   0.07813   0.08528   0.09435
 Alpha virt. eigenvalues --    0.09895   0.10309   0.11060   0.11172   0.11287
 Alpha virt. eigenvalues --    0.11853   0.12601   0.13164   0.14027   0.14205

  Beta  occ. eigenvalues --  -18.98412 -14.28526 -14.23263 -14.23126 -14.20277
  Beta  occ. eigenvalues --  -10.16130 -10.07578 -10.07244 -10.07082 -10.07032
  Beta  occ. eigenvalues --  -10.06907 -10.06654 -10.06603 -10.06203  -0.97243
  Beta  occ. eigenvalues --   -0.93449  -0.85585  -0.73399  -0.72240  -0.69484
  Beta  occ. eigenvalues --   -0.65545  -0.61349  -0.57565  -0.53689  -0.49641
  Beta  occ. eigenvalues --   -0.47408  -0.44930  -0.42416  -0.39394  -0.38844
  Beta  occ. eigenvalues --   -0.37248  -0.36298  -0.34435  -0.34132  -0.33006
  Beta  occ. eigenvalues --   -0.32294  -0.31240  -0.31024  -0.29919  -0.28933
  Beta  occ. eigenvalues --   -0.28292  -0.27716  -0.26598  -0.25870  -0.24674
  Beta  occ. eigenvalues --   -0.24274  -0.23773  -0.22098  -0.21398  -0.21288
  Beta  occ. eigenvalues --   -0.21027  -0.15598  -0.13047  -0.11342
  Beta virt. eigenvalues --    0.06032   0.07485   0.07897   0.08488   0.09501
  Beta virt. eigenvalues --    0.09541   0.10299   0.11121   0.11189   0.11337
  Beta virt. eigenvalues --    0.11731   0.12428   0.12926   0.13137   0.14022

 Mulliken charges and spin densities:
               1          2
     1  C    0.379348  -1.007733
     2  C   -0.553890   0.349403
     3  C    0.058839  -0.305167
     4  C   -0.174227  -0.040716
     5  C   -0.127746  -0.212575
     6  C   -0.191182   0.048751
     7  C   -0.581167   0.102995
     8  C    0.213969  -0.406625
     9  C   -0.057526  -0.035658
    10  O   -0.321741   0.006307
    11  N   -0.241579  -0.024426
    12  N   -0.670945   0.086785
    13  N    0.463987   0.147281
    14  N   -0.166906   0.369207
    15  H    0.034307   0.102912
    16  H   -0.212630   0.346518
    17  H   -0.020367   0.154081
    18  H    0.137468  -0.014904
    19  H   -0.284418   0.435821
    20  H    0.091692   0.043032
    21  H   -0.075541   0.221051
    22  H    0.156963   0.002943
    23  H    0.142007   0.007978
    24  H    0.227717  -0.054423
    25  H    0.102310   0.055266
    26  H    0.168739   0.014013
    27  H    0.048303   0.090630
    28  H    0.131891   0.046619
    29  H    0.112855   0.032331
    30  H    0.055309   0.148772
    31  H    0.040279   0.125337
    32  H    0.113884   0.164193
 Sum of Mulliken charges =  -1.00000   1.00000

 Dipole moment (field-independent basis, Debye):
    X=              2.8877    Y=             -2.4255    Z=              0.4772  Tot=              3.8012
 Quadrupole moment (field-independent basis, Debye-Ang):
   XX=           -176.6340   YY=           -126.9878   ZZ=           -103.5012
   XY=              6.4072   XZ=              1.7536   YZ=             -2.7914

 Summary of Natural Population Analysis:

                                       Natural Population
                Natural  -----------------------------------------------
    Atom  No    Charge         Core      Valence    Rydberg      Total
 -----------------------------------------------------------------------
      C    1   -0.28902      0.99967     2.28335    0.00600     3.28902
      C    2   -0.19437      0.99964     2.18589    0.00884     3.19437
      C    3   -0.19236      0.99963     2.18326    0.00947     3.19236
      C    4   -0.19363      0.99963     2.18654    0.00746     3.19363
      C    5   -0.19499      0.99963     2.18795    0.00742     3.19499
      C    6   -0.19504      0.99963     2.18779    0.00763     3.19504
      C    7   -0.19090      0.99963     2.18284    0.00843     3.19090
      C    8   -0.24431      0.99958     2.23553    0.00920     3.24431
      C    9    0.34729      0.99968     1.63073    0.02230     2.65271
      O   10   -0.32528      0.99987     3.31918    0.00623     4.32528
      N   11   -0.22836      0.99966     2.71554    0.01316     3.72836
      N   12   -0.17367      0.99973     2.65727    0.01667     3.67367
      N   13    0.14918      0.99970     2.33583    0.01528     3.35082
      N   14    0.05558      0.99982     2.43035    0.01425     3.44442
      H   15    0.09641      0.00000     0.40275    0.00084     0.40359
      H   16    0.09867      0.00000     0.40044    0.00089     0.40133
      H   17    0.09546      0.00000     0.40360    0.00093     0.40454
      H   18    0.09386      0.00000     0.40508    0.00106     0.40614
      H   19    0.09552      0.00000     0.40333    0.00115     0.40448
      H   20    0.09609      0.00000     0.40288    0.00103     0.40391
      H   21    0.09475      0.00000     0.40433    0.00092     0.40525
      H   22    0.09767      0.00000     0.40121    0.00111     0.40233
      H   23    0.09650      0.00000     0.40244    0.00105     0.40350
      H   24    0.10079      0.00000     0.39806    0.00115     0.39921
      H   25    0.09524      0.00000     0.40374    0.00102     0.40476
      H   26    0.10753      0.00000     0.39126    0.00121     0.39247
      H   27    0.09259      0.00000     0.40626    0.00114     0.40741
      H   28    0.10362      0.00000     0.39525    0.00113     0.39638
      H   29    0.09368      0.00000     0.40521    0.00111     0.40632
      H   30    0.11717      0.00000     0.38154    0.00130     0.38283
      H   31    0.11133      0.00000     0.38724    0.00142     0.38867
      H   32    0.18299      0.00000     0.31414    0.00287     0.31701
 =======================================================================
   * Total *   -0.00000     13.99550    39.83081    0.17370    54.00000

 Normal termination of Gaussian 16 at Thu Dec 10 10:38:33 2020.
