 Gaussian 16, Revision A.03,

 -----------------------------------------------------------
 # opt freq B3LYP/6-31G(d) empiricaldispersion=gd3bj scf=xqc
 -----------------------------------------------------------

 ------------------------------
 CID_19761222_JID_2780_neutraal
 ------------------------------
 Symbolic Z-matrix:
 Charge =  0 Multiplicity = 1

 SCF Done:  E(RB3LYP) =  -538.569027467     A.U. after   14 cycles
 SCF Done:  E(RB3LYP) =  -538.572465379     A.U. after   12 cycles
 SCF Done:  E(RB3LYP) =  -538.571561922     A.U. after   12 cycles
 SCF Done:  E(RB3LYP) =  -538.573106312     A.U. after   11 cycles
 SCF Done:  E(RB3LYP) =  -538.573018055     A.U. after   11 cycles
 SCF Done:  E(RB3LYP) =  -538.573272395     A.U. after   11 cycles
 SCF Done:  E(RB3LYP) =  -538.573291014     A.U. after    9 cycles
 SCF Done:  E(RB3LYP) =  -538.573295196     A.U. after    9 cycles
 SCF Done:  E(RB3LYP) =  -538.573297987     A.U. after    8 cycles
 SCF Done:  E(RB3LYP) =  -538.573298880     A.U. after    8 cycles
 SCF Done:  E(RB3LYP) =  -538.573322596     A.U. after   10 cycles
 SCF Done:  E(RB3LYP) =  -538.573327463     A.U. after    9 cycles
 SCF Done:  E(RB3LYP) =  -538.573329109     A.U. after    8 cycles
 SCF Done:  E(RB3LYP) =  -538.573330100     A.U. after    8 cycles
 SCF Done:  E(RB3LYP) =  -538.573330183     A.U. after    7 cycles
 SCF Done:  E(RB3LYP) =  -538.573330257     A.U. after    7 cycles
 Optimization completed.
    -- Stationary point found.
 Normal termination of Gaussian 16 at Wed Dec  9 18:16:20 2020.

 --------------------------------------------------------------------
 #N Geom=AllCheck Guess=TCheck SCRF=Check GenChk RB3LYP/6-31G(d) Freq
 --------------------------------------------------------------------

 Structure from the checkpoint file:  "JID_2780.chk"
 ------------------------------
 CID_19761222_JID_2780_neutraal
 ------------------------------
 Charge =  0 Multiplicity = 1

 SCF Done:  E(RB3LYP) =  -538.573330257     A.U. after    1 cycles

  Exact polarizability: 122.280  -2.172 105.805  -0.002   1.243  94.266
 Approx polarizability: 152.191  -6.169 161.547   1.357   8.161 135.917

                      1                      2                      3
                      A                      A                      A
 Frequencies --     28.5154                51.4798                96.6731
 Red. masses --      3.2193                 3.3469                 2.3091
 Frc consts  --      0.0015                 0.0052                 0.0127
 IR Inten    --      1.6249                 0.6245                 0.5273

                      4                      5                      6
                      A                      A                      A
 Frequencies --    112.3732               127.2124               184.2252
 Red. masses --      2.6627                 2.6003                 2.4907
 Frc consts  --      0.0198                 0.0248                 0.0498
 IR Inten    --      2.1144                 0.6621                 1.9568

                      7                      8                      9
                      A                      A                      A
 Frequencies --    197.3504               219.9633               234.2685
 Red. masses --      1.6730                 1.5136                 1.8219
 Frc consts  --      0.0384                 0.0431                 0.0589
 IR Inten    --      1.3008                 1.7909                 1.2281

                     10                     11                     12
                      A                      A                      A
 Frequencies --    261.8585               304.6534               375.8665
 Red. masses --      2.2182                 3.6189                 1.9470
 Frc consts  --      0.0896                 0.1979                 0.1621
 IR Inten    --      4.9143                 2.7705                 2.3547

                     13                     14                     15
                      A                      A                      A
 Frequencies --    404.3586               430.8642               480.6722
 Red. masses --      2.4976                 2.5558                 2.6962
 Frc consts  --      0.2406                 0.2795                 0.3670
 IR Inten    --      0.8345                 0.8482                 4.4013

                     16                     17                     18
                      A                      A                      A
 Frequencies --    486.2680               500.7861               580.0257
 Red. masses --      3.1750                 2.3972                 3.5189
 Frc consts  --      0.4423                 0.3542                 0.6975
 IR Inten    --     13.6774                22.5234                25.3307

                     19                     20                     21
                      A                      A                      A
 Frequencies --    660.0368               701.3064               734.2308
 Red. masses --      2.9864                 3.2753                 3.4612
 Frc consts  --      0.7665                 0.9491                 1.0994
 IR Inten    --      2.3221                30.7618                19.2657

                     22                     23                     24
                      A                      A                      A
 Frequencies --    800.4104               813.6780               820.1870
 Red. masses --      1.6205                 1.8909                 1.2344
 Frc consts  --      0.6117                 0.7376                 0.4893
 IR Inten    --      1.4595                35.7426                 0.3034

                     25                     26                     27
                      A                      A                      A
 Frequencies --    842.5747               901.0298               920.9945
 Red. masses --      3.6236                 2.4095                 1.8282
 Frc consts  --      1.5157                 1.1526                 0.9137
 IR Inten    --      2.5437                 1.3312                 6.4136

                     28                     29                     30
                      A                      A                      A
 Frequencies --    938.9766              1003.9483              1045.0280
 Red. masses --      2.5040                 2.2896                 1.5052
 Frc consts  --      1.3007                 1.3597                 0.9685
 IR Inten    --      4.6495                 2.2761                 1.5595

                     31                     32                     33
                      A                      A                      A
 Frequencies --   1062.9221              1075.1499              1083.1905
 Red. masses --      2.2442                 1.6007                 1.6990
 Frc consts  --      1.4939                 1.0902                 1.1745
 IR Inten    --      5.6415                 5.4143                85.7859

                     34                     35                     36
                      A                      A                      A
 Frequencies --   1094.0988              1120.3939              1144.2847
 Red. masses --      1.7086                 1.8971                 2.2751
 Frc consts  --      1.2050                 1.4030                 1.7552
 IR Inten    --      6.1818                12.4190                22.2458

                     37                     38                     39
                      A                      A                      A
 Frequencies --   1153.7974              1163.1754              1192.8588
 Red. masses --      2.2169                 1.6983                 1.9834
 Frc consts  --      1.7388                 1.3538                 1.6628
 IR Inten    --      5.3430                 2.0263                11.7737

                     40                     41                     42
                      A                      A                      A
 Frequencies --   1200.9675              1221.3885              1235.9509
 Red. masses --      1.1831                 4.6392                 1.0831
 Frc consts  --      1.0054                 4.0776                 0.9748
 IR Inten    --      2.1269                24.8943                 8.2979

                     43                     44                     45
                      A                      A                      A
 Frequencies --   1286.1110              1319.6429              1341.3291
 Red. masses --      1.2583                 1.2557                 1.3613
 Frc consts  --      1.2263                 1.2884                 1.4430
 IR Inten    --      7.0084                 1.0604                 8.3172

                     46                     47                     48
                      A                      A                      A
 Frequencies --   1354.4676              1357.0556              1376.1689
 Red. masses --      1.4407                 1.4799                 1.2616
 Frc consts  --      1.5573                 1.6057                 1.4077
 IR Inten    --      5.0309                 7.2550                18.7049

                     49                     50                     51
                      A                      A                      A
 Frequencies --   1398.4695              1401.5964              1411.8953
 Red. masses --      1.4335                 1.7196                 1.4012
 Frc consts  --      1.6518                 1.9904                 1.6457
 IR Inten    --     48.2548                78.8195                 3.4231

                     52                     53                     54
                      A                      A                      A
 Frequencies --   1439.3725              1456.0367              1476.5108
 Red. masses --      1.2259                 1.4556                 1.2001
 Frc consts  --      1.4964                 1.8182                 1.5415
 IR Inten    --      6.0269                13.7455                10.0139

                     55                     56                     57
                      A                      A                      A
 Frequencies --   1490.8340              1500.3333              1503.0089
 Red. masses --      1.0998                 1.1198                 1.2732
 Frc consts  --      1.4401                 1.4852                 1.6946
 IR Inten    --      4.1238                14.8076                 0.3635

                     58                     59                     60
                      A                      A                      A
 Frequencies --   1515.1948              1520.8320              1526.3276
 Red. masses --      1.0819                 1.1089                 1.1065
 Frc consts  --      1.4634                 1.5112                 1.5188
 IR Inten    --      9.2836                 4.4131                 0.0772

                     61                     62                     63
                      A                      A                      A
 Frequencies --   1529.9865              1538.1301              1541.6870
 Red. masses --      1.0605                 1.1770                 1.0861
 Frc consts  --      1.4626                 1.6407                 1.5209
 IR Inten    --      3.0050                11.3008                 6.6226

                     64                     65                     66
                      A                      A                      A
 Frequencies --   1544.3517              1559.4068              1751.0120
 Red. masses --      1.0986                 1.2274                 9.0374
 Frc consts  --      1.5438                 1.7585                16.3256
 IR Inten    --     16.8771                42.2180               261.8154

                     67                     68                     69
                      A                      A                      A
 Frequencies --   3026.3371              3030.5309              3040.3118
 Red. masses --      1.0611                 1.0448                 1.0670
 Frc consts  --      5.7261                 5.6535                 5.8108
 IR Inten    --     42.1773                41.7522                 8.6498

                     70                     71                     72
                      A                      A                      A
 Frequencies --   3043.0058              3049.1448              3057.0606
 Red. masses --      1.0631                 1.0639                 1.0348
 Frc consts  --      5.8002                 5.8280                 5.6980
 IR Inten    --      1.9780                84.8610                23.7124

                     73                     74                     75
                      A                      A                      A
 Frequencies --   3066.9212              3068.7973              3073.9175
 Red. masses --      1.0709                 1.0791                 1.0975
 Frc consts  --      5.9349                 5.9878                 6.1100
 IR Inten    --     34.4979                42.3599                25.2325

                     76                     77                     78
                      A                      A                      A
 Frequencies --   3074.5315              3091.1659              3092.1932
 Red. masses --      1.1033                 1.1040                 1.0988
 Frc consts  --      6.1450                 6.2155                 6.1901
 IR Inten    --     49.6142                50.3946                 7.3366

                     79                     80                     81
                      A                      A                      A
 Frequencies --   3106.2485              3118.3166              3127.3621
 Red. masses --      1.1023                 1.1002                 1.1019
 Frc consts  --      6.2665                 6.3030                 6.3496
 IR Inten    --     54.6904                 6.8356                28.5920

                     82                     83                     84
                      A                      A                      A
 Frequencies --   3139.8317              3206.1253              3493.1320
 Red. masses --      1.1001                 1.0917                 1.0744
 Frc consts  --      6.3899                 6.6117                 7.7243
 IR Inten    --     34.7118                17.8234                 3.3943

 - Thermochemistry -
 -------------------
 Temperature   298.150 Kelvin.  Pressure   1.00000 Atm.
 Atom     1 has atomic number  6 and mass  12.00000

 Molecular mass:   170.14191 amu.
 Principal axes and moments of inertia in atomic units:
                           1         2         3
     Eigenvalues --  1090.585972938.260563223.51813
           X            0.99997  -0.00414  -0.00599
           Y            0.00395   0.99952  -0.03072
           Z            0.00611   0.03069   0.99951
 This molecule is an asymmetric top.
 Rotational symmetry number  1.
 Warning -- assumption of classical behavior for rotation
           may cause significant error
 Rotational temperatures (Kelvin)      0.07942     0.02948     0.02687
 Rotational constants (GHZ):           1.65484     0.61422     0.55987
 Zero-point vibrational energy     718074.5 (Joules/Mol)
                                  171.62394 (Kcal/Mol)
 Warning -- explicit consideration of  18 degrees of freedom as
           vibrations may cause significant error
 Vibrational temperatures:     41.03    74.07   139.09   161.68   183.03
          (Kelvin)            265.06   283.94   316.48   337.06   376.76
                              438.33   540.79   581.78   619.92   691.58
                              699.63   720.52   834.53   949.65  1009.02
                             1056.39  1151.61  1170.70  1180.07  1212.28
                             1296.38  1325.11  1350.98  1444.46  1503.56
                             1529.31  1546.90  1558.47  1574.16  1612.00
                             1646.37  1660.06  1673.55  1716.26  1727.92
                             1757.31  1778.26  1850.43  1898.67  1929.87
                             1948.78  1952.50  1980.00  2012.09  2016.58
                             2031.40  2070.94  2094.91  2124.37  2144.98
                             2158.64  2162.49  2180.03  2188.14  2196.04
                             2201.31  2213.03  2218.14  2221.98  2243.64
                             2519.32  4354.22  4360.26  4374.33  4378.21
                             4387.04  4398.43  4412.62  4415.31  4422.68
                             4423.57  4447.50  4448.98  4469.20  4486.56
                             4499.58  4517.52  4612.90  5025.84

 Zero-point correction=                           0.273500 (Hartree/Particle)
 Thermal correction to Energy=                    0.286298
 Thermal correction to Enthalpy=                  0.287242
 Thermal correction to Gibbs Free Energy=         0.233846
 Sum of electronic and zero-point Energies=           -538.299830
 Sum of electronic and thermal Energies=              -538.287032
 Sum of electronic and thermal Enthalpies=            -538.286088
 Sum of electronic and thermal Free Energies=         -538.339484

                     E (Thermal)             CV                S
                      KCal/Mol        Cal/Mol-Kelvin    Cal/Mol-Kelvin
 Total                  179.655             47.940            112.382
 Electronic               0.000              0.000              0.000
 Translational            0.889              2.981             41.302
 Rotational               0.889              2.981             30.714
 Vibrational            177.877             41.978             40.366
 Vibration     1          0.593              1.984              5.930
 Vibration     2          0.596              1.977              4.760
 Vibration     3          0.603              1.952              3.520
 Vibration     4          0.607              1.939              3.228
 Vibration     5          0.611              1.926              2.988
 Vibration     6          0.631              1.861              2.285
 Vibration     7          0.637              1.844              2.158
 Vibration     8          0.647              1.811              1.959
 Vibration     9          0.654              1.788              1.846
 Vibration    10          0.669              1.743              1.649
 Vibration    11          0.696              1.665              1.391
 Vibration    12          0.747              1.522              1.056
 Vibration    13          0.770              1.461              0.947
 Vibration    14          0.792              1.403              0.856
 Vibration    15          0.837              1.293              0.708
 Vibration    16          0.842              1.280              0.693
 Vibration    17          0.856              1.248              0.656
 Vibration    18          0.937              1.074              0.485

 Optimization completed.
    -- Stationary point found.
 Normal termination of Gaussian 16 at Wed Dec  9 18:24:30 2020.

 ----------------------------------------------------------------------
 # B3LYP/6-311++G(d,p) empiricaldispersion=gd3bj scf=xqc pop=npa geom=c
 heck
 ----------------------------------------------------------------------

 --------------------------------------
 CID_19761222_JID_2780_Energie_neutraal
 --------------------------------------
 Structure from the checkpoint file:  "JID_2780.chk"
 Charge =  0 Multiplicity = 1

 SCF Done:  E(RB3LYP) =  -538.729817850     A.U. after   14 cycles
 Normal termination of Gaussian 16 at Wed Dec  9 18:28:19 2020.

 ----------------------------------------------------------------------
 # B3LYP/6-311++G(d,p) empiricaldispersion=gd3bj scf=xqc pop=npa geom=c
 heck
 ----------------------------------------------------------------------

 ------------------------------------
 CID_19761222_JID_2780_Energie_kation
 ------------------------------------
 Structure from the checkpoint file:  "JID_2780.chk"
 Charge =  1 Multiplicity = 2

 SCF Done:  E(UB3LYP) =  -538.440610883     A.U. after   30 cycles
 Normal termination of Gaussian 16 at Wed Dec  9 18:38:17 2020.
 Gaussian 16:  ES64L-G16RevA.03 25-Dec-2016

 ----------------------------------------------------------------------
 # B3LYP/6-311++G(d,p) empiricaldispersion=gd3bj scf=xqc pop=npa geom=c
 heck
 ----------------------------------------------------------------------

 -----------------------------------
 CID_19761222_JID_2780_Energie_anion
 -----------------------------------
 Structure from the checkpoint file:  "JID_2780.chk"
 Charge = -1 Multiplicity = 2

                         Standard orientation:
 ---------------------------------------------------------------------
 Center     Atomic      Atomic             Coordinates (Angstroms)
 Number     Number       Type             X           Y           Z
 ---------------------------------------------------------------------
      1          6           0       -3.538237   -0.823806    0.512129
      2          6           0       -2.700802   -0.621356   -0.760278
      3          6           0       -1.213619   -0.446191   -0.446256
      4          8           0       -0.451554   -1.393018   -0.634601
      5          7           0       -0.791588    0.735485    0.099711
      6          6           0       -1.624414    1.927962    0.187921
      7          6           0        0.616934    0.977947    0.510503
      8          6           0        1.563566    1.276452   -0.674821
      9          6           0        2.295374    0.043818   -1.207854
     10          7           0        3.012710   -0.584096   -0.091873
     11          6           0        2.079369   -1.163582    0.884053
     12          6           0        1.223418   -0.049228    1.498840
     13          1           0       -3.139093   -1.658983    1.097011
     14          1           0       -4.578299   -1.053980    0.258280
     15          1           0       -3.536121    0.064166    1.152937
     16          1           0       -2.750335   -1.519331   -1.379921
     17          1           0       -3.100114    0.205192   -1.358723
     18          1           0       -1.715099    2.261553    1.229622
     19          1           0       -1.181605    2.747865   -0.393089
     20          1           0       -2.624047    1.747666   -0.198599
     21          1           0        0.531126    1.909144    1.078784
     22          1           0        1.000919    1.772147   -1.475363
     23          1           0        2.324809    1.982185   -0.320268
     24          1           0        1.582182   -0.634961   -1.697335
     25          1           0        3.033973    0.362307   -1.953393
     26          1           0        3.606105   -1.326884   -0.455449
     27          1           0        2.671600   -1.625144    1.684189
     28          1           0        1.431085   -1.929447    0.446004
     29          1           0        1.872732    0.528193    2.168484
     30          1           0        0.425222   -0.479371    2.113356
 ---------------------------------------------------------------------

 SCF Done:  E(UB3LYP) =  -538.716815954     A.U. after   30 cycles

 The electronic state is 2-A.
 Alpha  occ. eigenvalues --  -18.97539 -14.23526 -14.19364 -10.16208 -10.10762
 Alpha  occ. eigenvalues --  -10.09215 -10.08232 -10.07910 -10.07201 -10.06403
 Alpha  occ. eigenvalues --  -10.06344 -10.06255  -0.92908  -0.82922  -0.80315
 Alpha  occ. eigenvalues --   -0.68818  -0.66298  -0.64859  -0.59814  -0.55972
 Alpha  occ. eigenvalues --   -0.53146  -0.52131  -0.46894  -0.41553  -0.39644
 Alpha  occ. eigenvalues --   -0.39339  -0.37301  -0.36267  -0.35430  -0.34162
 Alpha  occ. eigenvalues --   -0.33208  -0.31566  -0.31004  -0.29973  -0.29195
 Alpha  occ. eigenvalues --   -0.28559  -0.27904  -0.27017  -0.25415  -0.24844
 Alpha  occ. eigenvalues --   -0.24694  -0.23905  -0.22106  -0.21447  -0.14978
 Alpha  occ. eigenvalues --   -0.13568  -0.12196   0.04513
 Alpha virt. eigenvalues --    0.06772   0.07433   0.07790   0.08928   0.09219
 Alpha virt. eigenvalues --    0.09797   0.10328   0.10435   0.11768   0.12019
 Alpha virt. eigenvalues --    0.12173   0.12717   0.12857   0.12998   0.14246

  Beta  occ. eigenvalues --  -18.97531 -14.23522 -14.19355 -10.16203 -10.10752
  Beta  occ. eigenvalues --  -10.09151 -10.08225 -10.07907 -10.07183 -10.06392
  Beta  occ. eigenvalues --  -10.06306 -10.06238  -0.92893  -0.82904  -0.80302
  Beta  occ. eigenvalues --   -0.68785  -0.66258  -0.64837  -0.59722  -0.55930
  Beta  occ. eigenvalues --   -0.53086  -0.52101  -0.46858  -0.41501  -0.39594
  Beta  occ. eigenvalues --   -0.39292  -0.37264  -0.36235  -0.35400  -0.34139
  Beta  occ. eigenvalues --   -0.33181  -0.31525  -0.30959  -0.29940  -0.29150
  Beta  occ. eigenvalues --   -0.28514  -0.27878  -0.26979  -0.25383  -0.24819
  Beta  occ. eigenvalues --   -0.24654  -0.23880  -0.22079  -0.21419  -0.14960
  Beta  occ. eigenvalues --   -0.13532  -0.12173
  Beta virt. eigenvalues --    0.06712   0.07541   0.08237   0.08287   0.09456
  Beta virt. eigenvalues --    0.09824   0.10051   0.10724   0.10941   0.12073
  Beta virt. eigenvalues --    0.12312   0.12566   0.12966   0.13295   0.13352

 Mulliken charges and spin densities:
               1          2
     1  C    0.865010  -1.322715
     2  C   -0.832537   0.465035
     3  C    0.313749  -0.398936
     4  O   -0.295972   0.008430
     5  N    0.075164   0.150062
     6  C    2.270241  -2.609547
     7  C   -1.182055   1.156658
     8  C    0.456870  -0.851950
     9  C    0.202439  -0.567804
    10  N   -0.243610   0.070158
    11  C   -0.204863  -0.173425
    12  C   -0.067380  -0.245167
    13  H    0.010595   0.134850
    14  H   -0.462683   0.618592
    15  H   -0.198600   0.349664
    16  H    0.069241   0.102027
    17  H   -0.244553   0.407130
    18  H   -0.667990   0.859762
    19  H   -0.631316   0.800141
    20  H   -0.123841   0.272389
    21  H   -0.319086   0.513803
    22  H   -0.170574   0.299376
    23  H   -0.001104   0.155962
    24  H    0.171208  -0.007920
    25  H   -0.037791   0.201570
    26  H    0.131450   0.099065
    27  H    0.022740   0.126718
    28  H    0.180474   0.005069
    29  H   -0.087145   0.244078
    30  H    0.001916   0.136924
 Sum of Mulliken charges =  -1.00000   1.00000

 Dipole moment (field-independent basis, Debye):
    X=              5.0653    Y=             -4.8628    Z=             -1.1723  Tot=              7.1189
 Quadrupole moment (field-independent basis, Debye-Ang):
   XX=           -142.3404   YY=           -122.9363   ZZ=           -107.7833
   XY=              4.2838   XZ=              0.6726   YZ=             -3.4988

 Summary of Natural Population Analysis:

                                       Natural Population
                Natural  -----------------------------------------------
    Atom  No    Charge         Core      Valence    Rydberg      Total
 -----------------------------------------------------------------------
      C    1   -0.28281      0.99966     2.27802    0.00513     3.28281
      C    2   -0.22976      0.99961     2.22157    0.00858     3.22976
      C    3    0.34844      0.99963     1.62789    0.02405     2.65156
      O    4   -0.33902      0.99987     3.33375    0.00539     4.33902
      N    5   -0.25746      0.99964     2.74442    0.01340     3.75746
      C    6   -0.17458      0.99962     2.16658    0.00838     3.17458
      C    7    0.00027      0.99956     1.98522    0.01496     2.99973
      C    8   -0.19684      0.99960     2.18800    0.00924     3.19684
      C    9   -0.09230      0.99962     2.08223    0.01046     3.09230
      N   10   -0.34482      0.99974     2.83436    0.01072     3.84482
      C   11   -0.08960      0.99961     2.08066    0.00932     3.08960
      C   12   -0.19642      0.99960     2.18703    0.00979     3.19642
      H   13    0.09826      0.00000     0.40068    0.00106     0.40174
      H   14    0.10025      0.00000     0.39838    0.00137     0.39975
      H   15    0.10120      0.00000     0.39739    0.00141     0.39880
      H   16    0.10742      0.00000     0.39141    0.00116     0.39258
      H   17    0.10332      0.00000     0.39518    0.00150     0.39668
      H   18    0.09852      0.00000     0.39805    0.00343     0.40148
      H   19    0.09650      0.00000     0.40109    0.00241     0.40350
      H   20    0.10463      0.00000     0.39318    0.00219     0.39537
      H   21    0.10173      0.00000     0.39617    0.00210     0.39827
      H   22    0.10286      0.00000     0.39607    0.00106     0.39714
      H   23    0.09985      0.00000     0.39861    0.00154     0.40015
      H   24    0.09260      0.00000     0.40586    0.00154     0.40740
      H   25    0.08932      0.00000     0.40971    0.00098     0.41068
      H   26    0.17005      0.00000     0.32760    0.00236     0.32995
      H   27    0.08677      0.00000     0.41215    0.00108     0.41323
      H   28    0.09726      0.00000     0.40113    0.00161     0.40274
      H   29    0.09901      0.00000     0.39970    0.00129     0.40099
      H   30    0.10534      0.00000     0.39368    0.00098     0.39466
 =======================================================================
   * Total *   -0.00000     11.99575    34.84577    0.15847    47.00000

 Normal termination of Gaussian 16 at Wed Dec  9 18:48:07 2020.
